0001_q000_m01_k00_opt_uwb97xd_def2svpd/0001_q000_m01_k00_force_uhf_def2t
Force     UHF                                                         Gen                 
Number of atoms                            I                7
Info1-9                                    I   N=           9
          13           9           0           0           0         100
           5           1           2
Full Title                                 C   N=           8
0001_q000_m01_k00_opt_uwb97xd_def2svpd/0001_q000_m01_k00_for
ce_uhf_def2tzvp stable-force        
Route                                      C   N=          15
#p uhf/chkbasis force guess=read geom=check scf=(maxcycle=90
0,verytightlineq,xqc) integral=grid=ultrafine symmetry=None 
density=current pop=(cm5,hlygat,mbs,npa) output=wfx         
Charge                                     I                0
Multiplicity                               I                1
Number of electrons                        I               24
Number of alpha electrons                  I               12
Number of beta electrons                   I               12
Number of basis functions                  I              117
Number of independent functions            I              117
Number of point charges in /Mol/           I                0
Number of translation vectors              I                0
Atomic numbers                             I   N=           7
           6           7           7           1           1           1
           1
Nuclear charges                            R   N=           7
  6.00000000E+00  7.00000000E+00  7.00000000E+00  1.00000000E+00  1.00000000E+00
  1.00000000E+00  1.00000000E+00
Current cartesian coordinates              R   N=          21
  2.02695212E+00 -1.32657117E-01 -2.89151970E-01  4.49366243E+00 -1.69594780E-01
 -4.80718912E-01  5.82669740E+00 -6.96306974E-01 -2.47313900E+00  7.67994023E+00
 -5.53065660E-01 -1.97974669E+00  1.20935456E+00  3.49890902E-01  1.52789288E+00
  9.12820557E-01 -5.85776711E-01 -1.95345676E+00  5.41878558E+00  2.75672749E-01
  1.15865244E+00
Number of symbols in /Mol/                 I                0
Int Atom Types                             I   N=           7
           0           0           0           0           0           0
           0
Force Field                                I                0
Atom Types                                 C   N=           7
                                                            
                        
MM charges                                 R   N=           7
  0.00000000E+00  0.00000000E+00  0.00000000E+00  0.00000000E+00  0.00000000E+00
  0.00000000E+00  0.00000000E+00
Integer atomic weights                     I   N=           7
          12          14          14           1           1           1
           1
Real atomic weights                        R   N=           7
  1.20000000E+01  1.40030740E+01  1.40030740E+01  1.00782504E+00  1.00782504E+00
  1.00782504E+00  1.00782504E+00
Atom fragment info                         I   N=           7
           0           0           0           0           0           0
           0
Atom residue num                           I   N=           7
           0           0           0           0           0           0
           0
Nuclear spins                              I   N=           7
           0           2           2           1           1           1
           1
Nuclear ZEff                               R   N=           7
 -3.60000000E+00 -4.55000000E+00 -4.55000000E+00 -1.00000000E+00 -1.00000000E+00
 -1.00000000E+00 -1.00000000E+00
Nuclear ZNuc                               R   N=           7
  6.00000000E+00  7.00000000E+00  7.00000000E+00  1.00000000E+00  1.00000000E+00
  1.00000000E+00  1.00000000E+00
Nuclear QMom                               R   N=           7
  0.00000000E+00  2.04400000E+00  2.04400000E+00  0.00000000E+00  0.00000000E+00
  0.00000000E+00  0.00000000E+00
Nuclear GFac                               R   N=           7
  0.00000000E+00  4.03761000E-01  4.03761000E-01  2.79284600E+00  2.79284600E+00
  2.79284600E+00  2.79284600E+00
MicOpt                                     I   N=           7
          -1          -1          -1          -1          -1          -1
          -1
Number of residues                         I                0
Number of secondary structures             I                0
Number of contracted shells                I               49
Number of primitive shells                 I               84
Pure/Cartesian d shells                    I                0
Pure/Cartesian f shells                    I                0
Highest angular momentum                   I                3
Largest degree of contraction              I                6
Shell types                                I   N=          49
           0           0           0           0           0           1
           1           1          -2          -2          -3           0
           0           0           0           0           1           1
           1          -2          -2          -3           0           0
           0           0           0           1           1           1
          -2          -2          -3           0           0           0
           1           0           0           0           1           0
           0           0           1           0           0           0
           1
Number of primitives per shell             I   N=          49
           6           2           1           1           1           4
           1           1           1           1           1           6
           2           1           1           1           4           1
           1           1           1           1           6           2
           1           1           1           4           1           1
           1           1           1           3           1           1
           1           3           1           1           1           3
           1           1           1           3           1           1
           1
Shell to atom map                          I   N=          49
           1           1           1           1           1           1
           1           1           1           1           1           2
           2           2           2           2           2           2
           2           2           2           2           3           3
           3           3           3           3           3           3
           3           3           3           4           4           4
           4           5           5           5           5           6
           6           6           6           7           7           7
           7
Primitive exponents                        R   N=          84
  1.35753497E+04  2.03523337E+03  4.63225624E+02  1.31200196E+02  4.28530159E+01
  1.55841858E+01  6.20671385E+00  2.57648965E+00  5.76963394E-01  2.29728314E-01
  9.51644400E-02  3.46972322E+01  7.95826228E+00  2.37808269E+00  8.14332082E-01
  2.88875473E-01  1.00568237E-01  1.09700000E+00  3.18000000E-01  7.61000000E-01
  1.97308006E+04  2.95789587E+03  6.73221336E+02  1.90682495E+02  6.22954419E+01
  2.26541612E+01  8.97914774E+00  3.68630024E+00  8.46600768E-01  3.36471338E-01
  1.36476537E-01  4.92003805E+01  1.13467905E+01  3.42739724E+00  1.17855251E+00
  4.16422050E-01  1.42608260E-01  1.65400000E+00  4.69000000E-01  1.09300000E+00
  1.97308006E+04  2.95789587E+03  6.73221336E+02  1.90682495E+02  6.22954419E+01
  2.26541612E+01  8.97914774E+00  3.68630024E+00  8.46600768E-01  3.36471338E-01
  1.36476537E-01  4.92003805E+01  1.13467905E+01  3.42739724E+00  1.17855251E+00
  4.16422050E-01  1.42608260E-01  1.65400000E+00  4.69000000E-01  1.09300000E+00
  3.40613410E+01  5.12357460E+00  1.16466260E+00  3.27230410E-01  1.03072410E-01
  8.00000000E-01  3.40613410E+01  5.12357460E+00  1.16466260E+00  3.27230410E-01
  1.03072410E-01  8.00000000E-01  3.40613410E+01  5.12357460E+00  1.16466260E+00
  3.27230410E-01  1.03072410E-01  8.00000000E-01  3.40613410E+01  5.12357460E+00
  1.16466260E+00  3.27230410E-01  1.03072410E-01  8.00000000E-01
Contraction coefficients                   R   N=          84
  6.06455036E-04  4.69790889E-03  2.43324776E-02  9.73999683E-02  3.01955843E-01
  6.62336091E-01  6.55953085E-01  3.75856333E-01  1.00000000E+00  1.00000000E+00
  1.00000000E+00  1.13272200E-02  7.61696592E-02  3.01922522E-01  7.27850273E-01
  1.00000000E+00  1.00000000E+00  1.00000000E+00  1.00000000E+00  1.00000000E+00
  5.86264026E-04  4.54288206E-03  2.35584135E-02  9.47091933E-02  2.97197849E-01
  6.69162469E-01  6.45966836E-01  3.87005744E-01  1.00000000E+00  1.00000000E+00
  1.00000000E+00  1.14488251E-02  7.84223380E-02  3.08180947E-01  7.20271964E-01
  1.00000000E+00  1.00000000E+00  1.00000000E+00  1.00000000E+00  1.00000000E+00
  5.86264026E-04  4.54288206E-03  2.35584135E-02  9.47091933E-02  2.97197849E-01
  6.69162469E-01  6.45966836E-01  3.87005744E-01  1.00000000E+00  1.00000000E+00
  1.00000000E+00  1.14488251E-02  7.84223380E-02  3.08180947E-01  7.20271964E-01
  1.00000000E+00  1.00000000E+00  1.00000000E+00  1.00000000E+00  1.00000000E+00
  2.54393072E-02  1.90085949E-01  8.52441130E-01  1.00000000E+00  1.00000000E+00
  1.00000000E+00  2.54393072E-02  1.90085949E-01  8.52441130E-01  1.00000000E+00
  1.00000000E+00  1.00000000E+00  2.54393072E-02  1.90085949E-01  8.52441130E-01
  1.00000000E+00  1.00000000E+00  1.00000000E+00  2.54393072E-02  1.90085949E-01
  8.52441130E-01  1.00000000E+00  1.00000000E+00  1.00000000E+00
Coordinates of each shell                  R   N=         147
  2.02695212E+00 -1.32657117E-01 -2.89151970E-01  2.02695212E+00 -1.32657117E-01
 -2.89151970E-01  2.02695212E+00 -1.32657117E-01 -2.89151970E-01  2.02695212E+00
 -1.32657117E-01 -2.89151970E-01  2.02695212E+00 -1.32657117E-01 -2.89151970E-01
  2.02695212E+00 -1.32657117E-01 -2.89151970E-01  2.02695212E+00 -1.32657117E-01
 -2.89151970E-01  2.02695212E+00 -1.32657117E-01 -2.89151970E-01  2.02695212E+00
 -1.32657117E-01 -2.89151970E-01  2.02695212E+00 -1.32657117E-01 -2.89151970E-01
  2.02695212E+00 -1.32657117E-01 -2.89151970E-01  4.49366243E+00 -1.69594780E-01
 -4.80718912E-01  4.49366243E+00 -1.69594780E-01 -4.80718912E-01  4.49366243E+00
 -1.69594780E-01 -4.80718912E-01  4.49366243E+00 -1.69594780E-01 -4.80718912E-01
  4.49366243E+00 -1.69594780E-01 -4.80718912E-01  4.49366243E+00 -1.69594780E-01
 -4.80718912E-01  4.49366243E+00 -1.69594780E-01 -4.80718912E-01  4.49366243E+00
 -1.69594780E-01 -4.80718912E-01  4.49366243E+00 -1.69594780E-01 -4.80718912E-01
  4.49366243E+00 -1.69594780E-01 -4.80718912E-01  4.49366243E+00 -1.69594780E-01
 -4.80718912E-01  5.82669740E+00 -6.96306974E-01 -2.47313900E+00  5.82669740E+00
 -6.96306974E-01 -2.47313900E+00  5.82669740E+00 -6.96306974E-01 -2.47313900E+00
  5.82669740E+00 -6.96306974E-01 -2.47313900E+00  5.82669740E+00 -6.96306974E-01
 -2.47313900E+00  5.82669740E+00 -6.96306974E-01 -2.47313900E+00  5.82669740E+00
 -6.96306974E-01 -2.47313900E+00  5.82669740E+00 -6.96306974E-01 -2.47313900E+00
  5.82669740E+00 -6.96306974E-01 -2.47313900E+00  5.82669740E+00 -6.96306974E-01
 -2.47313900E+00  5.82669740E+00 -6.96306974E-01 -2.47313900E+00  7.67994023E+00
 -5.53065660E-01 -1.97974669E+00  7.67994023E+00 -5.53065660E-01 -1.97974669E+00
  7.67994023E+00 -5.53065660E-01 -1.97974669E+00  7.67994023E+00 -5.53065660E-01
 -1.97974669E+00  1.20935456E+00  3.49890902E-01  1.52789288E+00  1.20935456E+00
  3.49890902E-01  1.52789288E+00  1.20935456E+00  3.49890902E-01  1.52789288E+00
  1.20935456E+00  3.49890902E-01  1.52789288E+00  9.12820557E-01 -5.85776711E-01
 -1.95345676E+00  9.12820557E-01 -5.85776711E-01 -1.95345676E+00  9.12820557E-01
 -5.85776711E-01 -1.95345676E+00  9.12820557E-01 -5.85776711E-01 -1.95345676E+00
  5.41878558E+00  2.75672749E-01  1.15865244E+00  5.41878558E+00  2.75672749E-01
  1.15865244E+00  5.41878558E+00  2.75672749E-01  1.15865244E+00  5.41878558E+00
  2.75672749E-01  1.15865244E+00
Num ILSW                                   I              100
ILSW                                       I   N=         100
           1           0           0           0           2           0
           0           0           0           0           0          -1
           5           0           0           0           2           0
           0           0           0           0           1           0
           1           1           0           0           0           0
           0           0      100000           0          -1           0
           0           0           0           0           0           0
           0           0           0           1           0           0
           0 -2000000000           1           0           0           0
           0           0           4          52           0           0
           0           0           0           0           0           0
           0           0           0           7           0           1
           0           0           0           0           0           0
           0           0           0           0           0           0
           0           0           0           0           0           0
           0           0           0           0           0           0
           0           0           0           0
Num RLSW                                   I               52
RLSW                                       R   N=          52
  1.00000000E+00  1.00000000E+00  1.00000000E+00  1.00000000E+00  1.00000000E+00
  0.00000000E+00  0.00000000E+00  1.00000000E+00  0.00000000E+00  0.00000000E+00
  0.00000000E+00  0.00000000E+00  1.00000000E+00  0.00000000E+00  0.00000000E+00
  0.00000000E+00  0.00000000E+00  1.00000000E+00  0.00000000E+00  0.00000000E+00
  0.00000000E+00  0.00000000E+00  1.00000000E+00  0.00000000E+00  0.00000000E+00
  0.00000000E+00  0.00000000E+00  1.00000000E+00  0.00000000E+00  0.00000000E+00
  0.00000000E+00  0.00000000E+00  1.00000000E+00  0.00000000E+00  0.00000000E+00
  0.00000000E+00  0.00000000E+00  0.00000000E+00  1.00000000E+00  1.00000000E+00
  0.00000000E+00  1.00000000E+00  0.00000000E+00  0.00000000E+00  0.00000000E+00
  0.00000000E+00  0.00000000E+00  0.00000000E+00  0.00000000E+00  0.00000000E+00
  0.00000000E+00  0.00000000E+00
MxBond                                     I                3
NBond                                      I   N=           7
           3           3           2           1           1           1
           1
IBond                                      I   N=          21
           2           5           6           1           3           7
           2           4           0           3           0           0
           1           0           0           1           0           0
           2           0           0
RBond                                      R   N=          21
  2.00000000E+00  1.00000000E+00  1.00000000E+00  2.00000000E+00  1.00000000E+00
  1.00000000E+00  1.00000000E+00  1.00000000E+00  0.00000000E+00  1.00000000E+00
  0.00000000E+00  0.00000000E+00  1.00000000E+00  0.00000000E+00  0.00000000E+00
  1.00000000E+00  0.00000000E+00  0.00000000E+00  1.00000000E+00  0.00000000E+00
  0.00000000E+00
Virial Ratio                               R      2.000237886461716E+00
SCF Energy                                 R     -1.490536800692017E+02
Total Energy                               R     -1.490536800692017E+02
S**2                                       R      6.476099545858922E-01
S**2 after annihilation                    R      6.414984383546141E-02
RMS Force                                  R      1.709751943293368E-02
RMS Density                                R      1.064193600915762E-10
Job Status                                 I                1
Nuclear derivative order                   I                1
External E-field                           R   N=          35
  0.00000000E+00  0.00000000E+00  0.00000000E+00  0.00000000E+00  0.00000000E+00
  0.00000000E+00  0.00000000E+00  0.00000000E+00  0.00000000E+00  0.00000000E+00
  0.00000000E+00  0.00000000E+00  0.00000000E+00  0.00000000E+00  0.00000000E+00
  0.00000000E+00  0.00000000E+00  0.00000000E+00  0.00000000E+00  0.00000000E+00
  0.00000000E+00  0.00000000E+00  0.00000000E+00  0.00000000E+00  0.00000000E+00
  0.00000000E+00  0.00000000E+00  0.00000000E+00  0.00000000E+00  0.00000000E+00
  0.00000000E+00  0.00000000E+00  0.00000000E+00  0.00000000E+00  0.00000000E+00
IOpCl                                      I                1
IROHF                                      I                0
Alpha Orbital Energies                     R   N=         117
 -1.56479102E+01 -1.55444774E+01 -1.12515078E+01 -1.33939571E+00 -1.05849337E+00
 -8.52433319E-01 -7.51241519E-01 -6.47051990E-01 -5.73216933E-01 -5.62373137E-01
 -4.32382141E-01 -2.98181653E-01  1.20227962E-01  1.63638260E-01  1.82914887E-01
  1.97336680E-01  2.25837326E-01  2.70025695E-01  3.14425786E-01  3.45660847E-01
  3.97619974E-01  4.40498509E-01  5.21272521E-01  5.32637103E-01  5.54516913E-01
  5.76554827E-01  6.10715822E-01  6.13605523E-01  6.32017816E-01  6.35932651E-01
  6.99796406E-01  7.28910636E-01  7.35330107E-01  7.80637035E-01  8.44069812E-01
  8.97231085E-01  9.43744869E-01  1.09045774E+00  1.19782347E+00  1.21435361E+00
  1.27152745E+00  1.32117043E+00  1.42998405E+00  1.50069845E+00  1.58428787E+00
  1.58488096E+00  1.69396126E+00  1.72872266E+00  1.73778858E+00  1.77071718E+00
  1.85776597E+00  1.92847330E+00  1.93121307E+00  2.01174580E+00  2.04188348E+00
  2.05192495E+00  2.13527520E+00  2.23122870E+00  2.26793876E+00  2.30637392E+00
  2.36577999E+00  2.40354105E+00  2.42073751E+00  2.47895982E+00  2.49372948E+00
  2.60480255E+00  2.64596314E+00  2.72706370E+00  2.79252309E+00  2.88150574E+00
  2.95370552E+00  3.03993010E+00  3.08967191E+00  3.11855726E+00  3.17955009E+00
  3.22824274E+00  3.26366152E+00  3.37939635E+00  3.44568688E+00  3.49183429E+00
  3.56280905E+00  3.57186649E+00  3.59566096E+00  3.79080503E+00  3.87010169E+00
  3.99384823E+00  4.05635488E+00  4.10654008E+00  4.12225294E+00  4.32426738E+00
  4.33509309E+00  4.48736025E+00  4.55717544E+00  4.67748440E+00  4.85368944E+00
  4.96726849E+00  5.01338493E+00  5.03498444E+00  5.12547725E+00  5.14186851E+00
  5.18078212E+00  5.20418601E+00  5.33252183E+00  5.39680198E+00  5.46305236E+00
  5.57280701E+00  5.58520209E+00  5.68223858E+00  6.01636495E+00  6.02421642E+00
  6.15585396E+00  6.40342261E+00  6.55136372E+00  7.32776660E+00  2.34932716E+01
  3.29954780E+01  3.35172165E+01
Beta Orbital Energies                      R   N=         117
 -1.56540615E+01 -1.55677671E+01 -1.12323565E+01 -1.36141886E+00 -1.08126032E+00
 -8.38500592E-01 -7.51757219E-01 -6.47657510E-01 -6.11552965E-01 -5.67259056E-01
 -4.60817119E-01 -3.54648329E-01  1.19118561E-01  1.49288677E-01  1.83005848E-01
  2.02664164E-01  2.27993625E-01  2.72424325E-01  3.27149855E-01  3.99088953E-01
  4.13603733E-01  4.31722514E-01  5.12214690E-01  5.20399853E-01  5.54451387E-01
  5.68043964E-01  5.90742241E-01  6.03789427E-01  6.32884916E-01  6.51066011E-01
  6.96148411E-01  7.19037041E-01  7.38712660E-01  8.09966550E-01  8.31760424E-01
  9.01383017E-01  9.72721865E-01  1.10781259E+00  1.18129390E+00  1.21864964E+00
  1.28426704E+00  1.29000580E+00  1.42728822E+00  1.49751310E+00  1.58954642E+00
  1.59204807E+00  1.69429418E+00  1.71419398E+00  1.77053263E+00  1.79198678E+00
  1.86005918E+00  1.91110700E+00  1.93509777E+00  2.00745155E+00  2.04856653E+00
  2.06056614E+00  2.13433331E+00  2.21001853E+00  2.26482075E+00  2.30474112E+00
  2.35431812E+00  2.40118500E+00  2.40526065E+00  2.47291932E+00  2.47447670E+00
  2.61115899E+00  2.64570508E+00  2.68010502E+00  2.79624073E+00  2.88615215E+00
  2.95439956E+00  3.03914661E+00  3.08602827E+00  3.11735434E+00  3.19629411E+00
  3.26086075E+00  3.30868092E+00  3.38168916E+00  3.46970862E+00  3.51345962E+00
  3.55978074E+00  3.56943081E+00  3.61678752E+00  3.80353058E+00  3.87400759E+00
  3.98803981E+00  4.05808916E+00  4.10823705E+00  4.10898828E+00  4.32054029E+00
  4.33157926E+00  4.47433962E+00  4.52686546E+00  4.66803214E+00  4.85679748E+00
  4.93263065E+00  4.99675994E+00  5.02941318E+00  5.10111880E+00  5.12052341E+00
  5.14614435E+00  5.16757334E+00  5.30490436E+00  5.38697102E+00  5.45634186E+00
  5.57545191E+00  5.57945944E+00  5.67501932E+00  6.01004042E+00  6.02164386E+00
  6.13888757E+00  6.39719003E+00  6.54823455E+00  7.31801764E+00  2.35062525E+01
  3.29806638E+01  3.35134387E+01
Alpha MO coefficients                      R   N=       13689
 -6.47882094E-07  4.13051231E-05 -4.66221990E-05  1.18394663E-03 -2.18141712E-03
  1.31036135E-04 -4.07798994E-06 -1.80628366E-05  4.76822791E-04  4.90364794E-05
  1.72433531E-04 -4.78754627E-04  1.08267336E-04  4.13937268E-04  4.98366783E-05
  2.02419224E-05 -1.24726031E-06 -9.11036642E-05  4.36233291E-06  3.24675807E-05
  2.10206621E-04  7.86213901E-05  2.10821714E-04  5.89960463E-05 -4.26096168E-05
  5.00091242E-05 -3.26931151E-06  5.70482875E-05  2.08933486E-06 -6.08401544E-05
  1.77469289E-05  4.48983295E-01  6.30131653E-01  2.06404201E-02 -8.93269299E-03
  6.83646101E-03  1.18291220E-04 -4.00654042E-05 -1.52068518E-04  2.47382268E-04
  6.51962204E-05  2.37683104E-04  1.90590597E-04 -2.65752916E-04 -9.94766313E-04
  1.24684373E-04 -1.40028645E-04  1.55989086E-04  3.26870968E-04 -3.34902859E-05
  3.38605073E-05  4.12032475E-04 -2.36004762E-05 -1.49943462E-04  1.08752804E-04
  2.13807321E-05  3.23785477E-04  3.55285041E-05  2.90653034E-05  9.87124556E-05
 -1.40640224E-04  9.20091066E-06  2.09620827E-03  2.95569555E-03  1.29066399E-04
  8.35526717E-04 -2.49263253E-03 -1.13912507E-04  3.60377479E-05  1.36818510E-04
 -9.66954565E-05  1.08169046E-04  4.05297481E-04  4.78262294E-04 -2.01677322E-04
 -7.62192874E-04 -2.87414355E-05  2.36086861E-05 -1.98537084E-05 -1.94463689E-05
  6.07462893E-06  5.17561242E-05  1.01905546E-04  1.00496514E-05 -5.72730260E-05
  2.66819906E-05 -7.28044000E-06  1.22947209E-04 -3.95314512E-05 -6.42757454E-05
  6.30830435E-05  2.22737517E-05 -2.26853792E-05 -6.10494227E-05  2.68905712E-05
  7.75176928E-06  2.24513770E-05 -1.17268563E-05 -4.42018762E-05  1.40212965E-05
 -2.78933045E-04  2.20877054E-04 -1.01104157E-04  9.31111917E-06  3.69304888E-05
 -8.27779134E-06 -2.74802057E-04  6.02830310E-04 -6.43607874E-05 -1.01520782E-05
 -3.64181108E-05  3.51121016E-05  8.35993510E-05 -5.66349151E-04  6.94463531E-05
  6.06042244E-05  2.24366396E-04 -3.00793190E-06  1.75816558E-05 -1.28257773E-04
 -1.53570478E-04 -7.80964317E-04 -2.75152116E-05 -1.86756273E-06 -6.36162178E-06
 -7.52323711E-04  5.65298504E-05  2.27213327E-04 -1.40471937E-04  1.65299360E-04
  6.19205203E-04 -1.96626652E-06  4.15673725E-06 -5.68920062E-06 -1.63805868E-05
  9.15858400E-07  2.89813770E-04  1.83186644E-04  1.02510219E-04 -1.51582711E-04
  4.75414766E-05 -1.25592450E-05 -6.09787007E-05 -6.60999707E-06  7.59128814E-06
 -3.14442754E-05 -1.03267007E-05  1.91950637E-06 -2.19504994E-03 -3.07152016E-03
 -6.15187012E-04  4.03089860E-03  1.93998310E-04  8.52660188E-05 -4.05386753E-05
 -1.52964555E-04  1.18249427E-03 -4.45847900E-04 -1.68773367E-03 -4.01940969E-04
 -2.02431240E-04 -7.45739834E-04  5.15845318E-05 -3.90885409E-05  1.08445529E-05
 -5.09137786E-05 -1.10675623E-05 -6.21240367E-05 -4.81877386E-04  1.13776242E-04
  5.12427925E-04 -1.23089818E-04  6.43168659E-05 -9.85832576E-05  6.07541243E-05
  1.78320612E-05 -4.41809808E-05  1.28439624E-06  8.73931084E-06  4.49264005E-01
  6.30450335E-01  1.96149455E-02 -9.81391689E-03  2.89997027E-03  2.43386734E-04
  7.14344343E-04  2.65728333E-03  7.58094025E-04 -9.00333241E-04 -3.37244140E-03
  5.99074152E-04  1.36885917E-04  4.97101568E-04  3.91737743E-04 -6.33167791E-05
  3.66055195E-04  5.89143971E-04 -9.49578491E-06 -7.78220943E-04  7.60664664E-04
 -4.23883474E-04 -1.36158933E-04  2.01815728E-04 -1.19393235E-04 -1.09095024E-05
 -8.64091507E-05  1.83611004E-05  2.96900458E-05  9.79287724E-05  3.78665354E-06
  1.23008367E-04  3.74120327E-04 -1.01827889E-03  6.20181522E-05  6.20561093E-05
  2.29948784E-04 -2.12176969E-05 -3.57413081E-04 -1.84104076E-04 -6.44546549E-05
  1.73059606E-05  6.59392996E-05 -5.13154953E-05 -2.64374879E-04  5.55865988E-04
 -5.20620492E-05 -1.59097135E-05 -5.81325059E-05 -1.06825575E-06 -4.20178419E-05
  3.13817083E-04 -1.45522804E-04  4.17669348E-05  1.58870276E-04  4.67190811E-01
  6.12259191E-01  2.07811048E-02 -5.39085277E-03  3.70060695E-03  1.00737124E-03
  1.29903075E-05  2.66924029E-05  1.27578057E-03 -1.85969842E-05 -9.72915205E-05
 -3.57980948E-04 -3.58746939E-05 -1.25691932E-04 -2.09036582E-04 -3.06266301E-05
 -8.70931603E-05  6.14809202E-05 -7.65137702E-06 -2.73659419E-04 -9.89960386E-05
  8.77720298E-05  7.79882574E-04 -1.72607214E-05  1.45170544E-04 -7.58560600E-04
  3.37666932E-05 -1.43456074E-04 -2.20606176E-04  3.61472364E-04 -4.04085203E-05
 -1.54398169E-04 -2.59474531E-04  5.15323796E-04 -1.44829919E-03  2.11873761E-05
 -4.25989160E-04  1.37208839E-05  6.04560258E-05  2.31758096E-03 -1.78388842E-04
 -7.15540865E-04 -6.63009364E-04  1.53016629E-06  2.01713735E-05 -6.38564709E-05
 -1.22822384E-05 -2.60040833E-05  2.09384081E-05 -3.08917101E-06  9.44674669E-04
 -2.17815618E-05  2.40624529E-04 -8.03304546E-04 -1.48796150E-05  7.75309610E-07
 -7.82170529E-06 -1.00670214E-05 -1.98637468E-05  1.48067975E-05  5.27588127E-05
 -6.10198342E-06  4.23753809E-06  2.20950855E-05  9.11447021E-05 -8.35491738E-04
  8.75339912E-05 -2.38310807E-05 -1.41816860E-06 -4.76910954E-06  6.83412257E-04
 -1.27634224E-04 -4.90688771E-04  2.33204572E-04  4.72425250E-05  1.70989962E-04
 -2.01730462E-05 -2.22385767E-07 -1.79760291E-05 -2.72332411E-05 -4.07247327E-07
  4.50571568E-06  4.00388248E-04 -6.01236628E-06 -3.79828567E-05  1.06964639E-04
  3.11407352E-05  5.23969100E-05  1.23309498E-05 -2.45891133E-05  2.61020511E-05
  6.92816597E-06 -7.37720641E-06 -6.69354070E-05 -1.01892772E-04  6.08948591E-06
  2.28573967E-05  4.39221399E-06  1.58706042E-05 -1.00852869E-04  1.35849320E-04
 -8.12765954E-04 -1.08353813E-04  1.02437092E-04  3.84315343E-04 -9.05624405E-05
  1.24665058E-04 -1.00482881E-03 -1.60213250E-04 -8.70835950E-05 -3.21028278E-04
 -1.63528265E-04 -9.94436605E-05 -2.90302931E-05  1.33981682E-04  1.03112967E-06
  9.06977824E-07 -3.31423100E-02 -7.26822467E-02  1.16325048E-01  6.65841103E-02
  1.88624907E-02  6.93157903E-02 -1.75112872E-03 -8.04110143E-03  2.43598568E-02
 -1.69768742E-03 -6.86134667E-03  1.81022431E-03  1.52242204E-03  5.63582482E-03
 -4.40080913E-03 -2.15588457E-03  6.76384837E-05  7.90615728E-03 -4.85661817E-04
 -4.60159132E-03 -2.99347292E-03 -2.68502683E-03 -1.24793364E-03 -8.22197822E-04
  7.59121386E-04 -1.92648665E-03  7.68659779E-05 -9.68142151E-04 -2.12421255E-04
  1.92381638E-03 -2.84899683E-04 -8.29287592E-02 -1.93158108E-01  2.74041230E-01
  3.75996437E-01  5.08028904E-02  9.72152429E-03 -1.07846520E-02 -4.04144725E-02
  2.37320956E-03 -9.48530161E-03 -3.54103175E-02  7.55845585E-03  8.15810267E-04
  2.87604877E-03  3.78776321E-03 -4.85612151E-03  4.16841789E-03  7.97147380E-03
 -1.20277841E-03  5.54908320E-03 -1.56782531E-02  7.66312942E-03  1.72624809E-02
 -3.99176440E-03 -4.38848527E-05  7.58255060E-03 -4.79638009E-04 -9.31690960E-04
  2.40309005E-03 -2.96144228E-03 -3.77927194E-04 -4.87118759E-02 -1.13021315E-01
  1.63150729E-01  1.73425467E-01  4.06728340E-02 -3.40336457E-02  2.03921154E-02
  7.67536578E-02 -2.01022878E-02  1.40073316E-02  5.26503536E-02 -7.96489386E-03
  1.53897916E-03  5.91022327E-03  5.85043189E-03 -6.43794440E-03  4.54662193E-03
  5.74444545E-03 -1.65269201E-03  8.68066253E-03 -8.37968967E-03  5.85875633E-03
  5.42659086E-03 -2.17533527E-03  1.24840055E-04 -3.91484079E-03  1.44818297E-03
  2.55099698E-03 -1.53305559E-03  6.12606382E-04  9.24411450E-04  3.49316338E-02
  3.29530331E-02  1.91797422E-03 -7.75522053E-03  1.81769539E-05  2.37272765E-04
  1.22478832E-02  1.78059611E-02 -7.98885125E-03  3.26645823E-03 -7.04750892E-04
 -2.69917283E-03  1.27271794E-02  1.83136352E-02 -9.25709622E-04  3.21529877E-03
  6.31547927E-04  2.28323621E-03  5.57838249E-02  4.90306393E-02 -2.85832037E-03
 -4.21322930E-03 -2.87041953E-03 -1.06066308E-02  6.45646871E-02  1.43330234E-01
 -2.21915156E-01 -2.14061412E-01 -4.89870854E-02 -7.10391636E-02 -3.36786536E-03
 -1.10054841E-02 -1.98729253E-02 -3.51302935E-03 -1.26632801E-02 -5.50309147E-03
 -6.67922432E-04 -2.36991092E-03  4.18918214E-03 -4.36232756E-04 -5.71558143E-04
 -9.22248978E-03 -2.26072654E-04 -2.64037066E-03 -4.25651721E-03 -1.02414809E-03
  1.12995104E-03 -1.13037213E-03 -6.59151893E-04  5.91126388E-03 -2.70518156E-04
  4.04127231E-04  1.27849211E-03 -4.03329278E-03  5.39563905E-05  1.92438035E-02
  4.48453919E-02 -6.24396008E-02 -1.12871124E-01 -1.36871420E-02  1.78775033E-01
 -2.90967742E-02 -1.12362567E-01  1.51735800E-01 -2.22428565E-02 -8.62243741E-02
  2.52956767E-02 -1.91496211E-03 -7.69111141E-03  5.35941124E-03 -6.13729007E-03
  1.15794953E-03 -5.13278843E-03 -1.70493571E-03  9.32674202E-03 -7.45204734E-03
  6.74995538E-04 -1.36435646E-02 -2.15827943E-03  9.03603514E-05  5.45496537E-05
 -1.42483194E-03 -2.78602495E-03  1.42616950E-03  4.07725519E-03 -9.18265744E-04
 -5.98383743E-02 -1.39772416E-01  2.01303815E-01  2.63931468E-01  8.27008107E-02
  2.53649834E-02  1.50191590E-02  5.54283577E-02  1.88355493E-02  1.41583704E-02
  5.23625963E-02 -6.38856831E-03  1.75245255E-03  6.67201337E-03  4.27591133E-03
 -1.46059054E-03  4.06430252E-03  6.68651414E-03 -3.06987962E-04  1.01073994E-02
 -3.01487909E-03  8.27977515E-03  1.12039640E-02 -6.64343632E-04  5.74765692E-04
 -3.77780950E-03  1.72273523E-03  2.37864622E-03 -9.86403238E-04  1.98370302E-03
  9.06531115E-04  7.19027074E-02  8.17850371E-02  1.00484654E-02 -1.42698793E-02
 -5.09461881E-04 -1.58701650E-03 -4.59945201E-02 -4.78024577E-02 -1.71076413E-03
 -4.59731313E-03  1.71571287E-03  6.49673414E-03 -3.62957569E-02 -3.50271596E-02