 Entering Gaussian System, Link 0=g16
 Input=0001_q000_m01_k00_force_uhf_def2qzvpd.com
 Output=0001_q000_m01_k00_force_uhf_def2qzvpd.log
 Initial command:
 /opt/software/gaussian/g16.c01/l1.exe "/localscratch/bhavuk.2151339.0/Gau-20211.inp" -scrdir="/localscratch/bhavuk.2151339.0/"
 Entering Link 1 = /opt/software/gaussian/g16.c01/l1.exe PID=     20212.
  
 Copyright (c) 1988-2019, Gaussian, Inc.  All Rights Reserved.
  
 This is part of the Gaussian(R) 16 program.  It is based on
 the Gaussian(R) 09 system (copyright 2009, Gaussian, Inc.),
 the Gaussian(R) 03 system (copyright 2003, Gaussian, Inc.),
 the Gaussian(R) 98 system (copyright 1998, Gaussian, Inc.),
 the Gaussian(R) 94 system (copyright 1995, Gaussian, Inc.),
 the Gaussian 92(TM) system (copyright 1992, Gaussian, Inc.),
 the Gaussian 90(TM) system (copyright 1990, Gaussian, Inc.),
 the Gaussian 88(TM) system (copyright 1988, Gaussian, Inc.),
 the Gaussian 86(TM) system (copyright 1986, Carnegie Mellon
 University), and the Gaussian 82(TM) system (copyright 1983,
 Carnegie Mellon University). Gaussian is a federally registered
 trademark of Gaussian, Inc.
  
 This software contains proprietary and confidential information,
 including trade secrets, belonging to Gaussian, Inc.
  
 This software is provided under written license and may be
 used, copied, transmitted, or stored only in accord with that
 written license.
  
 The following legend is applicable only to US Government
 contracts under FAR:
  
                    RESTRICTED RIGHTS LEGEND
  
 Use, reproduction and disclosure by the US Government is
 subject to restrictions as set forth in subparagraphs (a)
 and (c) of the Commercial Computer Software - Restricted
 Rights clause in FAR 52.227-19.
  
 Gaussian, Inc.
 340 Quinnipiac St., Bldg. 40, Wallingford CT 06492
  
  
 ---------------------------------------------------------------
 Warning -- This program may not be used in any manner that
 competes with the business of Gaussian, Inc. or will provide
 assistance to any competitor of Gaussian, Inc.  The licensee
 of this program is prohibited from giving any competitor of
 Gaussian, Inc. access to this program.  By using this program,
 the user acknowledges that Gaussian, Inc. is engaged in the
 business of creating and licensing software in the field of
 computational chemistry and represents and warrants to the
 licensee that it is not a competitor of Gaussian, Inc. and that
 it will not use this program in any manner prohibited above.
 ---------------------------------------------------------------
  

 Cite this work as:
 Gaussian 16, Revision C.01,
 M. J. Frisch, G. W. Trucks, H. B. Schlegel, G. E. Scuseria, 
 M. A. Robb, J. R. Cheeseman, G. Scalmani, V. Barone, 
 G. A. Petersson, H. Nakatsuji, X. Li, M. Caricato, A. V. Marenich, 
 J. Bloino, B. G. Janesko, R. Gomperts, B. Mennucci, H. P. Hratchian, 
 J. V. Ortiz, A. F. Izmaylov, J. L. Sonnenberg, D. Williams-Young, 
 F. Ding, F. Lipparini, F. Egidi, J. Goings, B. Peng, A. Petrone, 
 T. Henderson, D. Ranasinghe, V. G. Zakrzewski, J. Gao, N. Rega, 
 G. Zheng, W. Liang, M. Hada, M. Ehara, K. Toyota, R. Fukuda, 
 J. Hasegawa, M. Ishida, T. Nakajima, Y. Honda, O. Kitao, H. Nakai, 
 T. Vreven, K. Throssell, J. A. Montgomery, Jr., J. E. Peralta, 
 F. Ogliaro, M. J. Bearpark, J. J. Heyd, E. N. Brothers, K. N. Kudin, 
 V. N. Staroverov, T. A. Keith, R. Kobayashi, J. Normand, 
 K. Raghavachari, A. P. Rendell, J. C. Burant, S. S. Iyengar, 
 J. Tomasi, M. Cossi, J. M. Millam, M. Klene, C. Adamo, R. Cammi, 
 J. W. Ochterski, R. L. Martin, K. Morokuma, O. Farkas, 
 J. B. Foresman, and D. J. Fox, Gaussian, Inc., Wallingford CT, 2019.
 
 ******************************************
 Gaussian 16:  ES64L-G16RevC.01  3-Jul-2019
                 3-Jan-2023 
 ******************************************
 %chk=0001_q000_m01_k00_force_uhf_def2qzvpd.chk
 %nprocshared=2
 Will use up to    2 processors via shared memory.
 %mem=4GB
 ----------------------------------------------------------------------
 #p uhf/gen stable=opt scf=(maxcycle=900,verytightlineq,xqc) integral=g
 rid=ultrafine symmetry=None density=current iop(99/18=-1) output=wfn
 ----------------------------------------------------------------------
 1/38=1,172=1/1;
 2/12=2,15=3,17=6,18=5,40=1/2;
 3/5=7,11=2,25=1,30=1,75=-5,116=2/1,2,3;
 4//1;
 5/5=2,7=900,8=3,13=1,17=3,38=5/2,8;
 6/7=2,8=2,9=2,10=2,22=-1,28=1/1;
 8/6=1,10=90,11=11/1;
 9/8=-3,42=1,46=1/14;
 5/5=2,7=900,8=3,17=43,38=5/8(-2);
 6/7=2,8=2,9=2,10=2,22=-1,28=1/1;
 99/5=1,6=100,9=1,18=-1/99;
 Leave Link    1 at Tue Jan  3 09:03:30 2023, MaxMem=   536870912 cpu:               0.1 elap:               0.1
 (Enter /opt/software/gaussian/g16.c01/l101.exe)
 ----------------------------------------------------------------------
 0001_q000_m01_k00_opt_uwb97xd_def2svpd/0001_q000_m01_k00_force_uhf_def
 2qzvpd stable-force
 ----------------------------------------------------------------------
 Symbolic Z-matrix:
 Charge =  0 Multiplicity = 1
 C                     1.07262  -0.0702   -0.15301 
 N                     2.37794  -0.08975  -0.25439 
 N                     3.08336  -0.36847  -1.30873 
 H                     4.06405  -0.29267  -1.04764 
 H                     0.63996   0.18515   0.80853 
 H                     0.48304  -0.30998  -1.03372 
 H                     2.8675    0.14588   0.61313 
 
 ITRead=  0  0  0  0  0  0  0
 MicOpt= -1 -1 -1 -1 -1 -1 -1
 NAtoms=      7 NQM=        7 NQMF=       0 NMMI=      0 NMMIF=      0
                NMic=       0 NMicF=      0.
                    Isotopes and Nuclear Properties:
 (Nuclear quadrupole moments (NQMom) in fm**2, nuclear magnetic moments (NMagM)
  in nuclear magnetons)

  Atom         1           2           3           4           5           6           7
 IAtWgt=          12          14          14           1           1           1           1
 AtmWgt=  12.0000000  14.0030740  14.0030740   1.0078250   1.0078250   1.0078250   1.0078250
 NucSpn=           0           2           2           1           1           1           1
 AtZEff=  -0.0000000  -0.0000000  -0.0000000  -0.0000000  -0.0000000  -0.0000000  -0.0000000
 NQMom=    0.0000000   2.0440000   2.0440000   0.0000000   0.0000000   0.0000000   0.0000000
 NMagM=    0.0000000   0.4037610   0.4037610   2.7928460   2.7928460   2.7928460   2.7928460
 AtZNuc=   6.0000000   7.0000000   7.0000000   1.0000000   1.0000000   1.0000000   1.0000000
 Leave Link  101 at Tue Jan  3 09:03:30 2023, MaxMem=   536870912 cpu:               0.5 elap:               0.3
 (Enter /opt/software/gaussian/g16.c01/l202.exe)
                          Input orientation:                          
 ---------------------------------------------------------------------
 Center     Atomic      Atomic             Coordinates (Angstroms)
 Number     Number       Type             X           Y           Z
 ---------------------------------------------------------------------
      1          6           0        1.072617   -0.070199   -0.153013
      2          7           0        2.377944   -0.089746   -0.254385
      3          7           0        3.083355   -0.368470   -1.308729
      4          1           0        4.064049   -0.292670   -1.047637
      5          1           0        0.639963    0.185154    0.808526
      6          1           0        0.483044   -0.309980   -1.033725
      7          1           0        2.867498    0.145880    0.613132
 ---------------------------------------------------------------------
                    Distance matrix (angstroms):
                    1          2          3          4          5
     1  C    0.000000
     2  N    1.309403   0.000000
     3  N    2.338315   1.298820   0.000000
     4  H    3.130258   1.874401   1.017681   0.000000
     5  H    1.084874   2.055706   3.280158   3.924032   0.000000
     6  H    1.086621   2.060708   2.615467   3.581074   1.914071
     7  H    1.963483   1.023606   2.001175   2.093374   2.236433
                    6          7
     6  H    0.000000
     7  H    2.933525   0.000000
 Symmetry turned off by external request.
 Stoichiometry    CH4N2
 Rotational constants (GHZ):          71.2642239          11.2793619           9.7380671
 Leave Link  202 at Tue Jan  3 09:03:30 2023, MaxMem=   536870912 cpu:               0.0 elap:               0.0
 (Enter /opt/software/gaussian/g16.c01/l301.exe)
 General basis read from cards:  (5D, 7F)
 Centers:       4      5      6      7
 S 4 1.00
     Exponent=  1.9069169000D+02 Coefficients=  7.0815167000D-04
     Exponent=  2.8605532000D+01 Coefficients=  5.4678827000D-03
     Exponent=  6.5095943000D+00 Coefficients=  2.7966605000D-02
     Exponent=  1.8412455000D+00 Coefficients=  1.0764538000D-01
 S 1 1.00
     Exponent=  5.9853725000D-01 Coefficients=  1.0000000000D+00
 S 1 1.00
     Exponent=  2.1397624000D-01 Coefficients=  1.0000000000D+00
 S 1 1.00
     Exponent=  8.0316286000D-02 Coefficients=  1.0000000000D+00
 P 1 1.00
     Exponent=  2.2920000000D+00 Coefficients=  1.0000000000D+00
 P 1 1.00
     Exponent=  8.3800000000D-01 Coefficients=  1.0000000000D+00
 P 1 1.00
     Exponent=  2.9200000000D-01 Coefficients=  1.0000000000D+00
 P 1 1.00
     Exponent=  8.4063199228D-02 Coefficients=  1.0000000000D+00
 D 1 1.00
     Exponent=  2.0620000000D+00 Coefficients=  1.0000000000D+00
 D 1 1.00
     Exponent=  6.6200000000D-01 Coefficients=  1.0000000000D+00
 F 1 1.00
     Exponent=  1.3970000000D+00 Coefficients=  1.0000000000D+00
 ****
 Centers:       1
 S 8 1.00
     Exponent=  6.7025071029D+04 Coefficients=  3.8736308501D-05
     Exponent=  1.0039986538D+04 Coefficients=  3.0107917575D-04
     Exponent=  2.2849316911D+03 Coefficients=  1.5787918095D-03
     Exponent=  6.4714122130D+02 Coefficients=  6.6087087195D-03
     Exponent=  2.1109472335D+02 Coefficients=  2.3367123250D-02
     Exponent=  7.6177643862D+01 Coefficients=  7.0420716898D-02
     Exponent=  2.9633839163D+01 Coefficients=  1.7360344953D-01
     Exponent=  1.2187785081D+01 Coefficients=  3.2292305648D-01
 S 2 1.00
     Exponent=  5.3026006299D+01 Coefficients=  7.4897404492D-02
     Exponent=  1.5258502776D+01 Coefficients=  7.6136220983D-01
 S 1 1.00
     Exponent=  5.2403957464D+00 Coefficients=  1.0000000000D+00
 S 1 1.00
     Exponent=  2.2905022379D+00 Coefficients=  1.0000000000D+00
 S 1 1.00
     Exponent=  6.9673283006D-01 Coefficients=  1.0000000000D+00
 S 1 1.00
     Exponent=  2.7599337363D-01 Coefficients=  1.0000000000D+00
 S 1 1.00
     Exponent=  1.0739884389D-01 Coefficients=  1.0000000000D+00
 S 1 1.00
     Exponent=  4.4981404899D-02 Coefficients=  1.0000000000D+00
 P 5 1.00
     Exponent=  1.0512555082D+02 Coefficients=  8.4647553844D-04
     Exponent=  2.4884461066D+01 Coefficients=  6.6274038534D-03
     Exponent=  7.8637230826D+00 Coefficients=  3.0120390419D-02
     Exponent=  2.8407001835D+00 Coefficients=  9.9951435476D-02
     Exponent=  1.1227137335D+00 Coefficients=  2.3826299282D-01
 P 1 1.00
     Exponent=  4.6050725555D-01 Coefficients=  1.0000000000D+00
 P 1 1.00
     Exponent=  1.8937530913D-01 Coefficients=  1.0000000000D+00
 P 1 1.00
     Exponent=  7.5983791611D-02 Coefficients=  1.0000000000D+00
 D 1 1.00
     Exponent=  1.8480000000D+00 Coefficients=  1.0000000000D+00
 D 1 1.00
     Exponent=  6.4900000000D-01 Coefficients=  1.0000000000D+00
 D 1 1.00
     Exponent=  2.2800000000D-01 Coefficients=  1.0000000000D+00
 D 1 1.00
     Exponent=  7.6889830417D-02 Coefficients=  1.0000000000D+00
 F 1 1.00
     Exponent=  1.4190000000D+00 Coefficients=  1.0000000000D+00
 F 1 1.00
     Exponent=  4.8500000000D-01 Coefficients=  1.0000000000D+00
 G 1 1.00
     Exponent=  1.0110000000D+00 Coefficients=  1.0000000000D+00
 ****
 Centers:       2      3
 S 8 1.00
     Exponent=  9.0726889210D+04 Coefficients=  3.9257887368D-05
     Exponent=  1.3590528801D+04 Coefficients=  3.0513316455D-04
     Exponent=  3.0929883781D+03 Coefficients=  1.6000560446D-03
     Exponent=  8.7599876362D+02 Coefficients=  6.6982937306D-03
     Exponent=  2.8574469982D+02 Coefficients=  2.3690078765D-02
     Exponent=  1.0311913417D+02 Coefficients=  7.1455405268D-02
     Exponent=  4.0128556777D+01 Coefficients=  1.7632774876D-01
     Exponent=  1.6528095704D+01 Coefficients=  3.2677592815D-01
 S 2 1.00
     Exponent=  6.9390960983D+01 Coefficients=  8.0052094386D-02
     Exponent=  2.0428200596D+01 Coefficients=  7.8268063538D-01
 S 1 1.00
     Exponent=  7.1292587972D+00 Coefficients=  1.0000000000D+00
 S 1 1.00
     Exponent=  3.1324304893D+00 Coefficients=  1.0000000000D+00
 S 1 1.00
     Exponent=  9.8755778723D-01 Coefficients=  1.0000000000D+00
 S 1 1.00
     Exponent=  3.8765721307D-01 Coefficients=  1.0000000000D+00
 S 1 1.00
     Exponent=  1.4909883075D-01 Coefficients=  1.0000000000D+00
 S 1 1.00
     Exponent=  6.2151630318D-02 Coefficients=  1.0000000000D+00
 P 5 1.00
     Exponent=  1.5005742670D+02 Coefficients= -8.6216165986D-04
     Exponent=  3.5491599483D+01 Coefficients= -6.8571273236D-03
     Exponent=  1.1247864223D+01 Coefficients= -3.1795688855D-02
     Exponent=  4.0900305195D+00 Coefficients= -1.0537396822D-01
     Exponent=  1.6220573146D+00 Coefficients= -2.4519708041D-01
 P 1 1.00
     Exponent=  6.6442261530D-01 Coefficients=  1.0000000000D+00
 P 1 1.00
     Exponent=  2.7099770070D-01 Coefficients=  1.0000000000D+00
 P 1 1.00
     Exponent=  1.0688749984D-01 Coefficients=  1.0000000000D+00
 D 1 1.00
     Exponent=  2.8370000000D+00 Coefficients=  1.0000000000D+00
 D 1 1.00
     Exponent=  9.6800000000D-01 Coefficients=  1.0000000000D+00
 D 1 1.00
     Exponent=  3.3500000000D-01 Coefficients=  1.0000000000D+00
 D 1 1.00
     Exponent=  1.0825280010D-01 Coefficients=  1.0000000000D+00
 F 1 1.00
     Exponent=  2.0270000000D+00 Coefficients=  1.0000000000D+00
 F 1 1.00
     Exponent=  6.8500000000D-01 Coefficients=  1.0000000000D+00
 G 1 1.00
     Exponent=  1.4270000000D+00 Coefficients=  1.0000000000D+00
 ****
 Ernie: Thresh=  0.10000D-02 Tol=  0.10000D-05 Strict=F.
   321 basis functions,   461 primitive gaussians,   389 cartesian basis functions
    12 alpha electrons       12 beta electrons
       nuclear repulsion energy        73.3825490640 Hartrees.
 IExCor=    0 DFT=F Ex=HF Corr=None ExCW=0 ScaHFX=  1.000000
 ScaDFX=  1.000000  1.000000  1.000000  1.000000 ScalE2=  1.000000  1.000000
 IRadAn=      5 IRanWt=     -1 IRanGd=            0 ICorTp=0 IEmpDi=  4
 NAtoms=    7 NActive=    7 NUniq=    7 SFac= 1.00D+00 NAtFMM=   60 NAOKFM=F Big=F
 Integral buffers will be    131072 words long.
 Raffenetti 2 integral format.
 Two-electron integral symmetry is turned off.
 Leave Link  301 at Tue Jan  3 09:03:30 2023, MaxMem=   536870912 cpu:               0.2 elap:               0.1
 (Enter /opt/software/gaussian/g16.c01/l302.exe)
 NPDir=0 NMtPBC=     1 NCelOv=     1 NCel=       1 NClECP=     1 NCelD=      1
         NCelK=      1 NCelE2=     1 NClLst=     1 CellRange=     0.0.
 One-electron integrals computed using PRISM.
 NBasis=   321 RedAO= T EigKep=  4.00D-06  NBF=   321
 NBsUse=   321 1.00D-06 EigRej= -1.00D+00 NBFU=   321
 Leave Link  302 at Tue Jan  3 09:03:30 2023, MaxMem=   536870912 cpu:               0.6 elap:               0.3
 (Enter /opt/software/gaussian/g16.c01/l303.exe)
 DipDrv:  MaxL=1.
 Leave Link  303 at Tue Jan  3 09:03:31 2023, MaxMem=   536870912 cpu:               0.1 elap:               0.1
 (Enter /opt/software/gaussian/g16.c01/l401.exe)
 ExpMin= 4.50D-02 ExpMax= 9.07D+04 ExpMxC= 8.76D+02 IAcc=3 IRadAn=         5 AccDes= 0.00D+00
 Harris functional with IExCor=  205 and IRadAn=       5 diagonalized for initial guess.
 HarFok:  IExCor=  205 AccDes= 0.00D+00 IRadAn=         5 IDoV= 1 UseB2=F ITyADJ=14
 ICtDFT=  3500011 ScaDFX=  1.000000  1.000000  1.000000  1.000000
 FoFCou: FMM=F IPFlag=           0 FMFlag=      100000 FMFlg1=           0
         NFxFlg=           0 DoJE=T BraDBF=F KetDBF=T FulRan=T
         wScrn=  0.000000 ICntrl=       500 IOpCl=  0 I1Cent=   200000004 NGrid=           0
         NMat0=    1 NMatS0=      1 NMatT0=    0 NMatD0=    1 NMtDS0=    0 NMtDT0=    0
 Symmetry not used in FoFCou.
 Harris En= -149.285496366922    
 JPrj=0 DoOrth=F DoCkMO=F.
 Initial guess <Sx>= 0.0000 <Sy>= 0.0000 <Sz>= 0.0000 <S**2>=-0.0000 S=-0.0000
 Leave Link  401 at Tue Jan  3 09:03:32 2023, MaxMem=   536870912 cpu:               2.4 elap:               1.2
 (Enter /opt/software/gaussian/g16.c01/l502.exe)
 Two-electron integral symmetry not used.
 UHF open shell SCF:
 Using DIIS extrapolation, IDIIS=  1040.
 NGot=   536870912 LenX=   536563461 LenY=   536411699
 Requested convergence on RMS density matrix=1.00D-08 within 128 cycles.
 Requested convergence on MAX density matrix=1.00D-06.
 Requested convergence on             energy=1.00D-06.
 No special actions if energy rises.
 Fock matrices will be formed incrementally for  20 cycles.

 Cycle   1  Pass 1  IDiag  1:
 FoFJK:  IHMeth= 1 ICntrl=       0 DoSepK=F KAlg= 0 I1Cent=           0 FoldK=F
 IRaf= 990000000 NMat=       1 IRICut=       1 DoRegI=T DoRafI=F ISym2E= 0 IDoP0=0 IntGTp=1.
 FoFCou: FMM=F IPFlag=           0 FMFlag=      100000 FMFlg1=           0
         NFxFlg=           0 DoJE=F BraDBF=F KetDBF=F FulRan=T
         wScrn=  0.000000 ICntrl=         0 IOpCl=  1 I1Cent=           0 NGrid=           0
         NMat0=    1 NMatS0=      1 NMatT0=    0 NMatD0=    1 NMtDS0=    0 NMtDT0=    0
 Symmetry not used in FoFCou.
 E= -148.890788012456    
 DIIS: error= 2.39D-02 at cycle   1 NSaved=   1.
 NSaved= 1 IEnMin= 1 EnMin= -148.890788012456     IErMin= 1 ErrMin= 2.39D-02
 ErrMax= 2.39D-02  0.00D+00 EMaxC= 1.00D-01 BMatC= 1.48D+00 BMatP= 1.48D+00
 IDIUse=3 WtCom= 7.61D-01 WtEn= 2.39D-01
 Coeff-Com:  0.100D+01
 Coeff-En:   0.100D+01
 Coeff:      0.100D+01
 Gap=     0.387 Goal=   None    Shift=    0.000
 Gap=     0.387 Goal=   None    Shift=    0.000
 GapD=    0.387 DampG=1.000 DampE=0.500 DampFc=0.5000 IDamp=-1.
 Damping current iteration by 5.00D-01
 RMSDP=1.32D-03 MaxDP=4.95D-02              OVMax= 1.52D-01

 Cycle   2  Pass 1  IDiag  1:
 RMSU=  6.47D-04    CP:  9.74D-01
 E= -148.974188793617     Delta-E=       -0.083400781161 Rises=F Damp=T
 DIIS: error= 1.23D-02 at cycle   2 NSaved=   2.
 NSaved= 2 IEnMin= 2 EnMin= -148.974188793617     IErMin= 2 ErrMin= 1.23D-02
 ErrMax= 1.23D-02  0.00D+00 EMaxC= 1.00D-01 BMatC= 3.30D-01 BMatP= 1.48D+00
 IDIUse=3 WtCom= 8.77D-01 WtEn= 1.23D-01
 Coeff-Com: -0.687D+00 0.169D+01
 Coeff-En:   0.000D+00 0.100D+01
 Coeff:     -0.603D+00 0.160D+01
 Gap=     0.364 Goal=   None    Shift=    0.000
 Gap=     0.364 Goal=   None    Shift=    0.000
 RMSDP=5.50D-04 MaxDP=2.08D-02 DE=-8.34D-02 OVMax= 5.13D-02

 Cycle   3  Pass 1  IDiag  1:
 RMSU=  4.36D-04    CP:  9.43D-01  1.47D+00
 E= -149.046895564167     Delta-E=       -0.072706770550 Rises=F Damp=F
 DIIS: error= 2.80D-03 at cycle   3 NSaved=   3.
 NSaved= 3 IEnMin= 3 EnMin= -149.046895564167     IErMin= 3 ErrMin= 2.80D-03
 ErrMax= 2.80D-03  0.00D+00 EMaxC= 1.00D-01 BMatC= 1.15D-02 BMatP= 3.30D-01
 IDIUse=3 WtCom= 9.72D-01 WtEn= 2.80D-02
 Coeff-Com: -0.193D+00 0.346D+00 0.847D+00
 Coeff-En:   0.000D+00 0.000D+00 0.100D+01
 Coeff:     -0.188D+00 0.337D+00 0.851D+00
 Gap=     0.344 Goal=   None    Shift=    0.000
 Gap=     0.344 Goal=   None    Shift=    0.000
 RMSDP=1.11D-04 MaxDP=6.18D-03 DE=-7.27D-02 OVMax= 1.46D-02

 Cycle   4  Pass 1  IDiag  1:
 RMSU=  6.98D-05    CP:  9.43D-01  1.60D+00  9.55D-01
 E= -149.048887497704     Delta-E=       -0.001991933537 Rises=F Damp=F
 DIIS: error= 1.45D-03 at cycle   4 NSaved=   4.
 NSaved= 4 IEnMin= 4 EnMin= -149.048887497704     IErMin= 4 ErrMin= 1.45D-03
 ErrMax= 1.45D-03  0.00D+00 EMaxC= 1.00D-01 BMatC= 8.54D-04 BMatP= 1.15D-02
 IDIUse=3 WtCom= 9.86D-01 WtEn= 1.45D-02
 Coeff-Com: -0.420D-01 0.652D-01 0.267D+00 0.710D+00
 Coeff-En:   0.000D+00 0.000D+00 0.000D+00 0.100D+01
 Coeff:     -0.414D-01 0.642D-01 0.263D+00 0.715D+00
 Gap=     0.344 Goal=   None    Shift=    0.000
 Gap=     0.344 Goal=   None    Shift=    0.000
 RMSDP=3.80D-05 MaxDP=1.75D-03 DE=-1.99D-03 OVMax= 9.23D-03

 Cycle   5  Pass 1  IDiag  1:
 RMSU=  2.76D-05    CP:  9.42D-01  1.58D+00  9.98D-01  8.41D-01
 E= -149.049122008258     Delta-E=       -0.000234510554 Rises=F Damp=F
 DIIS: error= 4.77D-04 at cycle   5 NSaved=   5.
 NSaved= 5 IEnMin= 5 EnMin= -149.049122008258     IErMin= 5 ErrMin= 4.77D-04
 ErrMax= 4.77D-04  0.00D+00 EMaxC= 1.00D-01 BMatC= 1.06D-04 BMatP= 8.54D-04
 IDIUse=3 WtCom= 9.95D-01 WtEn= 4.77D-03
 Coeff-Com:  0.185D-01-0.333D-01-0.934D-01 0.104D+00 0.100D+01
 Coeff-En:   0.000D+00 0.000D+00 0.000D+00 0.000D+00 0.100D+01
 Coeff:      0.184D-01-0.331D-01-0.930D-01 0.104D+00 0.100D+01
 Gap=     0.343 Goal=   None    Shift=    0.000
 Gap=     0.343 Goal=   None    Shift=    0.000
 RMSDP=1.44D-05 MaxDP=7.04D-04 DE=-2.35D-04 OVMax= 1.69D-03

 Cycle   6  Pass 1  IDiag  1:
 RMSU=  8.64D-06    CP:  9.42D-01  1.58D+00  1.01D+00  9.72D-01  1.19D+00
 E= -149.049163005307     Delta-E=       -0.000040997049 Rises=F Damp=F
 DIIS: error= 1.66D-04 at cycle   6 NSaved=   6.
 NSaved= 6 IEnMin= 6 EnMin= -149.049163005307     IErMin= 6 ErrMin= 1.66D-04
 ErrMax= 1.66D-04  0.00D+00 EMaxC= 1.00D-01 BMatC= 1.20D-05 BMatP= 1.06D-04
 IDIUse=3 WtCom= 9.98D-01 WtEn= 1.66D-03
 Coeff-Com:  0.675D-02-0.110D-01-0.433D-01-0.355D-01-0.462D-02 0.109D+01
 Coeff-En:   0.000D+00 0.000D+00 0.000D+00 0.000D+00 0.000D+00 0.100D+01
 Coeff:      0.674D-02-0.110D-01-0.432D-01-0.354D-01-0.462D-02 0.109D+01
 Gap=     0.344 Goal=   None    Shift=    0.000
 Gap=     0.344 Goal=   None    Shift=    0.000
 RMSDP=7.42D-06 MaxDP=2.85D-04 DE=-4.10D-05 OVMax= 2.19D-03

 Cycle   7  Pass 1  IDiag  1:
 RMSU=  3.39D-06    CP:  9.42D-01  1.58D+00  1.01D+00  1.01D+00  1.34D+00
                    CP:  1.47D+00
 E= -149.049172102092     Delta-E=       -0.000009096785 Rises=F Damp=F
 DIIS: error= 8.80D-05 at cycle   7 NSaved=   7.
 NSaved= 7 IEnMin= 7 EnMin= -149.049172102092     IErMin= 7 ErrMin= 8.80D-05
 ErrMax= 8.80D-05  0.00D+00 EMaxC= 1.00D-01 BMatC= 4.30D-06 BMatP= 1.20D-05
 IDIUse=1 WtCom= 1.00D+00 WtEn= 0.00D+00
 Coeff-Com: -0.248D-02 0.471D-02 0.997D-02-0.837D-02-0.256D+00 0.279D+00
 Coeff-Com:  0.974D+00
 Coeff:     -0.248D-02 0.471D-02 0.997D-02-0.837D-02-0.256D+00 0.279D+00
 Coeff:      0.974D+00
 Gap=     0.344 Goal=   None    Shift=    0.000
 Gap=     0.344 Goal=   None    Shift=    0.000
 RMSDP=4.87D-06 MaxDP=2.75D-04 DE=-9.10D-06 OVMax= 1.02D-03

 Cycle   8  Pass 1  IDiag  1:
 RMSU=  2.01D-06    CP:  9.43D-01  1.58D+00  1.01D+00  1.03D+00  1.36D+00
                    CP:  1.80D+00  1.46D+00
 E= -149.049174815844     Delta-E=       -0.000002713752 Rises=F Damp=F
 DIIS: error= 2.96D-05 at cycle   8 NSaved=   8.
 NSaved= 8 IEnMin= 8 EnMin= -149.049174815844     IErMin= 8 ErrMin= 2.96D-05
 ErrMax= 2.96D-05  0.00D+00 EMaxC= 1.00D-01 BMatC= 5.87D-07 BMatP= 4.30D-06
 IDIUse=1 WtCom= 1.00D+00 WtEn= 0.00D+00
 Coeff-Com: -0.153D-02 0.249D-02 0.974D-02 0.202D-01-0.553D-02-0.226D+00
 Coeff-Com: -0.235D+00 0.144D+01
 Coeff:     -0.153D-02 0.249D-02 0.974D-02 0.202D-01-0.553D-02-0.226D+00
 Coeff:     -0.235D+00 0.144D+01
 Gap=     0.344 Goal=   None    Shift=    0.000
 Gap=     0.344 Goal=   None    Shift=    0.000
 RMSDP=4.23D-06 MaxDP=1.95D-04 DE=-2.71D-06 OVMax= 8.29D-04

 Cycle   9  Pass 1  IDiag  1:
 RMSU=  7.56D-07    CP:  9.43D-01  1.59D+00  1.01D+00  1.03D+00  1.35D+00
                    CP:  2.00D+00  1.97D+00  1.88D+00
 E= -149.049175473946     Delta-E=       -0.000000658102 Rises=F Damp=F
 DIIS: error= 8.41D-06 at cycle   9 NSaved=   9.
 NSaved= 9 IEnMin= 9 EnMin= -149.049175473946     IErMin= 9 ErrMin= 8.41D-06
 ErrMax= 8.41D-06  0.00D+00 EMaxC= 1.00D-01 BMatC= 4.28D-08 BMatP= 5.87D-07
 IDIUse=1 WtCom= 1.00D+00 WtEn= 0.00D+00
 Coeff-Com:  0.541D-03-0.945D-03-0.279D-02-0.182D-02 0.112D-01 0.522D-01
 Coeff-Com: -0.724D-01-0.276D+00 0.129D+01
 Coeff:      0.541D-03-0.945D-03-0.279D-02-0.182D-02 0.112D-01 0.522D-01
 Coeff:     -0.724D-01-0.276D+00 0.129D+01
 Gap=     0.344 Goal=   None    Shift=    0.000
 Gap=     0.344 Goal=   None    Shift=    0.000
 RMSDP=1.45D-06 MaxDP=8.27D-05 DE=-6.58D-07 OVMax= 1.83D-04

 Cycle  10  Pass 1  IDiag  1:
 RMSU=  1.96D-07    CP:  9.43D-01  1.59D+00  1.00D+00  1.04D+00  1.34D+00
                    CP:  2.03D+00  2.08D+00  2.24D+00  1.53D+00
 E= -149.049175511911     Delta-E=       -0.000000037966 Rises=F Damp=F
 DIIS: error= 2.73D-06 at cycle  10 NSaved=  10.
 NSaved=10 IEnMin=10 EnMin= -149.049175511911     IErMin=10 ErrMin= 2.73D-06
 ErrMax= 2.73D-06  0.00D+00 EMaxC= 1.00D-01 BMatC= 3.59D-09 BMatP= 4.28D-08
 IDIUse=1 WtCom= 1.00D+00 WtEn= 0.00D+00
 Coeff-Com: -0.178D-04 0.427D-04 0.126D-03-0.833D-03-0.595D-02 0.136D-01
 Coeff-Com:  0.330D-01-0.382D-01-0.453D+00 0.145D+01
 Coeff:     -0.178D-04 0.427D-04 0.126D-03-0.833D-03-0.595D-02 0.136D-01
 Coeff:      0.330D-01-0.382D-01-0.453D+00 0.145D+01
 Gap=     0.344 Goal=   None    Shift=    0.000
 Gap=     0.344 Goal=   None    Shift=    0.000
 RMSDP=4.56D-07 MaxDP=2.87D-05 DE=-3.80D-08 OVMax= 4.88D-05

 Cycle  11  Pass 1  IDiag  1:
 RMSU=  6.02D-08    CP:  9.43D-01  1.59D+00  1.00D+00  1.04D+00  1.33D+00
                    CP:  2.04D+00  2.10D+00  2.35D+00  1.73D+00  1.55D+00
 E= -149.049175515058     Delta-E=       -0.000000003147 Rises=F Damp=F
 DIIS: error= 6.80D-07 at cycle  11 NSaved=  11.
 NSaved=11 IEnMin=11 EnMin= -149.049175515058     IErMin=11 ErrMin= 6.80D-07
 ErrMax= 6.80D-07  0.00D+00 EMaxC= 1.00D-01 BMatC= 1.76D-10 BMatP= 3.59D-09
 IDIUse=1 WtCom= 1.00D+00 WtEn= 0.00D+00
 Coeff-Com: -0.266D-04 0.432D-04 0.180D-03 0.382D-03-0.340D-04-0.536D-02
 Coeff-Com: -0.581D-02 0.334D-01 0.836D-02-0.316D+00 0.129D+01
 Coeff:     -0.266D-04 0.432D-04 0.180D-03 0.382D-03-0.340D-04-0.536D-02
 Coeff:     -0.581D-02 0.334D-01 0.836D-02-0.316D+00 0.129D+01
 Gap=     0.344 Goal=   None    Shift=    0.000
 Gap=     0.344 Goal=   None    Shift=    0.000
 RMSDP=3.73D-08 MaxDP=1.87D-06 DE=-3.15D-09 OVMax= 8.01D-06

 Cycle  12  Pass 1  IDiag  1:
 RMSU=  1.71D-08    CP:  9.43D-01  1.59D+00  1.00D+00  1.04D+00  1.34D+00
                    CP:  2.04D+00  2.10D+00  2.36D+00  1.73D+00  1.62D+00
                    CP:  1.35D+00
 E= -149.049175515188     Delta-E=       -0.000000000130 Rises=F Damp=F
 DIIS: error= 1.54D-07 at cycle  12 NSaved=  12.
 NSaved=12 IEnMin=12 EnMin= -149.049175515188     IErMin=12 ErrMin= 1.54D-07
 ErrMax= 1.54D-07  0.00D+00 EMaxC= 1.00D-01 BMatC= 1.21D-11 BMatP= 1.76D-10
 IDIUse=1 WtCom= 1.00D+00 WtEn= 0.00D+00
 Coeff-Com:  0.891D-05-0.158D-04-0.482D-04-0.692D-04 0.232D-03 0.134D-02
 Coeff-Com: -0.102D-02-0.699D-02 0.218D-01 0.169D-01-0.441D+00 0.141D+01
 Coeff:      0.891D-05-0.158D-04-0.482D-04-0.692D-04 0.232D-03 0.134D-02
 Coeff:     -0.102D-02-0.699D-02 0.218D-01 0.169D-01-0.441D+00 0.141D+01
 Gap=     0.344 Goal=   None    Shift=    0.000
 Gap=     0.344 Goal=   None    Shift=    0.000
 RMSDP=2.04D-08 MaxDP=1.12D-06 DE=-1.30D-10 OVMax= 1.65D-06

 Cycle  13  Pass 1  IDiag  1:
 RMSU=  3.91D-09    CP:  9.43D-01  1.59D+00  1.00D+00  1.04D+00  1.34D+00
                    CP:  2.04D+00  2.10D+00  2.36D+00  1.72D+00  1.61D+00
                    CP:  1.42D+00  1.57D+00
 E= -149.049175515197     Delta-E=       -0.000000000009 Rises=F Damp=F
 DIIS: error= 1.87D-08 at cycle  13 NSaved=  13.
 NSaved=13 IEnMin=13 EnMin= -149.049175515197     IErMin=13 ErrMin= 1.87D-08
 ErrMax= 1.87D-08  0.00D+00 EMaxC= 1.00D-01 BMatC= 2.49D-13 BMatP= 1.21D-11
 IDIUse=1 WtCom= 1.00D+00 WtEn= 0.00D+00
 Coeff-Com: -0.189D-05 0.346D-05 0.919D-05 0.599D-05-0.818D-04-0.160D-03
 Coeff-Com:  0.539D-03 0.729D-03-0.698D-02 0.931D-02 0.712D-01-0.399D+00
 Coeff-Com:  0.132D+01
 Coeff:     -0.189D-05 0.346D-05 0.919D-05 0.599D-05-0.818D-04-0.160D-03
 Coeff:      0.539D-03 0.729D-03-0.698D-02 0.931D-02 0.712D-01-0.399D+00
 Coeff:      0.132D+01
 Gap=     0.344 Goal=   None    Shift=    0.000
 Gap=     0.344 Goal=   None    Shift=    0.000
 RMSDP=4.61D-09 MaxDP=3.19D-07 DE=-8.64D-12 OVMax= 2.15D-07

 SCF Done:  E(UHF) =  -149.049175515     A.U. after   13 cycles
            NFock= 13  Conv=0.46D-08     -V/T= 2.0018
 <Sx>= 0.0000 <Sy>= 0.0000 <Sz>= 0.0000 <S**2>=-0.0000 S=-0.0000
 <L.S>=  0.00000000000    
 KE= 1.487820181519D+02 PE=-4.953502121572D+02 EE= 1.241364694261D+02
 Annihilation of the first spin contaminant:
 S**2 before annihilation    -0.0000,   after    -0.0000
 Leave Link  502 at Tue Jan  3 09:09:28 2023, MaxMem=   536870912 cpu:             713.0 elap:             356.6
 (Enter /opt/software/gaussian/g16.c01/l508.exe)
 QCSCF skips out because SCF is already converged.
 Leave Link  508 at Tue Jan  3 09:09:28 2023, MaxMem=   536870912 cpu:               0.0 elap:               0.0
 (Enter /opt/software/gaussian/g16.c01/l601.exe)
 Copying SCF densities to generalized density rwf, IOpCl= 1 IROHF=0.

 **********************************************************************

            Population analysis using the SCF Density.

 **********************************************************************

 Alpha  occ. eigenvalues --  -15.71018 -15.53762 -11.26755  -1.36717  -1.07865
 Alpha  occ. eigenvalues --   -0.86882  -0.75935  -0.66082  -0.58603  -0.58444
 Alpha  occ. eigenvalues --   -0.43636  -0.29063
 Alpha virt. eigenvalues --    0.05317   0.07957   0.10170   0.11298   0.15016
 Alpha virt. eigenvalues --    0.15265   0.16352   0.16624   0.21259   0.21639
 Alpha virt. eigenvalues --    0.21802   0.23295   0.24359   0.25847   0.27127
 Alpha virt. eigenvalues --    0.28764   0.29390   0.30502   0.31181   0.32243
 Alpha virt. eigenvalues --    0.33047   0.35458   0.37779   0.37819   0.38184
 Alpha virt. eigenvalues --    0.39561   0.40238   0.42188   0.43750   0.43894
 Alpha virt. eigenvalues --    0.44905   0.46859   0.49102   0.50279   0.52898
 Alpha virt. eigenvalues --    0.53607   0.55386   0.56347   0.58712   0.58979
 Alpha virt. eigenvalues --    0.60259   0.60457   0.64729   0.66123   0.68561
 Alpha virt. eigenvalues --    0.72127   0.73846   0.75103   0.78689   0.78763
 Alpha virt. eigenvalues --    0.79629   0.82481   0.82540   0.93097   0.93586
 Alpha virt. eigenvalues --    0.95591   0.97824   1.00485   1.01601   1.04104
 Alpha virt. eigenvalues --    1.06536   1.07106   1.08980   1.13332   1.14382
 Alpha virt. eigenvalues --    1.15085   1.16877   1.21801   1.22306   1.26900
 Alpha virt. eigenvalues --    1.30569   1.34119   1.34130   1.37999   1.41038
 Alpha virt. eigenvalues --    1.46065   1.46480   1.48476   1.52342   1.54942
 Alpha virt. eigenvalues --    1.56364   1.57279   1.59654   1.68379   1.69577
 Alpha virt. eigenvalues --    1.74041   1.77720   1.81730   1.85332   1.93080
 Alpha virt. eigenvalues --    2.06290   2.10305   2.10851   2.12740   2.13123
 Alpha virt. eigenvalues --    2.16722   2.21065   2.21328   2.24529   2.27456
 Alpha virt. eigenvalues --    2.37412   2.39557   2.43533   2.45155   2.45904
 Alpha virt. eigenvalues --    2.53667   2.56265   2.58477   2.62118   2.63761
 Alpha virt. eigenvalues --    2.65312   2.70390   2.71890   2.71968   2.76367
 Alpha virt. eigenvalues --    2.76569   2.80055   2.83888   2.84100   2.86588
 Alpha virt. eigenvalues --    2.94082   2.95069   2.97259   2.98308   3.01203
 Alpha virt. eigenvalues --    3.08954   3.09465   3.10242   3.14203   3.19763
 Alpha virt. eigenvalues --    3.21028   3.23879   3.25269   3.32125   3.34017
 Alpha virt. eigenvalues --    3.37624   3.43465   3.43639   3.51646   3.58816
 Alpha virt. eigenvalues --    3.62821   3.65743   3.68060   3.68806   3.74227
 Alpha virt. eigenvalues --    3.77758   3.80526   3.87390   3.87420   3.93697
 Alpha virt. eigenvalues --    3.97481   3.98146   4.04334   4.10031   4.15348
 Alpha virt. eigenvalues --    4.22107   4.26639   4.33212   4.41058   4.42588
 Alpha virt. eigenvalues --    4.54349   4.57680   4.65668   4.74178   4.75818
 Alpha virt. eigenvalues --    4.85323   5.05260   5.07018   5.27018   5.41801
 Alpha virt. eigenvalues --    5.46164   5.57379   5.63184   5.68229   5.75602
 Alpha virt. eigenvalues --    5.83565   5.88020   5.91479   5.93492   5.99601
 Alpha virt. eigenvalues --    6.08852   6.09774   6.13908   6.16883   6.22787
 Alpha virt. eigenvalues --    6.27470   6.32105   6.33062   6.37063   6.45728
 Alpha virt. eigenvalues --    6.50208   6.54150   6.64271   6.64911   6.73683
 Alpha virt. eigenvalues --    6.75244   6.75286   6.81333   6.93082   6.95304
 Alpha virt. eigenvalues --    6.98088   6.99777   7.11336   7.13726   7.17762
 Alpha virt. eigenvalues --    7.25870   7.32653   7.32824   7.36715   7.46545
 Alpha virt. eigenvalues --    7.47229   7.51645   7.58026   7.64155   7.65639
 Alpha virt. eigenvalues --    7.67423   7.73214   7.76402   7.80887   7.81701
 Alpha virt. eigenvalues --    7.82357   7.88491   7.89734   7.90509   7.97868
 Alpha virt. eigenvalues --    7.98495   8.08452   8.09252   8.15538   8.18167
 Alpha virt. eigenvalues --    8.20701   8.27592   8.29204   8.33099   8.35062
 Alpha virt. eigenvalues --    8.42766   8.45113   8.46416   8.50221   8.51282
 Alpha virt. eigenvalues --    8.54520   8.56033   8.58845   8.62253   8.64723
 Alpha virt. eigenvalues --    8.70376   8.71666   8.76959   8.80494   8.85484
 Alpha virt. eigenvalues --    8.85841   8.95279   9.01481   9.03744   9.06843
 Alpha virt. eigenvalues --    9.09779   9.11734   9.15011   9.26445   9.35234
 Alpha virt. eigenvalues --    9.35911   9.37387   9.44657   9.46770   9.60081
 Alpha virt. eigenvalues --    9.63133   9.63572   9.72038   9.73462   9.80060
 Alpha virt. eigenvalues --    9.84095   9.87718   9.96000   9.98464  10.09723
 Alpha virt. eigenvalues --   10.15566  10.22538  10.24373  10.28943  10.35503
 Alpha virt. eigenvalues --   10.37152  10.44543  10.65649  10.79800  10.89511
 Alpha virt. eigenvalues --   11.13590  11.28853  11.40237  11.48465  11.72654
 Alpha virt. eigenvalues --   11.81534  11.92299  12.11435  12.13421  12.14866
 Alpha virt. eigenvalues --   12.32551  12.40209  12.61247  12.83367  13.57302
 Alpha virt. eigenvalues --   13.78733  15.34291  15.36180  29.67959  38.82248
 Alpha virt. eigenvalues --   39.24527 150.09427 199.72494 200.16042
  Beta  occ. eigenvalues --  -15.71018 -15.53762 -11.26755  -1.36717  -1.07865
  Beta  occ. eigenvalues --   -0.86882  -0.75935  -0.66082  -0.58603  -0.58444
  Beta  occ. eigenvalues --   -0.43636  -0.29063
  Beta virt. eigenvalues --    0.05317   0.07957   0.10170   0.11298   0.15016
  Beta virt. eigenvalues --    0.15265   0.16352   0.16624   0.21259   0.21639
  Beta virt. eigenvalues --    0.21802   0.23295   0.24359   0.25847   0.27127
  Beta virt. eigenvalues --    0.28764   0.29390   0.30502   0.31181   0.32243
  Beta virt. eigenvalues --    0.33047   0.35458   0.37779   0.37819   0.38184
  Beta virt. eigenvalues --    0.39561   0.40238   0.42188   0.43750   0.43894
  Beta virt. eigenvalues --    0.44905   0.46859   0.49102   0.50279   0.52898
  Beta virt. eigenvalues --    0.53607   0.55386   0.56347   0.58712   0.58979
  Beta virt. eigenvalues --    0.60259   0.60457   0.64729   0.66123   0.68561
  Beta virt. eigenvalues --    0.72127   0.73846   0.75103   0.78689   0.78763
  Beta virt. eigenvalues --    0.79629   0.82481   0.82540   0.93097   0.93586
  Beta virt. eigenvalues --    0.95591   0.97824   1.00485   1.01601   1.04104
  Beta virt. eigenvalues --    1.06536   1.07106   1.08980   1.13332   1.14382
  Beta virt. eigenvalues --    1.15085   1.16877   1.21801   1.22306   1.26900
  Beta virt. eigenvalues --    1.30569   1.34119   1.34130   1.37999   1.41038
  Beta virt. eigenvalues --    1.46065   1.46480   1.48476   1.52342   1.54942
  Beta virt. eigenvalues --    1.56364   1.57279   1.59654   1.68379   1.69577
  Beta virt. eigenvalues --    1.74041   1.77720   1.81730   1.85332   1.93080
  Beta virt. eigenvalues --    2.06290   2.10305   2.10851   2.12740   2.13123
  Beta virt. eigenvalues --    2.16722   2.21065   2.21328   2.24529   2.27456
  Beta virt. eigenvalues --    2.37412   2.39557   2.43533   2.45155   2.45904
  Beta virt. eigenvalues --    2.53667   2.56265   2.58477   2.62118   2.63761
  Beta virt. eigenvalues --    2.65312   2.70390   2.71890   2.71968   2.76367
  Beta virt. eigenvalues --    2.76569   2.80055   2.83888   2.84100   2.86588
  Beta virt. eigenvalues --    2.94082   2.95069   2.97259   2.98308   3.01203
  Beta virt. eigenvalues --    3.08954   3.09465   3.10242   3.14203   3.19763
  Beta virt. eigenvalues --    3.21028   3.23879   3.25269   3.32125   3.34017
  Beta virt. eigenvalues --    3.37624   3.43465   3.43639   3.51646   3.58816
  Beta virt. eigenvalues --    3.62821   3.65743   3.68060   3.68806   3.74227
  Beta virt. eigenvalues --    3.77758   3.80526   3.87390   3.87420   3.93697
  Beta virt. eigenvalues --    3.97481   3.98146   4.04334   4.10031   4.15348
  Beta virt. eigenvalues --    4.22107   4.26639   4.33212   4.41058   4.42588
  Beta virt. eigenvalues --    4.54349   4.57680   4.65668   4.74178   4.75818
  Beta virt. eigenvalues --    4.85323   5.05260   5.07018   5.27018   5.41801
  Beta virt. eigenvalues --    5.46164   5.57379   5.63184   5.68229   5.75602
  Beta virt. eigenvalues --    5.83565   5.88020   5.91479   5.93492   5.99601
  Beta virt. eigenvalues --    6.08852   6.09774   6.13908   6.16883   6.22787
  Beta virt. eigenvalues --    6.27470   6.32105   6.33062   6.37063   6.45728
  Beta virt. eigenvalues --    6.50208   6.54150   6.64271   6.64911   6.73683
  Beta virt. eigenvalues --    6.75244   6.75286   6.81333   6.93082   6.95304
  Beta virt. eigenvalues --    6.98088   6.99777   7.11336   7.13726   7.17762
  Beta virt. eigenvalues --    7.25870   7.32653   7.32824   7.36715   7.46545
  Beta virt. eigenvalues --    7.47229   7.51645   7.58026   7.64155   7.65639
  Beta virt. eigenvalues --    7.67423   7.73214   7.76402   7.80887   7.81701
  Beta virt. eigenvalues --    7.82357   7.88491   7.89734   7.90509   7.97868
  Beta virt. eigenvalues --    7.98495   8.08452   8.09252   8.15538   8.18167
  Beta virt. eigenvalues --    8.20701   8.27592   8.29204   8.33099   8.35062
  Beta virt. eigenvalues --    8.42766   8.45113   8.46416   8.50221   8.51282
  Beta virt. eigenvalues --    8.54520   8.56033   8.58845   8.62253   8.64723
  Beta virt. eigenvalues --    8.70376   8.71666   8.76959   8.80494   8.85484
  Beta virt. eigenvalues --    8.85841   8.95279   9.01481   9.03744   9.06843
  Beta virt. eigenvalues --    9.09779   9.11734   9.15011   9.26445   9.35234
  Beta virt. eigenvalues --    9.35911   9.37387   9.44657   9.46770   9.60081
  Beta virt. eigenvalues --    9.63133   9.63572   9.72038   9.73462   9.80060
  Beta virt. eigenvalues --    9.84095   9.87718   9.96000   9.98464  10.09723
  Beta virt. eigenvalues --   10.15566  10.22538  10.24373  10.28943  10.35503
  Beta virt. eigenvalues --   10.37152  10.44543  10.65649  10.79800  10.89511
  Beta virt. eigenvalues --   11.13590  11.28853  11.40237  11.48465  11.72654
  Beta virt. eigenvalues --   11.81534  11.92299  12.11435  12.13421  12.14866
  Beta virt. eigenvalues --   12.32551  12.40209  12.61247  12.83367  13.57302
  Beta virt. eigenvalues --   13.78733  15.34291  15.36180  29.67959  38.82248
  Beta virt. eigenvalues --   39.24527 150.09427 199.72494 200.16042
          Condensed to atoms (all electrons):
               1          2          3          4          5          6
     1  C    4.835676   0.520506  -0.060552  -0.007199   0.415764   0.445388
     2  N    0.520506   5.935058   0.193783   0.015925  -0.040593   0.009205
     3  N   -0.060552   0.193783   7.288545   0.151965   0.014723  -0.029118
     4  H   -0.007199   0.015925   0.151965   0.729609  -0.005532   0.006946
     5  H    0.415764  -0.040593   0.014723  -0.005532   0.539571  -0.056072
     6  H    0.445388   0.009205  -0.029118   0.006946  -0.056072   0.475268
     7  H   -0.006260   0.337437  -0.014827  -0.026314   0.001639  -0.001860
               7
     1  C   -0.006260
     2  N    0.337437
     3  N   -0.014827
     4  H   -0.026314
     5  H    0.001639
     6  H   -0.001860
     7  H    0.466362
          Atomic-Atomic Spin Densities.
               1          2          3          4          5          6
     1  C    0.000000   0.000000   0.000000   0.000000   0.000000   0.000000
     2  N    0.000000   0.000000   0.000000   0.000000   0.000000   0.000000
     3  N    0.000000   0.000000   0.000000   0.000000   0.000000   0.000000
     4  H    0.000000   0.000000   0.000000   0.000000   0.000000   0.000000
     5  H    0.000000   0.000000   0.000000   0.000000   0.000000   0.000000
     6  H    0.000000   0.000000   0.000000   0.000000   0.000000   0.000000
     7  H    0.000000   0.000000   0.000000   0.000000   0.000000   0.000000
               7
     1  C    0.000000
     2  N    0.000000
     3  N    0.000000
     4  H    0.000000
     5  H    0.000000
     6  H    0.000000
     7  H    0.000000
 Mulliken charges and spin densities:
               1          2
     1  C   -0.143324   0.000000
     2  N    0.028678   0.000000
     3  N   -0.544519   0.000000
     4  H    0.134599   0.000000
     5  H    0.130500   0.000000
     6  H    0.150243   0.000000
     7  H    0.243823   0.000000
 Sum of Mulliken charges =  -0.00000   0.00000
 Mulliken charges and spin densities with hydrogens summed into heavy atoms:
               1          2
     1  C    0.137419   0.000000
     2  N    0.272501   0.000000
     3  N   -0.409920   0.000000
 Electronic spatial extent (au):  <R**2>=            600.8635
 Charge=             -0.0000 electrons
 Dipole moment (field-independent basis, Debye):
    X=             -0.2205    Y=              0.9062    Z=              3.3830  Tot=              3.5092
 Quadrupole moment (field-independent basis, Debye-Ang):
   XX=            -16.2539   YY=            -21.8943   ZZ=            -23.2837
   XY=              2.7168   XZ=              9.9774   YZ=             -0.4725
 Traceless Quadrupole moment (field-independent basis, Debye-Ang):
   XX=              4.2234   YY=             -1.4169   ZZ=             -2.8064
   XY=              2.7168   XZ=              9.9774   YZ=             -0.4725
 Octapole moment (field-independent basis, Debye-Ang**2):
  XXX=            -98.8510  YYY=             11.3109  ZZZ=             42.7662  XYY=            -47.4585
  XXY=             10.3474  XXZ=             36.5381  XZZ=            -55.0653  YZZ=              5.5155
  YYZ=             12.5221  XYZ=             -2.4419
 Hexadecapole moment (field-independent basis, Debye-Ang**3):
 XXXX=           -514.5523 YYYY=            -31.8242 ZZZZ=           -118.3098 XXXY=             42.9635
 XXXZ=            149.8656 YYYX=             31.6753 YYYZ=            -12.7954 ZZZX=            122.9440
 ZZZY=            -13.9163 XXYY=           -131.9202 XXZZ=           -162.5089 YYZZ=            -24.7043
 XXYZ=             -9.8068 YYXZ=             36.6807 ZZXY=             15.1430
 N-N= 7.338254906404D+01 E-N=-4.953502125072D+02  KE= 1.487820181519D+02
                          Isotropic Fermi Contact Couplings
        Atom                 a.u.       MegaHertz       Gauss      10(-4) cm-1
     1  C(13)              0.00000       0.00000       0.00000       0.00000
     2  N(14)              0.00000       0.00000       0.00000       0.00000
     3  N(14)              0.00000       0.00000       0.00000       0.00000
     4  H(1)               0.00000       0.00000       0.00000       0.00000
     5  H(1)               0.00000       0.00000       0.00000       0.00000
     6  H(1)               0.00000       0.00000       0.00000       0.00000
     7  H(1)               0.00000       0.00000       0.00000       0.00000
 --------------------------------------------------------
       Center         ----  Spin Dipole Couplings  ----
                      3XX-RR        3YY-RR        3ZZ-RR
 --------------------------------------------------------
     1   Atom        0.000000      0.000000      0.000000
     2   Atom        0.000000      0.000000      0.000000
     3   Atom        0.000000      0.000000      0.000000
     4   Atom        0.000000      0.000000      0.000000
     5   Atom        0.000000      0.000000      0.000000
     6   Atom        0.000000      0.000000      0.000000
     7   Atom        0.000000      0.000000      0.000000
 --------------------------------------------------------
                        XY            XZ            YZ
 --------------------------------------------------------
     1   Atom        0.000000      0.000000      0.000000
     2   Atom        0.000000      0.000000      0.000000
     3   Atom        0.000000      0.000000      0.000000
     4   Atom        0.000000      0.000000      0.000000
     5   Atom        0.000000      0.000000      0.000000
     6   Atom        0.000000      0.000000      0.000000
     7   Atom        0.000000      0.000000      0.000000
 --------------------------------------------------------


 ---------------------------------------------------------------------------------
              Anisotropic Spin Dipole Couplings in Principal Axis System
 ---------------------------------------------------------------------------------

       Atom             a.u.   MegaHertz   Gauss  10(-4) cm-1        Axes

              Baa     0.0000     0.000     0.000     0.000  1.0000  0.0000  0.0000
     1 C(13)  Bbb     0.0000     0.000     0.000     0.000 -0.0000  1.0000  0.0000
              Bcc     0.0000     0.000     0.000     0.000  0.0000  0.0000  1.0000
 
              Baa     0.0000     0.000     0.000     0.000  1.0000  0.0000  0.0000
     2 N(14)  Bbb     0.0000     0.000     0.000     0.000 -0.0000  1.0000  0.0000
              Bcc     0.0000     0.000     0.000     0.000  0.0000  0.0000  1.0000
 
              Baa     0.0000     0.000     0.000     0.000  1.0000  0.0000  0.0000
     3 N(14)  Bbb     0.0000     0.000     0.000     0.000 -0.0000  1.0000  0.0000
              Bcc     0.0000     0.000     0.000     0.000  0.0000  0.0000  1.0000
 
              Baa     0.0000     0.000     0.000     0.000  1.0000  0.0000  0.0000
     4 H(1)   Bbb     0.0000     0.000     0.000     0.000 -0.0000  1.0000  0.0000
              Bcc     0.0000     0.000     0.000     0.000  0.0000  0.0000  1.0000
 
              Baa     0.0000     0.000     0.000     0.000  1.0000  0.0000  0.0000
     5 H(1)   Bbb     0.0000     0.000     0.000     0.000 -0.0000  1.0000  0.0000
              Bcc     0.0000     0.000     0.000     0.000  0.0000  0.0000  1.0000
 
              Baa     0.0000     0.000     0.000     0.000  1.0000  0.0000  0.0000
     6 H(1)   Bbb     0.0000     0.000     0.000     0.000 -0.0000  1.0000  0.0000
              Bcc     0.0000     0.000     0.000     0.000  0.0000  0.0000  1.0000
 
              Baa     0.0000     0.000     0.000     0.000  1.0000  0.0000  0.0000
     7 H(1)   Bbb     0.0000     0.000     0.000     0.000 -0.0000  1.0000  0.0000
              Bcc     0.0000     0.000     0.000     0.000  0.0000  0.0000  1.0000
 

 ---------------------------------------------------------------------------------

 No NMR shielding tensors so no spin-rotation constants.
 Leave Link  601 at Tue Jan  3 09:09:29 2023, MaxMem=   536870912 cpu:               0.6 elap:               0.3
 (Enter /opt/software/gaussian/g16.c01/l801.exe)
 Range of M.O.s used for correlation:     1   321
 NBasis=   321 NAE=    12 NBE=    12 NFC=     0 NFV=     0
 NROrb=    321 NOA=    12 NOB=    12 NVA=   309 NVB=   309

 **** Warning!!: The largest alpha MO coefficient is  0.10137201D+03


 **** Warning!!: The largest beta MO coefficient is  0.10137201D+03

 Leave Link  801 at Tue Jan  3 09:09:29 2023, MaxMem=   536870912 cpu:               0.1 elap:               0.1
 (Enter /opt/software/gaussian/g16.c01/l914.exe)
 UHF ground state
 Doing stability rather than CIS.
 Two-electron integral symmetry not used.
 MDV=   536870912 DFT=F DoStab=T Mixed=F DoRPA=F DoScal=F NonHer=F
 Making orbital integer symmetry assigments:
 FoFJK:  IHMeth= 1 ICntrl=       0 DoSepK=F KAlg= 0 I1Cent=           0 FoldK=F
 IRaf=         0 NMat=       2 IRICut=       1 DoRegI=T DoRafI=F ISym2E= 0 IDoP0=0 IntGTp=1.
 FoFCou: FMM=F IPFlag=           0 FMFlag=      100000 FMFlg1=           0
         NFxFlg=           0 DoJE=F BraDBF=F KetDBF=F FulRan=T
         wScrn=  0.000000 ICntrl=         0 IOpCl=  1 I1Cent=           0 NGrid=           0
         NMat0=    2 NMatS0=      2 NMatT0=    0 NMatD0=    2 NMtDS0=    0 NMtDT0=    0
 Symmetry not used in FoFCou.
    12 initial guesses have been made.
 Convergence on wavefunction:    0.001000000000000
 Davidson Disk Diagonalization:  ConvIn= 1.00D-03 SkipCon=T Conv= 1.00D-03.
 Max sub-space:  2000 roots to seek:    12 dimension of matrix:         7416
 Iteration     1 Dimension    12 NMult     0 NNew     12
 CISAX will form    12 AO SS matrices at one time.
 NMat=    12 NSing=    12 JSym2X= 0.
 Excitation Energies [eV] at current iteration:
 Root      1 :    -1.044056653344077
 Root      2 :     4.522465824193934
 Root      3 :     4.787549061896907
 Root      4 :     5.587555844308669
 Root      5 :     5.902026849869553
 Root      6 :     6.062008889736784
 Root      7 :     6.344784678500960
 Root      8 :     6.407962699215335
 Root      9 :     6.856103008201758
 Root     10 :     7.181833499818928
 Root     11 :     7.474017598224995
 Root     12 :    10.313628588872993
 Iteration     2 Dimension    24 NMult    12 NNew     12
 CISAX will form    12 AO SS matrices at one time.
 NMat=    12 NSing=    12 JSym2X= 0.
 Root      1 not converged, maximum delta is    0.043744676222652
 Excitation Energies [eV] at current iteration:
 Root      1 :    -1.995088861278584   Change is   -0.951032207934507
 Root      2 :     4.185524729280421   Change is   -0.336941094913514
 Root      3 :     4.644199781773780   Change is   -0.143349280123127
 Root      4 :     4.953769360078152   Change is   -0.633786484230517
 Root      5 :     5.423347608859524   Change is   -4.890280980013468
 Root      6 :     5.633404175397461   Change is   -0.711380503103499
 Root      7 :     5.755544259025204   Change is   -0.306464630711579
 Root      8 :     5.780293449904795   Change is   -0.121733399964758
 Root      9 :     6.241894259647896   Change is   -0.166068439567439
 Root     10 :     6.561904926223195   Change is   -0.294198081978563
 Root     11 :     6.910254214784001   Change is   -0.563763383440993
 Root     12 :     7.344165270465056   Change is    0.162331770646128
 Iteration     3 Dimension    27 NMult    24 NNew      3
 CISAX will form     3 AO SS matrices at one time.
 NMat=     3 NSing=     3 JSym2X= 0.
 Root      1 not converged, maximum delta is    0.023778491295913
 Excitation Energies [eV] at current iteration:
 Root      1 :    -2.052833626417060   Change is   -0.057744765138475
 Root      2 :     4.138269674136972   Change is   -0.047255055143449
 Root      3 :     4.637092542619742   Change is   -0.007107239154039
 Iteration     4 Dimension    30 NMult    27 NNew      3
 CISAX will form     3 AO SS matrices at one time.
 NMat=     3 NSing=     3 JSym2X= 0.
 Root      1 not converged, maximum delta is    0.011619390021429
 Excitation Energies [eV] at current iteration:
 Root      1 :    -2.062220045076688   Change is   -0.009386418659628
 Root      2 :     4.132639870625394   Change is   -0.005629803511578
 Root      3 :     4.635891849061187   Change is   -0.001200693558556
 Iteration     5 Dimension    33 NMult    30 NNew      3
 CISAX will form     3 AO SS matrices at one time.
 NMat=     3 NSing=     3 JSym2X= 0.
 Root      1 not converged, maximum delta is    0.003571009222915
 Excitation Energies [eV] at current iteration:
 Root      1 :    -2.063455317774854   Change is   -0.001235272698166
 Root      2 :     4.131117465001939   Change is   -0.001522405623455
 Root      3 :     4.635716025446460   Change is   -0.000175823614727
 Cease iterating as an instability has been found.
 ***********************************************************************
 Stability analysis using <AA,BB:AA,BB> singles matrix:
 ***********************************************************************
 1PDM for each excited state written to RWF  633
 Ground to excited state transition densities written to RWF  633

 Eigenvectors of the stability matrix:
 
 Excited state symmetry could not be determined.
 Eigenvector   1:  3.000-?Sym  Eigenvalue=-0.0758306  <S**2>=2.000
     12A -> 15A       -0.60097
     12A -> 18A        0.13177
     12A -> 25A        0.17169
     12A -> 27A        0.18394
     12A -> 28A       -0.14891
     12B -> 15B        0.60097
     12B -> 18B       -0.13177
     12B -> 25B       -0.17169
     12B -> 27B       -0.18394
     12B -> 28B        0.14891
 
 Excited state symmetry could not be determined.
 Eigenvector   2:  3.000-?Sym  Eigenvalue= 0.1518158  <S**2>=2.000
     11A -> 15A        0.18551
     12A -> 13A        0.53685
     12A -> 14A       -0.28158
     12A -> 16A        0.14039
     12A -> 26A       -0.12154
     11B -> 15B       -0.18551
     12B -> 13B       -0.53685
     12B -> 14B        0.28158
     12B -> 16B       -0.14039
     12B -> 26B        0.12154
 
 Excited state symmetry could not be determined.
 Eigenvector   3:  1.000-?Sym  Eigenvalue= 0.1703594  <S**2>=0.000
     12A -> 13A        0.57459
     12A -> 14A       -0.36389
     12B -> 13B        0.57459
     12B -> 14B       -0.36389
 The wavefunction has an internal instability.
 Leave Link  914 at Tue Jan  3 09:17:49 2023, MaxMem=   536870912 cpu:            1000.0 elap:             500.2
 (Enter /opt/software/gaussian/g16.c01/l508.exe)
 Two-electron integral symmetry not used.
 Very tight linear equation convergence will be used.
 UHF wavefunction.
 Quadratic Convergence SCF Method.
 Line search only if initial step raises energy.
 Fock matrices will be formed incrementally for  20 cycles.
 Perform preliminary linear searches along instability eigenvector.
     ILin= 1 X=0.000D+00 Y=-1.490491755152D+02 DE= 0.00D+00
 FoFJK:  IHMeth= 1 ICntrl=       0 DoSepK=F KAlg= 0 I1Cent=           0 FoldK=F
 IRaf= 990000000 NMat=       1 IRICut=       1 DoRegI=T DoRafI=F ISym2E= 0 IDoP0=0 IntGTp=1.
 FoFCou: FMM=F IPFlag=           0 FMFlag=      100000 FMFlg1=           0
         NFxFlg=           0 DoJE=F BraDBF=F KetDBF=F FulRan=T
         wScrn=  0.000000 ICntrl=         0 IOpCl=  1 I1Cent=           0 NGrid=           0
         NMat0=    1 NMatS0=      1 NMatT0=    0 NMatD0=    1 NMtDS0=    0 NMtDT0=    0
 Symmetry not used in FoFCou.
     ILin= 2 X=1.000D-01 Y=-1.490499190403D+02 DE=-7.44D-04
     ILin= 3 X=1.414D-01 Y=-1.490506337100D+02 DE=-1.46D-03
     ILin= 4 X=2.000D-01 Y=-1.490519774797D+02 DE=-2.80D-03
     ILin= 5 X=2.828D-01 Y=-1.490543295928D+02 DE=-5.15D-03
     ILin= 6 X=4.000D-01 Y=-1.490577457384D+02 DE=-8.57D-03
     ILin= 7 X=5.657D-01 Y=-1.490598366019D+02 DE=-1.07D-02
     ILin= 8 X=8.000D-01 Y=-1.490480672141D+02 DE= 1.11D-03
     An  expanding polynomial of degree  8 produced  0.5441
 Iteration F X= 5.441D-01 EE=-1.490599000587628D+02
     ILin= 1 X=0.000D+00 Y=-1.490491755152D+02 DE= 0.00D+00
     ILin= 2 X=1.000D-01 Y=-1.490499190527D+02 DE=-7.44D-04
     ILin= 3 X=1.414D-01 Y=-1.490506337450D+02 DE=-1.46D-03
 The two search directions are symmetric.
 Iteration B X= 5.441D-01 EE=-1.490599000587628D+02
 Take forward step, X= 5.441D-01 Step= 5.441D-01
 Iteration   1 EE= -149.059900035063                                    Grad=5.182D-02 Max rot=    0.7107 deg.
 Gradient too large for Newton-Raphson -- use scaled steepest descent instead.
 Alpha Gap=     0.404 HL deriv= 8.95D-07
  Beta Gap=     0.363 HL deriv= 3.80D-08
     ILin= 1 X=0.000D+00 Y=-1.490599000351D+02 DE= 0.00D+00 F= -3.93D-03
 RMSU=  3.30D-05    CP:  1.00D+00
     ILin= 2 X=3.000D-01 Y=-1.490609531108D+02 DE=-1.05D-03 F= -3.09D-03 OKLS=F
 RMSU=  4.10D-07    CP:  9.99D-01  2.00D+00
     ILin= 3 X=6.000D-01 Y=-1.490617519217D+02 DE=-1.85D-03 F= -2.24D-03
 RMSU=  3.30D-05    CP:  9.99D-01  3.00D+00  3.00D+00
     ILin= 4 X=1.200D+00 Y=-1.490625868649D+02 DE=-2.69D-03 F= -5.44D-04
 RMSU=  6.62D-05    CP:  9.98D-01  3.00D+00  3.00D+00  3.00D+00
     ILin= 5 X=2.400D+00 Y=-1.490612078842D+02 DE=-1.31D-03 F=  2.84D-03
     An  expanding polynomial of degree  5 produced  1.3928
 RMSU=  2.15D-07    CP:  9.99D-01  3.00D+00  3.00D+00  1.64D+00  2.01D-04
 Iteration   2 EE= -149.062639329000     Delta-E=       -0.002739293938 Grad=2.741D-02 Max rot=    0.5555 deg.
 Gradient too large for Newton-Raphson -- use scaled steepest descent instead.
 Alpha Gap=     0.400 HL deriv= 2.68D-07
  Beta Gap=     0.361 HL deriv= 1.23D-07
     ILin= 1 X=0.000D+00 Y=-1.490626393290D+02 DE= 0.00D+00 F= -1.31D-03
 RMSU=  3.33D-05    CP:  9.99D-01  3.00D+00  3.00D+00  1.54D+00  1.26D-03
                    CP:  3.00D+00
     ILin= 2 X=6.000D-01 Y=-1.490631783173D+02 DE=-5.39D-04 F= -4.82D-04 OKLS=F
 RMSU=  1.27D-06    CP:  1.00D+00  3.00D+00  3.00D+00  1.41D+00  2.91D-03
                    CP:  3.00D+00  2.17D+00
     ILin= 3 X=1.300D+00 Y=-1.490631751287D+02 DE=-5.36D-04 F=  4.91D-04
     An  expanding polynomial of degree  3 produced  0.9467
 RMSU=  4.54D-08    CP:  9.99D-01  3.00D+00  3.00D+00  1.47D+00  2.02D-03
                    CP:  3.00D+00  1.58D+00  4.00D-01
 Iteration   3 EE= -149.063261844261     Delta-E=       -0.000622515261 Grad=2.091D-02 Max rot=    0.2579 deg.
 Gradient too large for Newton-Raphson -- use scaled steepest descent instead.
 Alpha Gap=     0.408 HL deriv= 2.33D-07
  Beta Gap=     0.363 HL deriv= 2.05D-07
     ILin= 1 X=0.000D+00 Y=-1.490632618443D+02 DE= 0.00D+00 F= -6.37D-04
 RMSU=  4.08D-05    CP:  9.98D-01  3.00D+00  3.00D+00  2.30D+00  7.95D-04
                    CP:  3.00D+00  1.75D+00  4.88D-01 -3.00D+00
     ILin= 2 X=1.100D+00 Y=-1.490636538761D+02 DE=-3.92D-04 F= -7.55D-05 OKLS=T
     Reject lnstep IMin12=  1  2 Big=T Turn=F Min= 1.202D+00 FVal=-1.490636574187D+02 Lims=  0.00D+00  1.10D+00
 RMSU=  7.84D-07    CP:  9.96D-01  3.00D+00  3.00D+00  3.00D+00  9.53D-02
                    CP: -1.46D+00  1.95D+00  1.45D+00 -3.00D+00  2.09D+00
     ILin= 3 X=2.300D+00 Y=-1.490633767938D+02 DE=-1.15D-04 F=  5.37D-04
     An  expanding polynomial of degree  3 produced  1.2479
 RMSU=  3.36D-08    CP:  9.98D-01  3.00D+00  3.00D+00  2.41D+00  6.68D-04
                    CP:  3.00D+00  1.78D+00  5.35D-01 -3.00D+00  1.13D+00
                    CP:  4.80D-02
 Iteration   4 EE= -149.063659462613     Delta-E=       -0.000397618352 Grad=1.735D-02 Max rot=    0.3658 deg.
 Gradient too large for Newton-Raphson -- use scaled steepest descent instead.
 Alpha Gap=     0.408 HL deriv= 8.02D-08
  Beta Gap=     0.363 HL deriv= 7.11D-08
     ILin= 1 X=0.000D+00 Y=-1.490636594626D+02 DE= 0.00D+00 F= -5.82D-04
 RMSU=  1.81D-05    CP:  9.99D-01  3.00D+00  3.00D+00  2.45D+00  4.54D-03
                    CP:  3.00D+00  2.72D+00  3.00D+00 -3.00D+00  9.91D-01
                    CP:  6.14D-01 -3.00D+00
     ILin= 2 X=1.100D+00 Y=-1.490639320263D+02 DE=-2.73D-04 F=  8.62D-05 OKLS=T
     Accept linear search using points  1 and  2.
     An  expanding polynomial of degree  2 produced  0.9821
 RMSU=  3.84D-07    CP:  9.99D-01  3.00D+00  3.00D+00  2.44D+00  4.10D-03
                    CP:  3.00D+00  2.62D+00  3.00D+00 -3.00D+00  1.01D+00
                    CP:  5.63D-01 -3.00D+00  8.92D-01
 Iteration   5 EE= -149.063937969421     Delta-E=       -0.000278506808 Grad=1.522D-02 Max rot=    0.1815 deg.
 Gradient too large for Newton-Raphson -- use scaled steepest descent instead.
 Alpha Gap=     0.413 HL deriv= 8.26D-08
  Beta Gap=     0.363 HL deriv= 8.75D-08
     ILin= 1 X=0.000D+00 Y=-1.490639379694D+02 DE= 0.00D+00 F= -3.32D-04
 RMSU=  4.29D-06    CP:  9.98D-01  3.00D+00  3.00D+00  3.00D+00  1.86D-02
                    CP:  3.00D+00  2.66D+00  3.00D+00 -3.00D+00  1.71D+00
                    CP:  1.14D+00  3.00D+00  1.04D+00 -1.19D+00
     ILin= 2 X=1.100D+00 Y=-1.490641314704D+02 DE=-1.94D-04 F= -1.95D-05 OKLS=T
     Reject lnstep IMin12=  1  2 Big=T Turn=F Min= 1.150D+00 FVal=-1.490641319159D+02 Lims=  0.00D+00  1.10D+00
 RMSU=  9.79D-07    CP:  9.97D-01  3.00D+00  3.00D+00  3.00D+00  3.10D-01
                    CP:  3.00D+00  2.71D+00  3.00D+00 -3.00D+00  2.41D+00
                    CP:  1.73D+00  3.00D+00  1.19D+00 -1.97D+00  2.00D+00
     ILin= 3 X=2.200D+00 Y=-1.490639809035D+02 DE=-4.29D-05 F=  2.93D-04
     An  expanding polynomial of degree  3 produced  1.1686
     Minimum is close to point  2 DX=  6.86D-02 DF= -6.70D-07 DXR=  5.87D-02 DFR=  3.46D-03 which will be used.
 Iteration   6 EE= -149.064131470425     Delta-E=       -0.000193501004 Grad=1.067D-02 Max rot=    0.2416 deg.
 Gradient too large for Newton-Raphson -- use scaled steepest descent instead.
 Alpha Gap=     0.413 HL deriv= 4.51D-08
  Beta Gap=     0.364 HL deriv= 2.58D-08
     ILin= 1 X=0.000D+00 Y=-1.490641314704D+02 DE= 0.00D+00 F= -2.42D-04
 RMSU=  9.24D-06    CP:  9.98D-01  3.00D+00  3.00D+00  3.00D+00  5.71D-02
                    CP:  3.00D+00  3.00D+00  3.00D+00 -3.00D+00  1.68D+00
                    CP:  1.31D+00  3.00D+00  1.73D+00 -3.00D+00  1.13D+00
                    CP:  3.16D-01
     ILin= 2 X=1.100D+00 Y=-1.490642678147D+02 DE=-1.36D-04 F= -5.80D-06 OKLS=T
     Reject lnstep IMin12=  1  2 Big=T Turn=F Min= 1.120D+00 FVal=-1.490642678680D+02 Lims=  0.00D+00  1.10D+00
 RMSU=  2.64D-06    CP:  9.99D-01  3.00D+00  3.00D+00  3.00D+00  9.16D-02
                    CP:  3.00D+00  3.00D+00  3.00D+00 -3.00D+00  1.65D+00
                    CP:  1.38D+00  3.00D+00  2.36D+00 -3.00D+00  1.24D+00
                    CP:  7.83D-01  2.98D+00
     ILin= 3 X=2.100D+00 Y=-1.490641662021D+02 DE=-3.47D-05 F=  2.09D-04
     An  expanding polynomial of degree  3 produced  1.1270
     Minimum is close to point  2 DX=  2.70D-02 DF= -7.82D-08 DXR=  2.39D-02 DFR=  5.74D-04 which will be used.
 Iteration   7 EE= -149.064267814657     Delta-E=       -0.000136344232 Grad=1.124D-02 Max rot=    0.1230 deg.
 Gradient too large for Newton-Raphson -- use scaled steepest descent instead.
 Alpha Gap=     0.417 HL deriv= 4.63D-08
  Beta Gap=     0.364 HL deriv= 4.05D-08
     ILin= 1 X=0.000D+00 Y=-1.490642678147D+02 DE= 0.00D+00 F= -1.76D-04
 RMSU=  8.38D-07    CP:  9.97D-01  3.00D+00  3.00D+00  3.00D+00  2.66D-01
                    CP:  3.00D+00  3.00D+00  3.00D+00 -3.00D+00  2.19D+00
                    CP:  1.66D+00  3.00D+00  1.81D+00 -3.00D+00  2.08D+00
                    CP:  1.14D+00  1.04D+00 -9.49D-02
     ILin= 2 X=1.100D+00 Y=-1.490643633511D+02 DE=-9.55D-05 F=  2.14D-06 OKLS=T
     Accept linear search using points  1 and  2.
     An  expanding polynomial of degree  2 produced  1.0899
     Minimum is close to point  2 DX= -1.01D-02 DF= -9.82D-09 DXR=  9.29D-03 DFR=  1.03D-04 which will be used.
 Iteration   8 EE= -149.064363351074     Delta-E=       -0.000095536416 Grad=7.905D-03 Max rot=    0.1790 deg.
 QCNR:  CnvC1=8.61D-10 CnvC2=8.61D-09
 LinEq1:  Iter=  0 NonCon=     1 RMS=1.17D-04 Max=6.61D-03 NDo=     1
 AX will form     1 AO Fock derivatives at one time.
 LinEq1:  Iter=  1 NonCon=     1 RMS=6.82D-05 Max=1.47D-03 NDo=     1
 LinEq1:  Iter=  2 NonCon=     1 RMS=4.34D-06 Max=1.43D-04 NDo=     1
 LinEq1:  Iter=  3 NonCon=     1 RMS=1.12D-06 Max=3.53D-05 NDo=     1
 LinEq1:  Iter=  4 NonCon=     1 RMS=6.47D-07 Max=2.26D-05 NDo=     1
 LinEq1:  Iter=  5 NonCon=     1 RMS=1.34D-07 Max=3.09D-06 NDo=     1
 LinEq1:  Iter=  6 NonCon=     1 RMS=3.88D-08 Max=6.53D-07 NDo=     1
 LinEq1:  Iter=  7 NonCon=     1 RMS=1.35D-08 Max=1.98D-07 NDo=     1
 LinEq1:  Iter=  8 NonCon=     1 RMS=3.83D-09 Max=9.55D-08 NDo=     1
 LinEq1:  Iter=  9 NonCon=     1 RMS=1.07D-09 Max=1.33D-08 NDo=     1
 LinEq1:  Iter= 10 NonCon=     0 RMS=2.37D-10 Max=3.64D-09 NDo=     1
 Linear equations converged to 8.612D-10 8.612D-09 after    10 iterations.
 Angle between quadratic step and gradient=  53.97 degrees.
     ILin= 1 X=0.000D+00 Y=-1.490643633511D+02 DE= 0.00D+00 F= -4.48D-04
 RMSU=  3.53D-05    CP:  9.97D-01  3.00D+00  3.00D+00  3.00D+00  8.21D-01
                    CP:  3.00D+00  3.00D+00  3.00D+00 -3.00D+00  3.00D+00
                    CP:  2.14D+00  3.00D+00  3.00D+00 -3.00D+00  3.00D+00
                    CP:  3.00D+00  3.00D+00 -2.80D-01  3.00D+00
     ILin= 2 X=1.000D+00 Y=-1.490645801694D+02 DE=-2.17D-04 F=  2.15D-05 OKLS=T
     Accept linear search using points  1 and  2.
     An  expanding polynomial of degree  2 produced  0.9561
     Minimum is close to point  2 DX= -4.39D-02 DF= -4.73D-07 DXR=  4.59D-02 DFR=  2.18D-03 which will be used.
 Iteration   9 EE= -149.064580169443     Delta-E=       -0.000216818369 Grad=4.381D-04 Max rot=    0.0083 deg.
 QCNR:  CnvC1=8.61D-10 CnvC2=8.61D-09
 LinEq1:  Iter=  0 NonCon=     1 RMS=6.60D-06 Max=2.90D-04 NDo=     1
 LinEq1:  Iter=  1 NonCon=     1 RMS=1.94D-06 Max=8.69D-05 NDo=     1
 LinEq1:  Iter=  2 NonCon=     1 RMS=8.45D-07 Max=2.10D-05 NDo=     1
 LinEq1:  Iter=  3 NonCon=     1 RMS=2.27D-07 Max=9.12D-06 NDo=     1
 LinEq1:  Iter=  4 NonCon=     1 RMS=9.64D-08 Max=3.17D-06 NDo=     1
 LinEq1:  Iter=  5 NonCon=     1 RMS=3.96D-08 Max=7.97D-07 NDo=     1
 LinEq1:  Iter=  6 NonCon=     1 RMS=1.56D-08 Max=3.51D-07 NDo=     1
 LinEq1:  Iter=  7 NonCon=     1 RMS=5.27D-09 Max=1.29D-07 NDo=     1
 LinEq1:  Iter=  8 NonCon=     1 RMS=1.90D-09 Max=2.43D-08 NDo=     1
 LinEq1:  Iter=  9 NonCon=     0 RMS=4.39D-10 Max=7.07D-09 NDo=     1
 Linear equations converged to 8.612D-10 8.612D-09 after     9 iterations.
 Angle between quadratic step and gradient=  45.62 degrees.
     ILin= 1 X=0.000D+00 Y=-1.490645801694D+02 DE= 0.00D+00 F= -1.45D-06
 Restarting incremental Fock formation.
     ILin= 2 X=1.000D+00 Y=-1.490645808972D+02 DE=-7.28D-07 F= -6.19D-09 OKLS=T
     Reject lnstep IMin12=  1  2 Big=T Turn=F Min= 1.004D+00 FVal=-1.490645808972D+02 Lims=  0.00D+00  1.00D+00
 RMSU=  4.20D-06    CP:  1.00D+00
     ILin= 3 X=2.000D+00 Y=-1.490645801860D+02 DE=-1.66D-08 F=  1.43D-06
     An  expanding polynomial of degree  3 produced  1.0058
     Minimum is close to point  2 DX=  5.76D-03 DF= -2.39D-11 DXR=  5.73D-03 DFR=  3.28D-05 which will be used.
 Iteration  10 EE= -149.064580897233     Delta-E=       -0.000000727790 Grad=2.566D-06 Max rot=    0.0000 deg.
 QCNR:  CnvC1=2.57D-11 CnvC2=2.57D-10
 LinEq1:  Iter=  0 NonCon=     1 RMS=3.18D-08 Max=1.27D-06 NDo=     1
 LinEq1:  Iter=  1 NonCon=     1 RMS=7.69D-09 Max=2.32D-07 NDo=     1
 LinEq1:  Iter=  2 NonCon=     1 RMS=2.93D-09 Max=8.87D-08 NDo=     1
 LinEq1:  Iter=  3 NonCon=     1 RMS=1.24D-09 Max=4.34D-08 NDo=     1
 LinEq1:  Iter=  4 NonCon=     1 RMS=4.67D-10 Max=1.13D-08 NDo=     1
 LinEq1:  Iter=  5 NonCon=     1 RMS=1.09D-10 Max=3.36D-09 NDo=     1
 LinEq1:  Iter=  6 NonCon=     1 RMS=3.91D-11 Max=7.88D-10 NDo=     1
 LinEq1:  Iter=  7 NonCon=     1 RMS=1.69D-11 Max=3.88D-10 NDo=     1
 LinEq1:  Iter=  8 NonCon=     0 RMS=4.33D-12 Max=5.38D-11 NDo=     1
 Linear equations converged to 2.566D-11 2.566D-10 after     8 iterations.
 Angle between quadratic step and gradient=  54.68 degrees.
     ILin= 1 X=0.000D+00 Y=-1.490645808972D+02 DE= 0.00D+00 F= -3.33D-11
 RMSU=  1.13D-08    CP:  1.00D+00  4.34D-03
     ILin= 2 X=1.000D+00 Y=-1.490645808972D+02 DE=-1.61D-11
 Iteration  11 EE= -149.064580897249     Delta-E=       -0.000000000016 Grad=2.849D-08 Max rot=    0.0000 deg.
 Rotation gradient small -- convergence achieved.
 SCF Done:  E(UHF) =  -149.064580897     a.u. after   11 cycles
            Convg  =    0.2849D-07                    59 Fock formations.
              S**2 =  0.6421                  -V/T =  2.0004
 <Sx>= 0.0000 <Sy>= 0.0000 <Sz>= 0.0000 <S**2>= 0.6421 S= 0.4445
 <L.S>=  0.00000000000    
 Annihilation of the first spin contaminant:
 S**2 before annihilation     0.6421,   after     0.0679
 Leave Link  508 at Tue Jan  3 09:44:40 2023, MaxMem=   536870912 cpu:            3219.2 elap:            1610.5
 (Enter /opt/software/gaussian/g16.c01/l801.exe)
 Range of M.O.s used for correlation:     1   321
 NBasis=   321 NAE=    12 NBE=    12 NFC=     0 NFV=     0
 NROrb=    321 NOA=    12 NOB=    12 NVA=   309 NVB=   309

 **** Warning!!: The largest alpha MO coefficient is  0.10609261D+03


 **** Warning!!: The largest beta MO coefficient is  0.10106607D+03

 Leave Link  801 at Tue Jan  3 09:44:40 2023, MaxMem=   536870912 cpu:               0.1 elap:               0.0
 (Enter /opt/software/gaussian/g16.c01/l914.exe)
 UHF ground state
 Doing stability rather than CIS.
 Two-electron integral symmetry not used.
 MDV=   536870912 DFT=F DoStab=T Mixed=F DoRPA=F DoScal=F NonHer=F
 Making orbital integer symmetry assigments:
 FoFJK:  IHMeth= 1 ICntrl=       0 DoSepK=F KAlg= 0 I1Cent=           0 FoldK=F
 IRaf=         0 NMat=       2 IRICut=       1 DoRegI=T DoRafI=F ISym2E= 0 IDoP0=0 IntGTp=1.
 FoFCou: FMM=F IPFlag=           0 FMFlag=      100000 FMFlg1=           0
         NFxFlg=           0 DoJE=F BraDBF=F KetDBF=F FulRan=T
         wScrn=  0.000000 ICntrl=         0 IOpCl=  1 I1Cent=           0 NGrid=           0
         NMat0=    2 NMatS0=      2 NMatT0=    0 NMatD0=    2 NMtDS0=    0 NMtDT0=    0
 Symmetry not used in FoFCou.
    12 initial guesses have been made.
 Convergence on wavefunction:    0.001000000000000
 Davidson Disk Diagonalization:  ConvIn= 1.00D-03 SkipCon=T Conv= 1.00D-03.
 Max sub-space:  2000 roots to seek:    12 dimension of matrix:         7416
 Iteration     1 Dimension    12 NMult     0 NNew     12
 CISAX will form    12 AO SS matrices at one time.
 NMat=    12 NSing=    12 JSym2X= 0.
 Excitation Energies [eV] at current iteration:
 Root      1 :     4.609834126259516
 Root      2 :     4.903760268755074
 Root      3 :     5.527526766195664
 Root      4 :     5.919819887063984
 Root      5 :     6.097638802152416
 Root      6 :     6.671508996462453
 Root      7 :     7.093736259134593
 Root      8 :     7.447975603680133
 Root      9 :     7.622293777732661
 Root     10 :     7.722193915107855
 Root     11 :     7.864077918440291
 Root     12 :     8.666450322158706
 Iteration     2 Dimension    24 NMult    12 NNew     12
 CISAX will form    12 AO SS matrices at one time.
 NMat=    12 NSing=    12 JSym2X= 0.
 Root      1 not converged, maximum delta is    0.232322836091705
 Excitation Energies [eV] at current iteration:
 Root      1 :     3.290933537382135   Change is   -1.318900588877381
 Root      2 :     4.379676372923663   Change is   -0.524083895831412
 Root      3 :     4.831905504920285   Change is   -0.695621261275378
 Root      4 :     5.252929673084428   Change is   -3.413520649074277
 Root      5 :     5.628843642196656   Change is   -0.290976244867329
 Root      6 :     5.743001327555358   Change is   -0.354637474597058
 Root      7 :     6.437326788171787   Change is   -0.234182208290666
 Root      8 :     7.071837346773948   Change is   -0.376138256906185
 Root      9 :     7.200496490143454   Change is    0.106760231008861
 Root     10 :     7.242502931148565   Change is   -0.379790846584096
 Root     11 :     7.387909816119810   Change is   -0.334284098988044
 Root     12 :     7.702254627055517   Change is   -0.161823291384774
 Iteration     3 Dimension    27 NMult    24 NNew      3
 CISAX will form     3 AO SS matrices at one time.
 NMat=     3 NSing=     3 JSym2X= 0.
 Root      1 not converged, maximum delta is    0.123637588416897
 Excitation Energies [eV] at current iteration:
 Root      1 :     2.800458491562945   Change is   -0.490475045819190
 Root      2 :     4.265844872753529   Change is   -0.113831500170133
 Root      3 :     4.792635541475177   Change is   -0.039269963445108
 Iteration     4 Dimension    30 NMult    27 NNew      3
 CISAX will form     3 AO SS matrices at one time.
 NMat=     3 NSing=     3 JSym2X= 0.
 Root      1 not converged, maximum delta is    0.081841342311050
 Excitation Energies [eV] at current iteration:
 Root      1 :     2.651202747132083   Change is   -0.149255744430863
 Root      2 :     4.253321470642488   Change is   -0.012523402111041
 Root      3 :     4.748191591111207
 Iteration     5 Dimension    33 NMult    30 NNew      3
 CISAX will form     3 AO SS matrices at one time.
 NMat=     3 NSing=     3 JSym2X= 0.
 Root      1 not converged, maximum delta is    0.024282602350822
 Excitation Energies [eV] at current iteration:
 Root      1 :     2.627308896093872   Change is   -0.023893851038211
 Root      2 :     4.252023363568092   Change is   -0.001298107074396
 Root      3 :     4.357736119841462   Change is   -0.390455471269746
 Iteration     6 Dimension    36 NMult    33 NNew      3
 CISAX will form     3 AO SS matrices at one time.
 NMat=     3 NSing=     3 JSym2X= 0.
 Root      1 not converged, maximum delta is    0.005038631882926
 Excitation Energies [eV] at current iteration:
 Root      1 :     2.623733049676516   Change is   -0.003575846417355
 Root      2 :     4.251791277740749   Change is   -0.000232085827342
 Root      3 :     4.303362939880129   Change is   -0.054373179961333
 Iteration     7 Dimension    39 NMult    36 NNew      3
 CISAX will form     3 AO SS matrices at one time.
 NMat=     3 NSing=     3 JSym2X= 0.
 Root      1 not converged, maximum delta is    0.001526830105321
 Excitation Energies [eV] at current iteration:
 Root      1 :     2.623035282845088   Change is   -0.000697766831428
 Root      2 :     4.251754210638012   Change is   -0.000037067102737
 Root      3 :     4.291778392801560   Change is   -0.011584547078569
 Iteration     8 Dimension    42 NMult    39 NNew      3
 CISAX will form     3 AO SS matrices at one time.
 NMat=     3 NSing=     3 JSym2X= 0.
 Root      1 has converged.
 Excitation Energies [eV] at current iteration:
 Root      1 :     2.622909290186676   Change is   -0.000125992658413
 Root      2 :     4.251750053252754   Change is   -0.000004157385259
 Root      3 :     4.288576811500382   Change is   -0.003201581301178
 Convergence achieved on expansion vectors.
 ***********************************************************************
 Stability analysis using <AA,BB:AA,BB> singles matrix:
 ***********************************************************************
 1PDM for each excited state written to RWF  633
 Ground to excited state transition densities written to RWF  633

 Eigenvectors of the stability matrix:
 
 Excited state symmetry could not be determined.
 Eigenvector   1:  2.019-?Sym  Eigenvalue= 0.0963901  <S**2>=0.770
     12A -> 18A        0.11090
     10B -> 16B       -0.22895
     10B -> 27B        0.11348
     12B -> 16B        0.73339
     12B -> 18B       -0.31369
     12B -> 25B       -0.19832
     12B -> 27B       -0.21381
     12B -> 28B       -0.20514
 The wavefunction is stable under the perturbations considered.
 Leave Link  914 at Tue Jan  3 09:57:16 2023, MaxMem=   536870912 cpu:            1511.9 elap:             756.2
 (Enter /opt/software/gaussian/g16.c01/l508.exe)
 The wavefunction is already stable.
 Leave Link  508 at Tue Jan  3 09:57:16 2023, MaxMem=   536870912 cpu:               0.0 elap:               0.0
 (Enter /opt/software/gaussian/g16.c01/l601.exe)
 Copying SCF densities to generalized density rwf, IOpCl= 1 IROHF=0.

 **********************************************************************

            Population analysis using the SCF Density.

 **********************************************************************

 Alpha  occ. eigenvalues --  -15.65746 -15.56988 -11.23531  -1.36357  -1.08295
 Alpha  occ. eigenvalues --   -0.84049  -0.75352  -0.64958  -0.61347  -0.56918
 Alpha  occ. eigenvalues --   -0.46253  -0.35633
 Alpha virt. eigenvalues --    0.05782   0.08303   0.10976   0.12478   0.15187
 Alpha virt. eigenvalues --    0.15896   0.16487   0.16921   0.21322   0.21350
 Alpha virt. eigenvalues --    0.21960   0.23818   0.25394   0.26485   0.28498
 Alpha virt. eigenvalues --    0.29603   0.30582   0.30655   0.31357   0.32598
 Alpha virt. eigenvalues --    0.33261   0.35434   0.38013   0.38090   0.38846
 Alpha virt. eigenvalues --    0.39688   0.40667   0.42132   0.43069   0.43800
 Alpha virt. eigenvalues --    0.45265   0.47141   0.48769   0.50689   0.53112
 Alpha virt. eigenvalues --    0.54522   0.54806   0.56507   0.58079   0.59090
 Alpha virt. eigenvalues --    0.60372   0.61127   0.64325   0.66049   0.69668
 Alpha virt. eigenvalues --    0.72326   0.74096   0.74712   0.79241   0.80347
 Alpha virt. eigenvalues --    0.80600   0.82735   0.85023   0.92363   0.94328
 Alpha virt. eigenvalues --    0.96308   0.98600   1.01402   1.02274   1.05344
 Alpha virt. eigenvalues --    1.06386   1.07272   1.09624   1.14114   1.15613
 Alpha virt. eigenvalues --    1.17000   1.17080   1.20671   1.23236   1.27061
 Alpha virt. eigenvalues --    1.31363   1.33424   1.34233   1.38742   1.41745
 Alpha virt. eigenvalues --    1.45062   1.46163   1.48203   1.51555   1.53223
 Alpha virt. eigenvalues --    1.56603   1.57870   1.60440   1.68765   1.70195
 Alpha virt. eigenvalues --    1.73260   1.78634   1.81733   1.85837   1.92594
 Alpha virt. eigenvalues --    2.06855   2.09935   2.12779   2.14170   2.15387
 Alpha virt. eigenvalues --    2.18548   2.23544   2.23635   2.25658   2.28128
 Alpha virt. eigenvalues --    2.38473   2.40609   2.44264   2.46585   2.46643
 Alpha virt. eigenvalues --    2.54492   2.57018   2.59612   2.61285   2.64417
 Alpha virt. eigenvalues --    2.66389   2.70904   2.72196   2.72819   2.76088
 Alpha virt. eigenvalues --    2.76525   2.81220   2.83472   2.85207   2.87526
 Alpha virt. eigenvalues --    2.95197   2.96035   2.98273   2.99000   3.01413
 Alpha virt. eigenvalues --    3.09647   3.10151   3.10947   3.14153   3.20041
 Alpha virt. eigenvalues --    3.22011   3.24841   3.25087   3.32252   3.33744
 Alpha virt. eigenvalues --    3.36512   3.42493   3.44267   3.51810   3.59506
 Alpha virt. eigenvalues --    3.64030   3.65292   3.69593   3.69776   3.74649
 Alpha virt. eigenvalues --    3.78498   3.80934   3.87386   3.87898   3.94796
 Alpha virt. eigenvalues --    3.95365   3.98128   4.05947   4.10634   4.17039
 Alpha virt. eigenvalues --    4.22676   4.26460   4.33519   4.42254   4.43411
 Alpha virt. eigenvalues --    4.54000   4.57510   4.66342   4.73744   4.76902
 Alpha virt. eigenvalues --    4.85973   5.05986   5.06578   5.27420   5.43260
 Alpha virt. eigenvalues --    5.46909   5.58102   5.65255   5.69931   5.77594
 Alpha virt. eigenvalues --    5.86031   5.90442   5.93787   5.95438   6.01428
 Alpha virt. eigenvalues --    6.09237   6.11571   6.14736   6.15935   6.24597
 Alpha virt. eigenvalues --    6.29247   6.33724   6.34593   6.38685   6.47816
 Alpha virt. eigenvalues --    6.51392   6.56142   6.63673   6.64981   6.73397
 Alpha virt. eigenvalues --    6.76821   6.76888   6.82839   6.94712   6.96681
 Alpha virt. eigenvalues --    6.99436   7.01525   7.12841   7.15052   7.19919
 Alpha virt. eigenvalues --    7.26508   7.32884   7.32954   7.35969   7.47203
 Alpha virt. eigenvalues --    7.48828   7.52044   7.58652   7.64869   7.66723
 Alpha virt. eigenvalues --    7.67327   7.74307   7.77017   7.81511   7.81846
 Alpha virt. eigenvalues --    7.83803   7.89868   7.90694   7.91209   7.99132
 Alpha virt. eigenvalues --    7.99939   8.08908   8.10051   8.16401   8.18944
 Alpha virt. eigenvalues --    8.19470   8.28641   8.29345   8.34021   8.36044
 Alpha virt. eigenvalues --    8.44250   8.46832   8.47403   8.50092   8.52135
 Alpha virt. eigenvalues --    8.55637   8.56220   8.60073   8.63530   8.65668
 Alpha virt. eigenvalues --    8.70711   8.72324   8.77281   8.82417   8.86832
 Alpha virt. eigenvalues --    8.87418   8.95475   9.01660   9.04372   9.05725
 Alpha virt. eigenvalues --    9.10449   9.13067   9.16139   9.27230   9.34690
 Alpha virt. eigenvalues --    9.34742   9.38521   9.45103   9.45930   9.58718
 Alpha virt. eigenvalues --    9.64667   9.64824   9.72087   9.74489   9.80837
 Alpha virt. eigenvalues --    9.82735   9.86694   9.97591  10.00557  10.08513
 Alpha virt. eigenvalues --   10.16682  10.23215  10.26047  10.29462  10.34750
 Alpha virt. eigenvalues --   10.39032  10.45199  10.65914  10.82560  10.90574
 Alpha virt. eigenvalues --   11.14157  11.29172  11.41986  11.49188  11.73198
[...]
   213    H    4  dx2y2  Ryd( 4d)     0.00001       9.15490
   214    H    4  dz2    Ryd( 3d)     0.00002       3.34608
   215    H    4  dz2    Ryd( 4d)     0.00000       8.53557
   216    H    4  f(0)   Ryd( 4f)     0.00000       6.64746
   217    H    4  f(C1)  Ryd( 4f)     0.00001       7.12481
   218    H    4  f(S1)  Ryd( 4f)     0.00000       6.36590
   219    H    4  f(C2)  Ryd( 4f)     0.00001       6.85549
   220    H    4  f(S2)  Ryd( 4f)     0.00000       6.91381
   221    H    4  f(C3)  Ryd( 4f)     0.00002       7.07022
   222    H    4  f(S3)  Ryd( 4f)     0.00000       7.10611
 
   223    H    5  S      Val( 1S)     0.39165       0.07512
   224    H    5  S      Ryd( 3S)     0.00010       2.16022
   225    H    5  S      Ryd( 2S)     0.00001       1.18232
   226    H    5  S      Ryd( 4S)     0.00000       5.26024
   227    H    5  px     Ryd( 2p)     0.00003       1.15481
   228    H    5  px     Ryd( 4p)     0.00002       3.58326
   229    H    5  px     Ryd( 3p)     0.00003       2.92117
   230    H    5  px     Ryd( 5p)     0.00000       8.37430
   231    H    5  py     Ryd( 2p)     0.00120       0.96122
   232    H    5  py     Ryd( 4p)     0.00001       3.20058
   233    H    5  py     Ryd( 3p)     0.00000       2.27017
   234    H    5  py     Ryd( 5p)     0.00000       7.98858
   235    H    5  pz     Ryd( 2p)     0.00015       1.08940
   236    H    5  pz     Ryd( 4p)     0.00011       4.45508
   237    H    5  pz     Ryd( 3p)     0.00001       3.83805
   238    H    5  pz     Ryd( 5p)     0.00000       8.64490
   239    H    5  dxy    Ryd( 3d)     0.00001       3.22903
   240    H    5  dxy    Ryd( 4d)     0.00000       8.22218
   241    H    5  dxz    Ryd( 3d)     0.00002       4.10246
   242    H    5  dxz    Ryd( 4d)     0.00000       8.85739
   243    H    5  dyz    Ryd( 3d)     0.00023       3.70674
   244    H    5  dyz    Ryd( 4d)     0.00000       8.61845
   245    H    5  dx2y2  Ryd( 3d)     0.00003       3.38846
   246    H    5  dx2y2  Ryd( 4d)     0.00000       8.27096
   247    H    5  dz2    Ryd( 3d)     0.00007       4.14549
   248    H    5  dz2    Ryd( 4d)     0.00000       8.93384
   249    H    5  f(0)   Ryd( 4f)     0.00002       7.13623
   250    H    5  f(C1)  Ryd( 4f)     0.00001       7.09851
   251    H    5  f(S1)  Ryd( 4f)     0.00002       7.02061
   252    H    5  f(C2)  Ryd( 4f)     0.00001       6.87586
   253    H    5  f(S2)  Ryd( 4f)     0.00000       6.84520
   254    H    5  f(C3)  Ryd( 4f)     0.00000       6.47438
   255    H    5  f(S3)  Ryd( 4f)     0.00000       6.45602
 
   256    H    6  S      Val( 1S)     0.38601       0.09348
   257    H    6  S      Ryd( 3S)     0.00039       1.46067
   258    H    6  S      Ryd( 2S)     0.00003       1.41745
   259    H    6  S      Ryd( 4S)     0.00001       5.81567
   260    H    6  px     Ryd( 2p)     0.00003       1.31032
   261    H    6  px     Ryd( 4p)     0.00004       3.78096
   262    H    6  px     Ryd( 3p)     0.00002       3.03548
   263    H    6  px     Ryd( 5p)     0.00000       8.44450
   264    H    6  py     Ryd( 2p)     0.00097       1.05088
   265    H    6  py     Ryd( 4p)     0.00001       3.16848
   266    H    6  py     Ryd( 3p)     0.00000       2.23178
   267    H    6  py     Ryd( 5p)     0.00000       7.97189
   268    H    6  pz     Ryd( 2p)     0.00017       1.21917
   269    H    6  pz     Ryd( 4p)     0.00009       4.25808
   270    H    6  pz     Ryd( 3p)     0.00001       3.58914
   271    H    6  pz     Ryd( 5p)     0.00000       8.59947
   272    H    6  dxy    Ryd( 3d)     0.00002       3.34970
   273    H    6  dxy    Ryd( 4d)     0.00000       8.29561
   274    H    6  dxz    Ryd( 3d)     0.00001       4.19538
   275    H    6  dxz    Ryd( 4d)     0.00000       8.83596
   276    H    6  dyz    Ryd( 3d)     0.00015       3.62098
   277    H    6  dyz    Ryd( 4d)     0.00000       8.52643
   278    H    6  dx2y2  Ryd( 3d)     0.00002       3.48498
   279    H    6  dx2y2  Ryd( 4d)     0.00000       8.37363
   280    H    6  dz2    Ryd( 3d)     0.00005       3.97936
   281    H    6  dz2    Ryd( 4d)     0.00000       8.85419
   282    H    6  f(0)   Ryd( 4f)     0.00001       7.13948
   283    H    6  f(C1)  Ryd( 4f)     0.00002       7.04011
   284    H    6  f(S1)  Ryd( 4f)     0.00001       6.95985
   285    H    6  f(C2)  Ryd( 4f)     0.00001       6.82919
   286    H    6  f(S2)  Ryd( 4f)     0.00000       6.80532
   287    H    6  f(C3)  Ryd( 4f)     0.00000       6.61057
   288    H    6  f(S3)  Ryd( 4f)     0.00000       6.58636
 
   289    H    7  S      Val( 1S)     0.31619       0.13132
   290    H    7  S      Ryd( 2S)     0.00025       2.36730
   291    H    7  S      Ryd( 3S)     0.00001       2.64412
   292    H    7  S      Ryd( 4S)     0.00000       3.42337
   293    H    7  px     Ryd( 2p)     0.00021       0.79842
   294    H    7  px     Ryd( 3p)     0.00010       2.88246
   295    H    7  px     Ryd( 4p)     0.00002       3.96816
   296    H    7  px     Ryd( 5p)     0.00000       7.85030
   297    H    7  py     Ryd( 2p)     0.00056       0.72438
   298    H    7  py     Ryd( 3p)     0.00006       2.49380
   299    H    7  py     Ryd( 4p)     0.00000       3.24201
   300    H    7  py     Ryd( 5p)     0.00000       7.07939
   301    H    7  pz     Ryd( 2p)     0.00049       0.73029
   302    H    7  pz     Ryd( 3p)     0.00025       3.39761
   303    H    7  pz     Ryd( 4p)     0.00001       5.43291
   304    H    7  pz     Ryd( 5p)     0.00000       8.22508
   305    H    7  dxy    Ryd( 3d)     0.00001       3.23027
   306    H    7  dxy    Ryd( 4d)     0.00000       8.52889
   307    H    7  dxz    Ryd( 3d)     0.00001       4.24561
   308    H    7  dxz    Ryd( 4d)     0.00001       9.34925
   309    H    7  dyz    Ryd( 3d)     0.00001       3.88523
   310    H    7  dyz    Ryd( 4d)     0.00000       8.98857
   311    H    7  dx2y2  Ryd( 3d)     0.00000       3.48457
   312    H    7  dx2y2  Ryd( 4d)     0.00000       8.62490
   313    H    7  dz2    Ryd( 3d)     0.00001       4.52147
   314    H    7  dz2    Ryd( 4d)     0.00001       9.41616
   315    H    7  f(0)   Ryd( 4f)     0.00002       7.30002
   316    H    7  f(C1)  Ryd( 4f)     0.00002       7.25272
   317    H    7  f(S1)  Ryd( 4f)     0.00001       7.07603
   318    H    7  f(C2)  Ryd( 4f)     0.00001       6.90136
   319    H    7  f(S2)  Ryd( 4f)     0.00001       6.87659
   320    H    7  f(C3)  Ryd( 4f)     0.00000       6.53860
   321    H    7  f(S3)  Ryd( 4f)     0.00001       6.47901

 WARNING:  Population inversion found on atom  C    1
           Population inversion found on atom  N    2
           Population inversion found on atom  N    3
           Population inversion found on atom  H    4
           Population inversion found on atom  H    5
           Population inversion found on atom  H    6


 Summary of Natural Population Analysis:                  
                                                          
                                       Natural Population 
                Natural  -----------------------------------------------
    Atom  No    Charge         Core      Valence    Rydberg      Total
 -----------------------------------------------------------------------
      C    1   -0.50314      0.99974     2.48203    0.02137     3.50314
      N    2   -0.11337      0.99977     2.59015    0.02345     3.61337
      N    3    0.07996      0.99983     2.40280    0.01742     3.42004
      H    4    0.13674      0.00000     0.36104    0.00221     0.36326
      H    5    0.10625      0.00000     0.39165    0.00210     0.39375
      H    6    0.11187      0.00000     0.38601    0.00211     0.38813
      H    7    0.18169      0.00000     0.31619    0.00213     0.31831
 =======================================================================
   * Total *    0.00000      2.99935     8.92987    0.07078    12.00000

                                 Natural Population      
 --------------------------------------------------------
   Core                       2.99935 ( 99.9782% of   3)
   Valence                    8.92987 ( 99.2208% of   9)
   Natural Minimal Basis     11.92922 ( 99.4101% of  12)
   Natural Rydberg Basis      0.07078 (  0.5899% of  12)
 --------------------------------------------------------

    Atom  No          Natural Electron Configuration
 ----------------------------------------------------------------------------
      C    1      [core]2S( 0.54)2p( 1.94)3p( 0.01)
      N    2      [core]2S( 0.60)2p( 1.99)3p( 0.01)3d( 0.01)
      N    3      [core]2S( 0.75)2p( 1.66)3p( 0.01)4d( 0.01)
      H    4            1S( 0.36)
      H    5            1S( 0.39)
      H    6            1S( 0.39)
      H    7            1S( 0.32)


 NBO analysis skipped by request.
 Leave Link  607 at Tue Jan  3 09:57:51 2023, MaxMem=   536870912 cpu:               4.1 elap:               2.1
 (Enter /opt/software/gaussian/g16.c01/l701.exe)
 ... and contract with generalized density number  0.
 Compute integral first derivatives.
 Leave Link  701 at Tue Jan  3 09:57:51 2023, MaxMem=   536870912 cpu:               0.6 elap:               0.3
 (Enter /opt/software/gaussian/g16.c01/l702.exe)
 L702 exits ... SP integral derivatives will be done elsewhere.
 Leave Link  702 at Tue Jan  3 09:57:51 2023, MaxMem=   536870912 cpu:               0.1 elap:               0.0
 (Enter /opt/software/gaussian/g16.c01/l703.exe)
 Integral derivatives from FoFJK, PRISM(SPDF).
 Compute integral first derivatives, UseDBF=F ICtDFT=           0.
 Calling FoFJK, ICntrl=      2127 FMM=F ISym2X=0 I1Cent= 0 IOpClX= 1 NMat=1 NMatS=1 NMatT=0.
 FoFJK:  IHMeth= 1 ICntrl=    2127 DoSepK=F KAlg= 0 I1Cent=           0 FoldK=F
 IRaf=         0 NMat=       1 IRICut=       1 DoRegI=T DoRafI=F ISym2E= 0 IDoP0=0 IntGTp=1.
 FoFCou: FMM=F IPFlag=           0 FMFlag=      100000 FMFlg1=         800
         NFxFlg=           0 DoJE=F BraDBF=F KetDBF=F FulRan=T
         wScrn=  0.000000 ICntrl=      2127 IOpCl=  1 I1Cent=           0 NGrid=           0
         NMat0=    1 NMatS0=      1 NMatT0=    0 NMatD0=    1 NMtDS0=    0 NMtDT0=    0
 Symmetry not used in FoFCou.
 Leave Link  703 at Tue Jan  3 10:00:09 2023, MaxMem=   536870912 cpu:             274.9 elap:             137.6
 (Enter /opt/software/gaussian/g16.c01/l716.exe)
 Dipole        = 1.73538778D-01 2.90685249D-01 1.07983484D+00
 -------------------------------------------------------------------
 Center     Atomic                   Forces (Hartrees/Bohr)
 Number     Number              X              Y              Z
 -------------------------------------------------------------------
      1        6          -0.041969360   -0.001599762   -0.005037331
      2        7           0.044594653    0.008710497    0.031490717
      3        7           0.011707391   -0.000338117   -0.001515524
      4        1          -0.015298704   -0.000977583   -0.003310860
      5        1           0.004353880   -0.003328745   -0.012508290
      6        1           0.005474628    0.003294408    0.012157298
      7        1          -0.008862488   -0.005760699   -0.021276011
 -------------------------------------------------------------------
 Cartesian Forces:  Max     0.044594653 RMS     0.017141624
 Z-matrix is all fixed cartesians, so copy forces.
 Force constants in Cartesian coordinates: 
                1             2             3             4             5 
      1  0.979681D+00
      2 -0.379301D-03  0.213865D+00
      3 -0.190645D-01  0.142607D+00  0.707620D+00
      4 -0.643805D+00  0.579070D-02  0.334547D-01  0.112567D+01
      5  0.632347D-02 -0.106234D+00 -0.223587D-01 -0.331382D-01  0.255501D+00
      6  0.354270D-01 -0.223469D-01 -0.184344D+00 -0.143773D+00  0.210309D+00
      7  0.271848D-02  0.887848D-02  0.332925D-01 -0.285848D+00  0.632473D-01
      8  0.405863D-03  0.125485D-01  0.280651D-02  0.556667D-01 -0.952295D-01
      9  0.171151D-02  0.262289D-02  0.215325D-01  0.212339D+00 -0.116800D+00
     10  0.000000D+00 -0.399533D-04  0.107186D-04 -0.760156D-02 -0.133499D-02
     11 -0.399096D-04  0.681015D-02 -0.182702D-02  0.704590D-02  0.450257D-02
     12  0.107071D-04 -0.182705D-02  0.490159D-03  0.265068D-01  0.370720D-02
     13 -0.151899D+00  0.232181D-01  0.887550D-01  0.227506D-02  0.740187D-02
     14  0.222321D-01 -0.700228D-01 -0.649731D-01  0.189247D-03  0.144423D-01
     15  0.850866D-01 -0.649992D-01 -0.296927D+00  0.973426D-03 -0.504849D-03
     16 -0.184388D+00 -0.297881D-01 -0.108208D+00 -0.207961D-02 -0.693893D-02
     17 -0.287722D-01 -0.722180D-01 -0.562752D-01  0.243717D-03  0.170004D-01
     18 -0.104411D+00 -0.562483D-01 -0.264302D+00  0.132579D-02  0.166311D-04
     19 -0.230818D-02 -0.767988D-02 -0.282404D-01 -0.188615D+00 -0.355605D-01
     20  0.229955D-03  0.152509D-01  0.203553D-04 -0.357981D-01 -0.899827D-01
     21  0.124008D-02  0.191593D-03  0.159310D-01 -0.130826D+00 -0.743693D-01
                6             7             8             9            10 
      6  0.986309D+00
      7  0.240594D+00  0.668956D+00
      8 -0.116633D+00 -0.324380D-01  0.846813D-01
      9 -0.504269D+00 -0.134507D+00  0.140554D+00  0.574006D+00
     10 -0.473293D-02 -0.410677D+00 -0.278084D-01 -0.950666D-01  0.418278D+00
     11  0.352379D-02 -0.361895D-01 -0.231711D-01 -0.184397D-01  0.291372D-01
     12  0.167545D-01 -0.126306D+00 -0.186231D-01 -0.846654D-01  0.998012D-01
     13  0.278675D-01  0.000000D+00 -0.447309D-04  0.120004D-04  0.000000D+00
     14 -0.347895D-03 -0.447767D-04  0.764067D-02 -0.204983D-02  0.000000D+00
     15  0.126317D-01  0.120092D-04 -0.204924D-02  0.549768D-03  0.000000D+00
     16 -0.254401D-01  0.000000D+00  0.448748D-04 -0.120390D-04  0.000000D+00
     17 -0.139769D-03  0.448434D-04 -0.765204D-02  0.205288D-02  0.000000D+00
     18  0.170683D-01 -0.120329D-04  0.205329D-02 -0.550853D-03  0.000000D+00
     19 -0.129942D+00  0.248506D-01  0.417370D-02  0.155231D-01  0.000000D+00
     20 -0.743652D-01 -0.349835D-02  0.211822D-01 -0.794026D-02  0.462088D-04
     21 -0.344150D+00 -0.130734D-01 -0.810855D-02 -0.660326D-02 -0.123974D-04
               11            12            13            14            15 
     11  0.197348D-01
     12  0.146298D-01  0.679877D-01
     13  0.000000D+00  0.000000D+00  0.120347D+00
     14  0.000000D+00  0.000000D+00 -0.258292D-01  0.469624D-01
     15  0.000000D+00  0.000000D+00 -0.983283D-01  0.699484D-01  0.291298D+00
     16  0.000000D+00  0.000000D+00  0.292766D-01  0.340314D-02  0.122695D-01
     17  0.000000D+00  0.000000D+00 -0.479540D-02  0.941143D-02 -0.465711D-02
     18  0.000000D+00  0.000000D+00 -0.182930D-01 -0.484049D-02 -0.694563D-02
     19  0.463037D-04 -0.124225D-04  0.000000D+00  0.494397D-04 -0.132598D-04
     20 -0.787642D-02  0.211311D-02  0.493749D-04 -0.843392D-02  0.226199D-02
     21  0.211317D-02 -0.566929D-03 -0.132473D-04  0.226283D-02 -0.606894D-03
               16            17            18            19            20 
     16  0.157191D+00
     17  0.333285D-01  0.450118D-01
     18  0.121377D+00  0.612854D-01  0.254122D+00
     19  0.000000D+00 -0.495133D-04  0.132860D-04  0.166072D+00
     20 -0.495337D-04  0.844647D-02 -0.226646D-02  0.390205D-01  0.614135D-01
     21  0.132899D-04 -0.226619D-02  0.608092D-03  0.142672D+00  0.801764D-01
               21 
     21  0.335388D+00
 Leave Link  716 at Tue Jan  3 10:00:09 2023, MaxMem=   536870912 cpu:               0.1 elap:               0.1
 (Enter /opt/software/gaussian/g16.c01/l103.exe)

 GradGradGradGradGradGradGradGradGradGradGradGradGradGradGradGradGradGrad
 Berny optimization.
 Search for a local minimum.
 Step number   1 out of a maximum of    2
 All quantities printed in internal units (Hartrees-Bohrs-Radians)
 Second derivative matrix not updated -- first step.
 ITU=  0
     Eigenvalues ---    0.02409   0.03062   0.03370   0.05977   0.08903
     Eigenvalues ---    0.11483   0.14278   0.19866   0.30111   0.35087
     Eigenvalues ---    0.61127   0.81664   1.00827   1.49337   1.92763
 Angle between quadratic step and forces=  56.01 degrees.
 Linear search not attempted -- first point.
 B after Tr=     0.001713    0.001770    0.006570
         Rot=    1.000000   -0.000002    0.000286   -0.000077 Ang=  -0.03 deg.
 Variable       Old X    -DE/DX   Delta X   Delta X   Delta X     New X
                                 (Linear)    (Quad)   (Total)
    X1        2.02695  -0.04197   0.00000  -0.01643  -0.01453   2.01243
    Y1       -0.13266  -0.00160   0.00000  -0.00218  -0.00010  -0.13275
    Z1       -0.28915  -0.00504   0.00000  -0.00773  -0.00001  -0.28917
    X2        4.49366   0.04459   0.00000   0.03646   0.03845   4.53212
    Y2       -0.16959   0.00871   0.00000   0.01080   0.01327  -0.15632
    Z2       -0.48072   0.03149   0.00000   0.03950   0.04867  -0.43205
    X3        5.82670   0.01171   0.00000  -0.01298  -0.00975   5.81695
    Y3       -0.69631  -0.00034   0.00000   0.00122   0.00389  -0.69242
    Z3       -2.47314  -0.00152   0.00000   0.00485   0.01474  -2.45839
    X4        7.67994  -0.01530   0.00000  -0.03867  -0.03572   7.64422
    Y4       -0.55307  -0.00098   0.00000  -0.00888  -0.00593  -0.55899
    Z4       -1.97975  -0.00331   0.00000  -0.03232  -0.02137  -2.00112
    X5        1.20935   0.00435   0.00000  -0.04217  -0.04135   1.16800
    Y5        0.34989  -0.00333   0.00000  -0.01605  -0.01411   0.33578
    Z5        1.52789  -0.01251   0.00000  -0.05898  -0.05174   1.47615
    X6        0.91282   0.00547   0.00000   0.01702   0.01993   0.93275
    Y6       -0.58578   0.00329   0.00000   0.00429   0.00621  -0.57957
    Z6       -1.95346   0.01216   0.00000   0.01560   0.02270  -1.93075
    X7        5.41879  -0.00886   0.00000   0.04194   0.04296   5.46175
    Y7        0.27567  -0.00576   0.00000  -0.00585  -0.00324   0.27243
    Z7        1.15865  -0.02128   0.00000  -0.02268  -0.01298   1.14567
         Item               Value     Threshold  Converged?
 Maximum Force            0.044595     0.000450     NO 
 RMS     Force            0.017142     0.000300     NO 
 Maximum Displacement     0.051743     0.001800     NO 
 RMS     Displacement     0.025720     0.001200     NO 
 Predicted change in Energy=-2.646363D-03
 GradGradGradGradGradGradGradGradGradGradGradGradGradGradGradGradGradGrad

 Leave Link  103 at Tue Jan  3 10:00:09 2023, MaxMem=   536870912 cpu:               0.1 elap:               0.0
 (Enter /opt/software/gaussian/g16.c01/l9999.exe)
 Unable to Open any file for archive entry.
 1\1\GINC-GRA285\Force\UHF\Gen\C1H4N2\BHAVUK\03-Jan-2023\0\\#p uhf/chkb
 asis force guess=read geom=check scf=(maxcycle=900,verytightlineq,xqc)
  integral=grid=ultrafine symmetry=None density=current pop=(cm5,hlygat
 ,mbs,npa) output=wfx\\0001_q000_m01_k00_opt_uwb97xd_def2svpd/0001_q000
 _m01_k00_force_uhf_def2qzvpd stable-force\\0,1\C,1.0726168695,-0.07019
 91232,-0.153012633\N,2.3779437514,-0.0897456927,-0.2543854931\N,3.0833
 554789,-0.3684697824,-1.3087287982\H,4.0640493508,-0.2926697434,-1.047
 6368317\H,0.6399628731,0.1851542916,0.8085260928\H,0.4830438364,-0.309
 9796861,-1.0337247999\H,2.8674978397,0.1458797364,0.6131324666\\Versio
 n=ES64L-G16RevC.01\HF=-149.0645809\S2=0.642148\S2-1=0.\S2A=0.067931\RM
 SD=1.499e-10\RMSF=1.714e-02\Dipole=0.1735388,0.2906852,1.0798348\Quadr
 upole=4.2317551,-1.7496697,-2.4820855,1.5485559,5.6862938,-0.2567574\P
 G=Unknown\\@
 The archive entry for this job was punched.

 Writing a WFNX file to "0001_q000_m01_k00_force_uhf_def2qzvpd.wfx"


 ORIGINALITY CONSISTS NOT IN SAYING WHAT NO ONE HAS EVER SAID BEFORE, 
 BUT IN SAYING WHAT YOU THINK YOUR SELF.

                                    -- JAMES F. STEPHEN
 Job cpu time:       0 days  0 hours  5 minutes 43.5 seconds.
 Elapsed time:       0 days  0 hours  2 minutes 51.8 seconds.
 File lengths (MBytes):  RWF=    100 Int=      0 D2E=      0 Chk=     14 Scr=      1
 Normal termination of Gaussian 16 at Tue Jan  3 10:00:09 2023.
