 Entering Gaussian System, Link 0=g16
 Input=0001_q000_m01_k00_force_uhf_def2svpd.com
 Output=0001_q000_m01_k00_force_uhf_def2svpd.log
 Initial command:
 /opt/software/gaussian/g16.c01/l1.exe "/localscratch/bhavuk.2151341.0/Gau-15997.inp" -scrdir="/localscratch/bhavuk.2151341.0/"
 Entering Link 1 = /opt/software/gaussian/g16.c01/l1.exe PID=     16023.
  
 Copyright (c) 1988-2019, Gaussian, Inc.  All Rights Reserved.
  
 This is part of the Gaussian(R) 16 program.  It is based on
 the Gaussian(R) 09 system (copyright 2009, Gaussian, Inc.),
 the Gaussian(R) 03 system (copyright 2003, Gaussian, Inc.),
 the Gaussian(R) 98 system (copyright 1998, Gaussian, Inc.),
 the Gaussian(R) 94 system (copyright 1995, Gaussian, Inc.),
 the Gaussian 92(TM) system (copyright 1992, Gaussian, Inc.),
 the Gaussian 90(TM) system (copyright 1990, Gaussian, Inc.),
 the Gaussian 88(TM) system (copyright 1988, Gaussian, Inc.),
 the Gaussian 86(TM) system (copyright 1986, Carnegie Mellon
 University), and the Gaussian 82(TM) system (copyright 1983,
 Carnegie Mellon University). Gaussian is a federally registered
 trademark of Gaussian, Inc.
  
 This software contains proprietary and confidential information,
 including trade secrets, belonging to Gaussian, Inc.
  
 This software is provided under written license and may be
 used, copied, transmitted, or stored only in accord with that
 written license.
  
 The following legend is applicable only to US Government
 contracts under FAR:
  
                    RESTRICTED RIGHTS LEGEND
  
 Use, reproduction and disclosure by the US Government is
 subject to restrictions as set forth in subparagraphs (a)
 and (c) of the Commercial Computer Software - Restricted
 Rights clause in FAR 52.227-19.
  
 Gaussian, Inc.
 340 Quinnipiac St., Bldg. 40, Wallingford CT 06492
  
  
 ---------------------------------------------------------------
 Warning -- This program may not be used in any manner that
 competes with the business of Gaussian, Inc. or will provide
 assistance to any competitor of Gaussian, Inc.  The licensee
 of this program is prohibited from giving any competitor of
 Gaussian, Inc. access to this program.  By using this program,
 the user acknowledges that Gaussian, Inc. is engaged in the
 business of creating and licensing software in the field of
 computational chemistry and represents and warrants to the
 licensee that it is not a competitor of Gaussian, Inc. and that
 it will not use this program in any manner prohibited above.
 ---------------------------------------------------------------
  

 Cite this work as:
 Gaussian 16, Revision C.01,
 M. J. Frisch, G. W. Trucks, H. B. Schlegel, G. E. Scuseria, 
 M. A. Robb, J. R. Cheeseman, G. Scalmani, V. Barone, 
 G. A. Petersson, H. Nakatsuji, X. Li, M. Caricato, A. V. Marenich, 
 J. Bloino, B. G. Janesko, R. Gomperts, B. Mennucci, H. P. Hratchian, 
 J. V. Ortiz, A. F. Izmaylov, J. L. Sonnenberg, D. Williams-Young, 
 F. Ding, F. Lipparini, F. Egidi, J. Goings, B. Peng, A. Petrone, 
 T. Henderson, D. Ranasinghe, V. G. Zakrzewski, J. Gao, N. Rega, 
 G. Zheng, W. Liang, M. Hada, M. Ehara, K. Toyota, R. Fukuda, 
 J. Hasegawa, M. Ishida, T. Nakajima, Y. Honda, O. Kitao, H. Nakai, 
 T. Vreven, K. Throssell, J. A. Montgomery, Jr., J. E. Peralta, 
 F. Ogliaro, M. J. Bearpark, J. J. Heyd, E. N. Brothers, K. N. Kudin, 
 V. N. Staroverov, T. A. Keith, R. Kobayashi, J. Normand, 
 K. Raghavachari, A. P. Rendell, J. C. Burant, S. S. Iyengar, 
 J. Tomasi, M. Cossi, J. M. Millam, M. Klene, C. Adamo, R. Cammi, 
 J. W. Ochterski, R. L. Martin, K. Morokuma, O. Farkas, 
 J. B. Foresman, and D. J. Fox, Gaussian, Inc., Wallingford CT, 2019.
 
 ******************************************
 Gaussian 16:  ES64L-G16RevC.01  3-Jul-2019
                 3-Jan-2023 
 ******************************************
 %chk=0001_q000_m01_k00_force_uhf_def2svpd.chk
 %nprocshared=2
 Will use up to    2 processors via shared memory.
 %mem=4GB
 ----------------------------------------------------------------------
 #p uhf/gen stable=opt scf=(maxcycle=900,verytightlineq,xqc) integral=g
 rid=ultrafine symmetry=None density=current iop(99/18=-1) output=wfn
 ----------------------------------------------------------------------
 1/38=1,172=1/1;
 2/12=2,15=3,17=6,18=5,40=1/2;
 3/5=7,11=2,25=1,30=1,75=-5,116=2/1,2,3;
 4//1;
 5/5=2,7=900,8=3,13=1,17=3,38=5/2,8;
 6/7=2,8=2,9=2,10=2,22=-1,28=1/1;
 8/6=1,10=90,11=11/1;
 9/8=-3,42=1,46=1/14;
 5/5=2,7=900,8=3,17=43,38=5/8(-2);
 6/7=2,8=2,9=2,10=2,22=-1,28=1/1;
 99/5=1,6=100,9=1,18=-1/99;
 Leave Link    1 at Tue Jan  3 09:03:38 2023, MaxMem=   536870912 cpu:               0.1 elap:               0.1
 (Enter /opt/software/gaussian/g16.c01/l101.exe)
 ----------------------------------------------------------------------
 0001_q000_m01_k00_opt_uwb97xd_def2svpd/0001_q000_m01_k00_force_uhf_def
 2svpd stable-force
 ----------------------------------------------------------------------
 Symbolic Z-matrix:
 Charge =  0 Multiplicity = 1
 C                     1.07262  -0.0702   -0.15301 
 N                     2.37794  -0.08975  -0.25439 
 N                     3.08336  -0.36847  -1.30873 
 H                     4.06405  -0.29267  -1.04764 
 H                     0.63996   0.18515   0.80853 
 H                     0.48304  -0.30998  -1.03372 
 H                     2.8675    0.14588   0.61313 
 
 ITRead=  0  0  0  0  0  0  0
 MicOpt= -1 -1 -1 -1 -1 -1 -1
 NAtoms=      7 NQM=        7 NQMF=       0 NMMI=      0 NMMIF=      0
                NMic=       0 NMicF=      0.
                    Isotopes and Nuclear Properties:
 (Nuclear quadrupole moments (NQMom) in fm**2, nuclear magnetic moments (NMagM)
  in nuclear magnetons)

  Atom         1           2           3           4           5           6           7
 IAtWgt=          12          14          14           1           1           1           1
 AtmWgt=  12.0000000  14.0030740  14.0030740   1.0078250   1.0078250   1.0078250   1.0078250
 NucSpn=           0           2           2           1           1           1           1
 AtZEff=  -0.0000000  -0.0000000  -0.0000000  -0.0000000  -0.0000000  -0.0000000  -0.0000000
 NQMom=    0.0000000   2.0440000   2.0440000   0.0000000   0.0000000   0.0000000   0.0000000
 NMagM=    0.0000000   0.4037610   0.4037610   2.7928460   2.7928460   2.7928460   2.7928460
 AtZNuc=   6.0000000   7.0000000   7.0000000   1.0000000   1.0000000   1.0000000   1.0000000
 Leave Link  101 at Tue Jan  3 09:03:39 2023, MaxMem=   536870912 cpu:               0.5 elap:               0.2
 (Enter /opt/software/gaussian/g16.c01/l202.exe)
                          Input orientation:                          
 ---------------------------------------------------------------------
 Center     Atomic      Atomic             Coordinates (Angstroms)
 Number     Number       Type             X           Y           Z
 ---------------------------------------------------------------------
      1          6           0        1.072617   -0.070199   -0.153013
      2          7           0        2.377944   -0.089746   -0.254385
      3          7           0        3.083355   -0.368470   -1.308729
      4          1           0        4.064049   -0.292670   -1.047637
      5          1           0        0.639963    0.185154    0.808526
      6          1           0        0.483044   -0.309980   -1.033725
      7          1           0        2.867498    0.145880    0.613132
 ---------------------------------------------------------------------
                    Distance matrix (angstroms):
                    1          2          3          4          5
     1  C    0.000000
     2  N    1.309403   0.000000
     3  N    2.338315   1.298820   0.000000
     4  H    3.130258   1.874401   1.017681   0.000000
     5  H    1.084874   2.055706   3.280158   3.924032   0.000000
     6  H    1.086621   2.060708   2.615467   3.581074   1.914071
     7  H    1.963483   1.023606   2.001175   2.093374   2.236433
                    6          7
     6  H    0.000000
     7  H    2.933525   0.000000
 Symmetry turned off by external request.
 Stoichiometry    CH4N2
 Rotational constants (GHZ):          71.2642239          11.2793619           9.7380671
 Leave Link  202 at Tue Jan  3 09:03:39 2023, MaxMem=   536870912 cpu:               0.0 elap:               0.0
 (Enter /opt/software/gaussian/g16.c01/l301.exe)
 General basis read from cards:  (5D, 7F)
 Centers:       4      5      6      7
 S 3 1.00
     Exponent=  1.3010701000D+01 Coefficients=  1.9682158000D-02
     Exponent=  1.9622572000D+00 Coefficients=  1.3796524000D-01
     Exponent=  4.4453796000D-01 Coefficients=  4.7831935000D-01
 S 1 1.00
     Exponent=  1.2194962000D-01 Coefficients=  1.0000000000D+00
 P 1 1.00
     Exponent=  8.0000000000D-01 Coefficients=  1.0000000000D+00
 P 1 1.00
     Exponent=  1.1704099050D-01 Coefficients=  1.0000000000D+00
 ****
 Centers:       1
 S 5 1.00
     Exponent=  1.2384016938D+03 Coefficients=  5.4568832082D-03
     Exponent=  1.8629004992D+02 Coefficients=  4.0638409211D-02
     Exponent=  4.2251176346D+01 Coefficients=  1.8025593888D-01
     Exponent=  1.1676557932D+01 Coefficients=  4.6315121755D-01
     Exponent=  3.5930506482D+00 Coefficients=  4.4087173314D-01
 S 1 1.00
     Exponent=  4.0245147363D-01 Coefficients=  1.0000000000D+00
 S 1 1.00
     Exponent=  1.3090182668D-01 Coefficients=  1.0000000000D+00
 S 1 1.00
     Exponent=  6.7053540256D-02 Coefficients=  1.0000000000D+00
 P 3 1.00
     Exponent=  9.4680970621D+00 Coefficients=  3.8387871728D-02
     Exponent=  2.0103545142D+00 Coefficients=  2.1117025112D-01
     Exponent=  5.4771004707D-01 Coefficients=  5.1328172114D-01
 P 1 1.00
     Exponent=  1.5268613795D-01 Coefficients=  1.0000000000D+00
 D 1 1.00
     Exponent=  8.0000000000D-01 Coefficients=  1.0000000000D+00
 D 1 1.00
     Exponent=  1.1713185140D-01 Coefficients=  1.0000000000D+00
 ****
 Centers:       2      3
 S 5 1.00
     Exponent=  1.7128415853D+03 Coefficients= -5.3934125305D-03
     Exponent=  2.5764812677D+02 Coefficients= -4.0221581118D-02
     Exponent=  5.8458245853D+01 Coefficients= -1.7931144990D-01
     Exponent=  1.6198367905D+01 Coefficients= -4.6376317823D-01
     Exponent=  5.0052600809D+00 Coefficients= -4.4171422662D-01
 S 1 1.00
     Exponent=  5.8731856571D-01 Coefficients=  1.0000000000D+00
 S 1 1.00
     Exponent=  1.8764592253D-01 Coefficients=  1.0000000000D+00
 S 1 1.00
     Exponent=  9.6171241529D-02 Coefficients=  1.0000000000D+00
 P 3 1.00
     Exponent=  1.3571470233D+01 Coefficients= -4.0072398852D-02
     Exponent=  2.9257372874D+00 Coefficients= -2.1807045028D-01
     Exponent=  7.9927750754D-01 Coefficients= -5.1294466049D-01
 P 1 1.00
     Exponent=  2.1954348034D-01 Coefficients=  1.0000000000D+00
 D 1 1.00
     Exponent=  1.0000000000D+00 Coefficients=  1.0000000000D+00
 D 1 1.00
     Exponent=  1.6697708112D-01 Coefficients=  1.0000000000D+00
 ****
 Ernie: Thresh=  0.10000D-02 Tol=  0.10000D-05 Strict=F.
    92 basis functions,   136 primitive gaussians,    98 cartesian basis functions
    12 alpha electrons       12 beta electrons
       nuclear repulsion energy        73.3825490640 Hartrees.
 IExCor=    0 DFT=F Ex=HF Corr=None ExCW=0 ScaHFX=  1.000000
 ScaDFX=  1.000000  1.000000  1.000000  1.000000 ScalE2=  1.000000  1.000000
 IRadAn=      5 IRanWt=     -1 IRanGd=            0 ICorTp=0 IEmpDi=  4
 NAtoms=    7 NActive=    7 NUniq=    7 SFac= 1.00D+00 NAtFMM=   60 NAOKFM=F Big=F
 Integral buffers will be    131072 words long.
 Raffenetti 2 integral format.
 Two-electron integral symmetry is turned off.
 Leave Link  301 at Tue Jan  3 09:03:39 2023, MaxMem=   536870912 cpu:               0.1 elap:               0.1
 (Enter /opt/software/gaussian/g16.c01/l302.exe)
 NPDir=0 NMtPBC=     1 NCelOv=     1 NCel=       1 NClECP=     1 NCelD=      1
         NCelK=      1 NCelE2=     1 NClLst=     1 CellRange=     0.0.
 One-electron integrals computed using PRISM.
 NBasis=    92 RedAO= T EigKep=  2.51D-04  NBF=    92
 NBsUse=    92 1.00D-06 EigRej= -1.00D+00 NBFU=    92
 Leave Link  302 at Tue Jan  3 09:03:39 2023, MaxMem=   536870912 cpu:               0.3 elap:               0.2
 (Enter /opt/software/gaussian/g16.c01/l303.exe)
 DipDrv:  MaxL=1.
 Leave Link  303 at Tue Jan  3 09:03:40 2023, MaxMem=   536870912 cpu:               0.1 elap:               0.1
 (Enter /opt/software/gaussian/g16.c01/l401.exe)
 ExpMin= 6.71D-02 ExpMax= 1.71D+03 ExpMxC= 2.58D+02 IAcc=3 IRadAn=         5 AccDes= 0.00D+00
 Harris functional with IExCor=  205 and IRadAn=       5 diagonalized for initial guess.
 HarFok:  IExCor=  205 AccDes= 0.00D+00 IRadAn=         5 IDoV= 1 UseB2=F ITyADJ=14
 ICtDFT=  3500011 ScaDFX=  1.000000  1.000000  1.000000  1.000000
 FoFCou: FMM=F IPFlag=           0 FMFlag=      100000 FMFlg1=           0
         NFxFlg=           0 DoJE=T BraDBF=F KetDBF=T FulRan=T
         wScrn=  0.000000 ICntrl=       500 IOpCl=  0 I1Cent=   200000004 NGrid=           0
         NMat0=    1 NMatS0=      1 NMatT0=    0 NMatD0=    1 NMtDS0=    0 NMtDT0=    0
 Symmetry not used in FoFCou.
 Harris En= -149.103207332618    
 JPrj=0 DoOrth=F DoCkMO=F.
 Initial guess <Sx>= 0.0000 <Sy>= 0.0000 <Sz>= 0.0000 <S**2>=-0.0000 S=-0.0000
 Leave Link  401 at Tue Jan  3 09:03:40 2023, MaxMem=   536870912 cpu:               0.8 elap:               0.4
 (Enter /opt/software/gaussian/g16.c01/l502.exe)
 Keep R1 and R2 ints in memory in canonical form, NReq=19169430.
 FoFCou: FMM=F IPFlag=           0 FMFlag=           0 FMFlg1=           0
         NFxFlg=           0 DoJE=F BraDBF=F KetDBF=F FulRan=T
         wScrn=  0.000000 ICntrl=       600 IOpCl=  0 I1Cent=           0 NGrid=           0
         NMat0=    1 NMatS0=   4278 NMatT0=    0 NMatD0=    1 NMtDS0=    0 NMtDT0=    0
 Symmetry not used in FoFCou.
 Two-electron integral symmetry not used.
 UHF open shell SCF:
 Using DIIS extrapolation, IDIIS=  1040.
 NGot=   536870912 LenX=   518544534 LenY=   518534489
 Requested convergence on RMS density matrix=1.00D-08 within 128 cycles.
 Requested convergence on MAX density matrix=1.00D-06.
 Requested convergence on             energy=1.00D-06.
 No special actions if energy rises.

 Cycle   1  Pass 1  IDiag  1:
 E= -148.751638181103    
 DIIS: error= 3.48D-02 at cycle   1 NSaved=   1.
 NSaved= 1 IEnMin= 1 EnMin= -148.751638181103     IErMin= 1 ErrMin= 3.48D-02
 ErrMax= 3.48D-02  0.00D+00 EMaxC= 1.00D-01 BMatC= 6.79D-01 BMatP= 6.79D-01
 IDIUse=3 WtCom= 6.52D-01 WtEn= 3.48D-01
 Coeff-Com:  0.100D+01
 Coeff-En:   0.100D+01
 Coeff:      0.100D+01
 Gap=     0.388 Goal=   None    Shift=    0.000
 Gap=     0.388 Goal=   None    Shift=    0.000
 GapD=    0.388 DampG=1.000 DampE=0.500 DampFc=0.5000 IDamp=-1.
 Damping current iteration by 5.00D-01
 RMSDP=1.18D-02 MaxDP=1.62D-01              OVMax= 1.37D-01

 Cycle   2  Pass 1  IDiag  1:
 E= -148.817531903021     Delta-E=       -0.065893721919 Rises=F Damp=T
 DIIS: error= 1.52D-02 at cycle   2 NSaved=   2.
 NSaved= 2 IEnMin= 2 EnMin= -148.817531903021     IErMin= 2 ErrMin= 1.52D-02
 ErrMax= 1.52D-02  0.00D+00 EMaxC= 1.00D-01 BMatC= 1.21D-01 BMatP= 6.79D-01
 IDIUse=3 WtCom= 8.48D-01 WtEn= 1.52D-01
 Coeff-Com: -0.528D+00 0.153D+01
 Coeff-En:   0.000D+00 0.100D+01
 Coeff:     -0.447D+00 0.145D+01
 Gap=     0.394 Goal=   None    Shift=    0.000
 Gap=     0.394 Goal=   None    Shift=    0.000
 RMSDP=4.73D-03 MaxDP=8.45D-02 DE=-6.59D-02 OVMax= 3.96D-02

 Cycle   3  Pass 1  IDiag  1:
 E= -148.874856195098     Delta-E=       -0.057324292077 Rises=F Damp=F
 DIIS: error= 2.31D-03 at cycle   3 NSaved=   3.
 NSaved= 3 IEnMin= 3 EnMin= -148.874856195098     IErMin= 3 ErrMin= 2.31D-03
 ErrMax= 2.31D-03  0.00D+00 EMaxC= 1.00D-01 BMatC= 3.75D-03 BMatP= 1.21D-01
 IDIUse=3 WtCom= 9.77D-01 WtEn= 2.31D-02
 Coeff-Com: -0.104D+00 0.179D+00 0.925D+00
 Coeff-En:   0.000D+00 0.000D+00 0.100D+01
 Coeff:     -0.101D+00 0.175D+00 0.927D+00
 Gap=     0.387 Goal=   None    Shift=    0.000
 Gap=     0.387 Goal=   None    Shift=    0.000
 RMSDP=5.73D-04 MaxDP=8.09D-03 DE=-5.73D-02 OVMax= 7.64D-03

 Cycle   4  Pass 1  IDiag  1:
 E= -148.875588156828     Delta-E=       -0.000731961730 Rises=F Damp=F
 DIIS: error= 1.19D-03 at cycle   4 NSaved=   4.
 NSaved= 4 IEnMin= 4 EnMin= -148.875588156828     IErMin= 4 ErrMin= 1.19D-03
 ErrMax= 1.19D-03  0.00D+00 EMaxC= 1.00D-01 BMatC= 5.15D-04 BMatP= 3.75D-03
 IDIUse=3 WtCom= 9.88D-01 WtEn= 1.19D-02
 Coeff-Com: -0.113D-01-0.108D-02 0.270D+00 0.743D+00
 Coeff-En:   0.000D+00 0.000D+00 0.000D+00 0.100D+01
 Coeff:     -0.112D-01-0.107D-02 0.267D+00 0.746D+00
 Gap=     0.386 Goal=   None    Shift=    0.000
 Gap=     0.386 Goal=   None    Shift=    0.000
 RMSDP=2.04D-04 MaxDP=4.19D-03 DE=-7.32D-04 OVMax= 8.01D-03

 Cycle   5  Pass 1  IDiag  1:
 E= -148.875756690212     Delta-E=       -0.000168533383 Rises=F Damp=F
 DIIS: error= 3.98D-04 at cycle   5 NSaved=   5.
 NSaved= 5 IEnMin= 5 EnMin= -148.875756690212     IErMin= 5 ErrMin= 3.98D-04
 ErrMax= 3.98D-04  0.00D+00 EMaxC= 1.00D-01 BMatC= 8.09D-05 BMatP= 5.15D-04
 IDIUse=3 WtCom= 9.96D-01 WtEn= 3.98D-03
 Coeff-Com:  0.885D-02-0.144D-01-0.119D+00 0.897D-01 0.104D+01
 Coeff-En:   0.000D+00 0.000D+00 0.000D+00 0.000D+00 0.100D+01
 Coeff:      0.882D-02-0.144D-01-0.119D+00 0.894D-01 0.104D+01
 Gap=     0.386 Goal=   None    Shift=    0.000
 Gap=     0.386 Goal=   None    Shift=    0.000
 RMSDP=1.00D-04 MaxDP=2.48D-03 DE=-1.69D-04 OVMax= 1.74D-03

 Cycle   6  Pass 1  IDiag  1:
 E= -148.875791110354     Delta-E=       -0.000034420143 Rises=F Damp=F
 DIIS: error= 1.58D-04 at cycle   6 NSaved=   6.
 NSaved= 6 IEnMin= 6 EnMin= -148.875791110354     IErMin= 6 ErrMin= 1.58D-04
 ErrMax= 1.58D-04  0.00D+00 EMaxC= 1.00D-01 BMatC= 9.96D-06 BMatP= 8.09D-05
 IDIUse=3 WtCom= 9.98D-01 WtEn= 1.58D-03
 Coeff-Com:  0.283D-02-0.210D-02-0.607D-01-0.352D-01 0.971D-01 0.998D+00
 Coeff-En:   0.000D+00 0.000D+00 0.000D+00 0.000D+00 0.000D+00 0.100D+01
 Coeff:      0.283D-02-0.210D-02-0.606D-01-0.351D-01 0.969D-01 0.998D+00
 Gap=     0.386 Goal=   None    Shift=    0.000
 Gap=     0.386 Goal=   None    Shift=    0.000
 RMSDP=4.59D-05 MaxDP=9.13D-04 DE=-3.44D-05 OVMax= 2.07D-03

 Cycle   7  Pass 1  IDiag  1:
 E= -148.875798721151     Delta-E=       -0.000007610797 Rises=F Damp=F
 DIIS: error= 7.66D-05 at cycle   7 NSaved=   7.
 NSaved= 7 IEnMin= 7 EnMin= -148.875798721151     IErMin= 7 ErrMin= 7.66D-05
 ErrMax= 7.66D-05  0.00D+00 EMaxC= 1.00D-01 BMatC= 3.69D-06 BMatP= 9.96D-06
 IDIUse=1 WtCom= 1.00D+00 WtEn= 0.00D+00
 Coeff-Com: -0.191D-02 0.323D-02 0.240D-01 0.364D-02-0.321D+00 0.166D+00
 Coeff-Com:  0.113D+01
 Coeff:     -0.191D-02 0.323D-02 0.240D-01 0.364D-02-0.321D+00 0.166D+00
 Coeff:      0.113D+01
 Gap=     0.386 Goal=   None    Shift=    0.000
 Gap=     0.386 Goal=   None    Shift=    0.000
 RMSDP=3.46D-05 MaxDP=7.03D-04 DE=-7.61D-06 OVMax= 1.16D-03

 Cycle   8  Pass 1  IDiag  1:
 E= -148.875801340455     Delta-E=       -0.000002619304 Rises=F Damp=F
 DIIS: error= 2.42D-05 at cycle   8 NSaved=   8.
 NSaved= 8 IEnMin= 8 EnMin= -148.875801340455     IErMin= 8 ErrMin= 2.42D-05
 ErrMax= 2.42D-05  0.00D+00 EMaxC= 1.00D-01 BMatC= 3.40D-07 BMatP= 3.69D-06
 IDIUse=1 WtCom= 1.00D+00 WtEn= 0.00D+00
 Coeff-Com: -0.405D-03 0.200D-03 0.964D-02 0.160D-01-0.181D-01-0.132D+00
 Coeff-Com: -0.233D+00 0.136D+01
 Coeff:     -0.405D-03 0.200D-03 0.964D-02 0.160D-01-0.181D-01-0.132D+00
 Coeff:     -0.233D+00 0.136D+01
 Gap=     0.387 Goal=   None    Shift=    0.000
 Gap=     0.387 Goal=   None    Shift=    0.000
 RMSDP=1.96D-05 MaxDP=4.18D-04 DE=-2.62D-06 OVMax= 6.32D-04

 Cycle   9  Pass 1  IDiag  1:
 E= -148.875801719082     Delta-E=       -0.000000378627 Rises=F Damp=F
 DIIS: error= 6.67D-06 at cycle   9 NSaved=   9.
 NSaved= 9 IEnMin= 9 EnMin= -148.875801719082     IErMin= 9 ErrMin= 6.67D-06
 ErrMax= 6.67D-06  0.00D+00 EMaxC= 1.00D-01 BMatC= 2.25D-08 BMatP= 3.40D-07
 IDIUse=1 WtCom= 1.00D+00 WtEn= 0.00D+00
 Coeff-Com:  0.291D-03-0.359D-03-0.436D-02-0.386D-02 0.155D-01 0.606D-01
 Coeff-Com: -0.244D-01-0.444D+00 0.140D+01
 Coeff:      0.291D-03-0.359D-03-0.436D-02-0.386D-02 0.155D-01 0.606D-01
 Coeff:     -0.244D-01-0.444D+00 0.140D+01
 Gap=     0.387 Goal=   None    Shift=    0.000
 Gap=     0.387 Goal=   None    Shift=    0.000
 RMSDP=5.93D-06 MaxDP=1.78D-04 DE=-3.79D-07 OVMax= 1.22D-04

 Cycle  10  Pass 1  IDiag  1:
 E= -148.875801738455     Delta-E=       -0.000000019373 Rises=F Damp=F
 DIIS: error= 1.80D-06 at cycle  10 NSaved=  10.
 NSaved=10 IEnMin=10 EnMin= -148.875801738455     IErMin=10 ErrMin= 1.80D-06
 ErrMax= 1.80D-06  0.00D+00 EMaxC= 1.00D-01 BMatC= 1.63D-09 BMatP= 2.25D-08
 IDIUse=1 WtCom= 1.00D+00 WtEn= 0.00D+00
 Coeff-Com: -0.929D-05 0.703D-05 0.509D-03 0.162D-04-0.493D-02 0.193D-02
 Coeff-Com:  0.171D-01 0.725D-02-0.383D+00 0.136D+01
 Coeff:     -0.929D-05 0.703D-05 0.509D-03 0.162D-04-0.493D-02 0.193D-02
 Coeff:      0.171D-01 0.725D-02-0.383D+00 0.136D+01
 Gap=     0.387 Goal=   None    Shift=    0.000
 Gap=     0.387 Goal=   None    Shift=    0.000
 RMSDP=1.33D-06 MaxDP=4.11D-05 DE=-1.94D-08 OVMax= 2.85D-05

 Cycle  11  Pass 1  IDiag  1:
 E= -148.875801739740     Delta-E=       -0.000000001285 Rises=F Damp=F
 DIIS: error= 4.47D-07 at cycle  11 NSaved=  11.
 NSaved=11 IEnMin=11 EnMin= -148.875801739740     IErMin=11 ErrMin= 4.47D-07
 ErrMax= 4.47D-07  0.00D+00 EMaxC= 1.00D-01 BMatC= 7.91D-11 BMatP= 1.63D-09
 IDIUse=1 WtCom= 1.00D+00 WtEn= 0.00D+00
 Coeff-Com: -0.868D-05 0.647D-05 0.175D-03 0.305D-03-0.570D-04-0.352D-02
 Coeff-Com: -0.576D-02 0.321D-01 0.185D-01-0.411D+00 0.137D+01
 Coeff:     -0.868D-05 0.647D-05 0.175D-03 0.305D-03-0.570D-04-0.352D-02
 Coeff:     -0.576D-02 0.321D-01 0.185D-01-0.411D+00 0.137D+01
 Gap=     0.387 Goal=   None    Shift=    0.000
 Gap=     0.387 Goal=   None    Shift=    0.000
 RMSDP=1.38D-07 MaxDP=2.44D-06 DE=-1.29D-09 OVMax= 4.71D-06

 Cycle  12  Pass 1  IDiag  1:
 E= -148.875801739800     Delta-E=       -0.000000000060 Rises=F Damp=F
 DIIS: error= 8.11D-08 at cycle  12 NSaved=  12.
 NSaved=12 IEnMin=12 EnMin= -148.875801739800     IErMin=12 ErrMin= 8.11D-08
 ErrMax= 8.11D-08  0.00D+00 EMaxC= 1.00D-01 BMatC= 3.20D-12 BMatP= 7.91D-11
 IDIUse=1 WtCom= 1.00D+00 WtEn= 0.00D+00
 Coeff-Com:  0.400D-05-0.408D-05-0.745D-04-0.117D-03 0.148D-03 0.151D-02
 Coeff-Com:  0.103D-02-0.119D-01 0.814D-02 0.102D+00-0.543D+00 0.144D+01
 Coeff:      0.400D-05-0.408D-05-0.745D-04-0.117D-03 0.148D-03 0.151D-02
 Coeff:      0.103D-02-0.119D-01 0.814D-02 0.102D+00-0.543D+00 0.144D+01
 Gap=     0.387 Goal=   None    Shift=    0.000
 Gap=     0.387 Goal=   None    Shift=    0.000
 RMSDP=5.95D-08 MaxDP=1.67D-06 DE=-5.97D-11 OVMax= 8.31D-07

 Cycle  13  Pass 1  IDiag  1:
 E= -148.875801739801     Delta-E=       -0.000000000002 Rises=F Damp=F
 DIIS: error= 8.41D-09 at cycle  13 NSaved=  13.
 NSaved=13 IEnMin=13 EnMin= -148.875801739801     IErMin=13 ErrMin= 8.41D-09
 ErrMax= 8.41D-09  0.00D+00 EMaxC= 1.00D-01 BMatC= 4.18D-14 BMatP= 3.20D-12
 IDIUse=1 WtCom= 1.00D+00 WtEn= 0.00D+00
 Coeff-Com: -0.786D-06 0.863D-06 0.146D-04 0.210D-04-0.411D-04-0.269D-03
 Coeff-Com: -0.850D-04 0.205D-02-0.281D-02-0.120D-01 0.889D-01-0.330D+00
 Coeff-Com:  0.125D+01
 Coeff:     -0.786D-06 0.863D-06 0.146D-04 0.210D-04-0.411D-04-0.269D-03
 Coeff:     -0.850D-04 0.205D-02-0.281D-02-0.120D-01 0.889D-01-0.330D+00
 Coeff:      0.125D+01
 Gap=     0.387 Goal=   None    Shift=    0.000
 Gap=     0.387 Goal=   None    Shift=    0.000
 RMSDP=6.70D-09 MaxDP=1.76D-07 DE=-1.65D-12 OVMax= 7.71D-08

 SCF Done:  E(UHF) =  -148.875801740     A.U. after   13 cycles
            NFock= 13  Conv=0.67D-08     -V/T= 2.0056
 <Sx>= 0.0000 <Sy>= 0.0000 <Sz>= 0.0000 <S**2>=-0.0000 S=-0.0000
 <L.S>=  0.00000000000    
 KE= 1.480520953583D+02 PE=-4.942884364717D+02 EE= 1.239779903095D+02
 Annihilation of the first spin contaminant:
 S**2 before annihilation    -0.0000,   after     0.0000
 Leave Link  502 at Tue Jan  3 09:03:41 2023, MaxMem=   536870912 cpu:               1.3 elap:               0.8
 (Enter /opt/software/gaussian/g16.c01/l508.exe)
 QCSCF skips out because SCF is already converged.
 Leave Link  508 at Tue Jan  3 09:03:41 2023, MaxMem=   536870912 cpu:               0.0 elap:               0.0
 (Enter /opt/software/gaussian/g16.c01/l601.exe)
 Copying SCF densities to generalized density rwf, IOpCl= 1 IROHF=0.

 **********************************************************************

            Population analysis using the SCF Density.

 **********************************************************************

 Alpha  occ. eigenvalues --  -15.71448 -15.53906 -11.27475  -1.35590  -1.07126
 Alpha  occ. eigenvalues --   -0.86450  -0.75849  -0.66323  -0.58829  -0.58528
 Alpha  occ. eigenvalues --   -0.43422  -0.29072
 Alpha virt. eigenvalues --    0.09579   0.11344   0.12498   0.17859   0.21727
 Alpha virt. eigenvalues --    0.23205   0.23282   0.24117   0.29387   0.30700
 Alpha virt. eigenvalues --    0.32492   0.32734   0.36654   0.37821   0.40296
 Alpha virt. eigenvalues --    0.40874   0.42573   0.43479   0.45660   0.48340
 Alpha virt. eigenvalues --    0.49704   0.52418   0.54036   0.55988   0.57935
 Alpha virt. eigenvalues --    0.59954   0.61573   0.62891   0.66631   0.69135
 Alpha virt. eigenvalues --    0.74299   0.76698   0.79172   0.81587   0.83128
 Alpha virt. eigenvalues --    0.89264   0.93423   0.96495   1.07375   1.13031
 Alpha virt. eigenvalues --    1.20830   1.25953   1.31605   1.33036   1.33140
 Alpha virt. eigenvalues --    1.42121   1.51635   1.54893   1.63862   1.67899
 Alpha virt. eigenvalues --    1.77764   1.82569   1.85373   1.87394   1.88750
 Alpha virt. eigenvalues --    1.98722   2.03367   2.04696   2.06895   2.19482
 Alpha virt. eigenvalues --    2.21087   2.35018   2.38270   2.48255   2.49606
 Alpha virt. eigenvalues --    2.53256   2.56286   2.61359   2.73839   2.86916
 Alpha virt. eigenvalues --    2.90340   3.05153   3.07821   3.28836   3.36280
 Alpha virt. eigenvalues --    3.42769   3.59880   3.70476   3.88815   4.13640
  Beta  occ. eigenvalues --  -15.71448 -15.53906 -11.27475  -1.35590  -1.07126
  Beta  occ. eigenvalues --   -0.86450  -0.75849  -0.66323  -0.58829  -0.58528
  Beta  occ. eigenvalues --   -0.43422  -0.29072
  Beta virt. eigenvalues --    0.09579   0.11344   0.12498   0.17859   0.21727
  Beta virt. eigenvalues --    0.23205   0.23282   0.24117   0.29387   0.30700
  Beta virt. eigenvalues --    0.32492   0.32734   0.36654   0.37821   0.40296
  Beta virt. eigenvalues --    0.40874   0.42573   0.43479   0.45660   0.48340
  Beta virt. eigenvalues --    0.49704   0.52418   0.54036   0.55988   0.57935
  Beta virt. eigenvalues --    0.59954   0.61573   0.62891   0.66631   0.69135
  Beta virt. eigenvalues --    0.74299   0.76698   0.79172   0.81587   0.83128
  Beta virt. eigenvalues --    0.89264   0.93423   0.96495   1.07375   1.13031
  Beta virt. eigenvalues --    1.20830   1.25953   1.31605   1.33036   1.33140
  Beta virt. eigenvalues --    1.42121   1.51635   1.54893   1.63862   1.67899
  Beta virt. eigenvalues --    1.77764   1.82569   1.85373   1.87394   1.88750
  Beta virt. eigenvalues --    1.98722   2.03367   2.04696   2.06895   2.19482
  Beta virt. eigenvalues --    2.21087   2.35018   2.38270   2.48255   2.49606
  Beta virt. eigenvalues --    2.53256   2.56286   2.61359   2.73839   2.86916
  Beta virt. eigenvalues --    2.90340   3.05153   3.07821   3.28836   3.36280
  Beta virt. eigenvalues --    3.42769   3.59880   3.70476   3.88815   4.13640
          Condensed to atoms (all electrons):
               1          2          3          4          5          6
     1  C    4.229699   0.497494  -0.066959   0.011821   0.374635   0.410011
     2  N    0.497494   6.378473  -0.322239   0.197926   0.010673   0.074658
     3  N   -0.066959  -0.322239   7.578994  -0.027037   0.000427  -0.039819
     4  H    0.011821   0.197926  -0.027037   0.823214  -0.001400   0.005365
     5  H    0.374635   0.010673   0.000427  -0.001400   0.744040  -0.041809
     6  H    0.410011   0.074658  -0.039819   0.005365  -0.041809   0.674388
     7  H   -0.065896   0.240152   0.098395  -0.081779   0.034732  -0.012639
               7
     1  C   -0.065896
     2  N    0.240152
     3  N    0.098395
     4  H   -0.081779
     5  H    0.034732
     6  H   -0.012639
     7  H    0.977763
          Atomic-Atomic Spin Densities.
               1          2          3          4          5          6
     1  C    0.000000   0.000000   0.000000   0.000000   0.000000   0.000000
     2  N    0.000000   0.000000   0.000000   0.000000   0.000000   0.000000
     3  N    0.000000   0.000000   0.000000   0.000000   0.000000   0.000000
     4  H    0.000000   0.000000   0.000000   0.000000   0.000000   0.000000
     5  H    0.000000   0.000000   0.000000   0.000000   0.000000   0.000000
     6  H    0.000000   0.000000   0.000000   0.000000   0.000000   0.000000
     7  H    0.000000   0.000000   0.000000   0.000000   0.000000   0.000000
               7
     1  C    0.000000
     2  N    0.000000
     3  N    0.000000
     4  H    0.000000
     5  H    0.000000
     6  H    0.000000
     7  H    0.000000
 Mulliken charges and spin densities:
               1          2
     1  C    0.609195   0.000000
     2  N   -0.077138   0.000000
     3  N   -0.221763   0.000000
     4  H    0.071889   0.000000
     5  H   -0.121299   0.000000
     6  H   -0.070155   0.000000
     7  H   -0.190729   0.000000
 Sum of Mulliken charges =  -0.00000   0.00000
 Mulliken charges and spin densities with hydrogens summed into heavy atoms:
               1          2
     1  C    0.417741   0.000000
     2  N   -0.267868   0.000000
     3  N   -0.149873   0.000000
 Electronic spatial extent (au):  <R**2>=            600.7679
 Charge=             -0.0000 electrons
 Dipole moment (field-independent basis, Debye):
    X=             -0.2151    Y=              0.9162    Z=              3.4202  Tot=              3.5473
 Quadrupole moment (field-independent basis, Debye-Ang):
   XX=            -16.3060   YY=            -21.6619   ZZ=            -23.3355
   XY=              2.7329   XZ=             10.0448   YZ=             -0.5558
 Traceless Quadrupole moment (field-independent basis, Debye-Ang):
   XX=              4.1285   YY=             -1.2274   ZZ=             -2.9010
   XY=              2.7329   XZ=             10.0448   YZ=             -0.5558
 Octapole moment (field-independent basis, Debye-Ang**2):
  XXX=            -99.1982  YYY=             11.1793  ZZZ=             42.6271  XYY=            -47.0218
  XXY=             10.3753  XXZ=             36.6635  XZZ=            -55.1062  YZZ=              5.5602
  YYZ=             12.3989  XYZ=             -2.5809
 Hexadecapole moment (field-independent basis, Debye-Ang**3):
 XXXX=           -515.9313 YYYY=            -29.4437 ZZZZ=           -116.5778 XXXY=             43.0089
 XXXZ=            150.1422 YYYX=             31.1435 YYYZ=            -12.7031 ZZZX=            122.3487
 ZZZY=            -14.1895 XXYY=           -130.1596 XXZZ=           -162.2880 YYZZ=            -23.8812
 XXYZ=            -10.2462 YYXZ=             36.1267 ZZXY=             15.3333
 N-N= 7.338254906404D+01 E-N=-4.942884366255D+02  KE= 1.480520953583D+02
                          Isotropic Fermi Contact Couplings
        Atom                 a.u.       MegaHertz       Gauss      10(-4) cm-1
     1  C(13)              0.00000       0.00000       0.00000       0.00000
     2  N(14)              0.00000       0.00000       0.00000       0.00000
     3  N(14)              0.00000       0.00000       0.00000       0.00000
     4  H(1)               0.00000       0.00000       0.00000       0.00000
     5  H(1)               0.00000       0.00000       0.00000       0.00000
     6  H(1)               0.00000       0.00000       0.00000       0.00000
     7  H(1)               0.00000       0.00000       0.00000       0.00000
 --------------------------------------------------------
       Center         ----  Spin Dipole Couplings  ----
                      3XX-RR        3YY-RR        3ZZ-RR
 --------------------------------------------------------
     1   Atom        0.000000      0.000000      0.000000
     2   Atom        0.000000      0.000000      0.000000
     3   Atom        0.000000      0.000000      0.000000
     4   Atom        0.000000      0.000000      0.000000
     5   Atom        0.000000      0.000000      0.000000
     6   Atom        0.000000      0.000000      0.000000
     7   Atom        0.000000      0.000000      0.000000
 --------------------------------------------------------
                        XY            XZ            YZ
 --------------------------------------------------------
     1   Atom        0.000000      0.000000      0.000000
     2   Atom        0.000000      0.000000      0.000000
     3   Atom        0.000000      0.000000      0.000000
     4   Atom        0.000000      0.000000      0.000000
     5   Atom        0.000000      0.000000      0.000000
     6   Atom        0.000000      0.000000      0.000000
     7   Atom        0.000000      0.000000      0.000000
 --------------------------------------------------------


 ---------------------------------------------------------------------------------
              Anisotropic Spin Dipole Couplings in Principal Axis System
 ---------------------------------------------------------------------------------

       Atom             a.u.   MegaHertz   Gauss  10(-4) cm-1        Axes

              Baa     0.0000     0.000     0.000     0.000  1.0000  0.0000  0.0000
     1 C(13)  Bbb     0.0000     0.000     0.000     0.000 -0.0000  1.0000  0.0000
              Bcc     0.0000     0.000     0.000     0.000  0.0000  0.0000  1.0000
 
              Baa     0.0000     0.000     0.000     0.000  1.0000  0.0000  0.0000
     2 N(14)  Bbb     0.0000     0.000     0.000     0.000 -0.0000  1.0000  0.0000
              Bcc     0.0000     0.000     0.000     0.000  0.0000  0.0000  1.0000
 
              Baa     0.0000     0.000     0.000     0.000  1.0000  0.0000  0.0000
     3 N(14)  Bbb     0.0000     0.000     0.000     0.000 -0.0000  1.0000  0.0000
              Bcc     0.0000     0.000     0.000     0.000  0.0000  0.0000  1.0000
 
              Baa     0.0000     0.000     0.000     0.000  1.0000  0.0000  0.0000
     4 H(1)   Bbb     0.0000     0.000     0.000     0.000 -0.0000  1.0000  0.0000
              Bcc     0.0000     0.000     0.000     0.000  0.0000  0.0000  1.0000
 
              Baa     0.0000     0.000     0.000     0.000  1.0000  0.0000  0.0000
     5 H(1)   Bbb     0.0000     0.000     0.000     0.000 -0.0000  1.0000  0.0000
              Bcc     0.0000     0.000     0.000     0.000  0.0000  0.0000  1.0000
 
              Baa     0.0000     0.000     0.000     0.000  1.0000  0.0000  0.0000
     6 H(1)   Bbb     0.0000     0.000     0.000     0.000 -0.0000  1.0000  0.0000
              Bcc     0.0000     0.000     0.000     0.000  0.0000  0.0000  1.0000
 
              Baa     0.0000     0.000     0.000     0.000  1.0000  0.0000  0.0000
     7 H(1)   Bbb     0.0000     0.000     0.000     0.000 -0.0000  1.0000  0.0000
              Bcc     0.0000     0.000     0.000     0.000  0.0000  0.0000  1.0000
 

 ---------------------------------------------------------------------------------

 No NMR shielding tensors so no spin-rotation constants.
 Leave Link  601 at Tue Jan  3 09:03:42 2023, MaxMem=   536870912 cpu:               0.3 elap:               0.2
 (Enter /opt/software/gaussian/g16.c01/l801.exe)
 Range of M.O.s used for correlation:     1    92
 NBasis=    92 NAE=    12 NBE=    12 NFC=     0 NFV=     0
 NROrb=     92 NOA=    12 NOB=    12 NVA=    80 NVB=    80

 **** Warning!!: The largest alpha MO coefficient is  0.22479846D+02


 **** Warning!!: The largest beta MO coefficient is  0.22479846D+02

 Leave Link  801 at Tue Jan  3 09:03:42 2023, MaxMem=   536870912 cpu:               0.1 elap:               0.0
 (Enter /opt/software/gaussian/g16.c01/l914.exe)
 UHF ground state
 Doing stability rather than CIS.
 Keep R1 and R2 ints in memory in canonical form, NReq=19169770.
 FoFCou: FMM=F IPFlag=           0 FMFlag=           0 FMFlg1=           0
         NFxFlg=           0 DoJE=F BraDBF=F KetDBF=F FulRan=T
         wScrn=  0.000000 ICntrl=       600 IOpCl=  0 I1Cent=           0 NGrid=           0
         NMat0=    1 NMatS0=   4278 NMatT0=    0 NMatD0=    1 NMtDS0=    0 NMtDT0=    0
 Symmetry not used in FoFCou.
 Two-electron integral symmetry not used.
 MDV=   536870912 DFT=F DoStab=T Mixed=F DoRPA=F DoScal=F NonHer=F
 Making orbital integer symmetry assigments:
    12 initial guesses have been made.
 Convergence on wavefunction:    0.001000000000000
 Davidson Disk Diagonalization:  ConvIn= 1.00D-03 SkipCon=T Conv= 1.00D-03.
 Max sub-space:  2000 roots to seek:    12 dimension of matrix:         1920
 Iteration     1 Dimension    12 NMult     0 NNew     12
 CISAX will form    12 AO SS matrices at one time.
 NMat=    12 NSing=    12 JSym2X= 0.
 Excitation Energies [eV] at current iteration:
 Root      1 :    -1.146022067276186
 Root      2 :     5.010381894897383
 Root      3 :     5.329880902234399
 Root      4 :     5.900846892572325
 Root      5 :     6.510478466751683
 Root      6 :     6.562395372011092
 Root      7 :     7.074869271081234
 Root      8 :     7.171730706920915
 Root      9 :     7.682359298224594
 Root     10 :     7.935674322444752
 Root     11 :     8.820671736857994
 Root     12 :    10.188424744462360
 Iteration     2 Dimension    24 NMult    12 NNew     12
 CISAX will form    12 AO SS matrices at one time.
 NMat=    12 NSing=    12 JSym2X= 0.
 Root      1 not converged, maximum delta is    0.049098761938310
 Excitation Energies [eV] at current iteration:
 Root      1 :    -2.059155981209025   Change is   -0.913133913932839
 Root      2 :     4.569889355601925   Change is   -0.440492539295457
 Root      3 :     5.123119474241950   Change is   -0.777727418330375
 Root      4 :     5.179033259405064   Change is   -0.150847642829336
 Root      5 :     5.580684993014251   Change is   -4.607739751448110
 Root      6 :     6.106721587843344   Change is   -0.403756878908339
 Root      7 :     6.366054439501453   Change is   -0.196340932509638
 Root      8 :     6.532170839500113   Change is   -0.542698431581121
 Root      9 :     6.844975324365646   Change is   -0.326755382555269
 Root     10 :     7.354681662670087   Change is   -0.580992659774665
 Root     11 :     7.392626361393062   Change is   -0.289732936831532
 Root     12 :     8.388831603500714   Change is   -0.431840133357280
 Iteration     3 Dimension    27 NMult    24 NNew      3
 CISAX will form     3 AO SS matrices at one time.
 NMat=     3 NSing=     3 JSym2X= 0.
 Root      1 not converged, maximum delta is    0.022626195467614
 Excitation Energies [eV] at current iteration:
 Root      1 :    -2.121460138216043   Change is   -0.062304157007017
 Root      2 :     4.506173298922486   Change is   -0.063716056679439
 Root      3 :     5.053466155232380   Change is   -0.069653319009569
 Iteration     4 Dimension    30 NMult    27 NNew      3
 CISAX will form     3 AO SS matrices at one time.
 NMat=     3 NSing=     3 JSym2X= 0.
 Root      1 not converged, maximum delta is    0.010626897275432
 Excitation Energies [eV] at current iteration:
 Root      1 :    -2.129247224118550   Change is   -0.007787085902508
 Root      2 :     4.498531491886084   Change is   -0.007641807036403
 Root      3 :     5.047811321222285   Change is   -0.005654834010096
 Iteration     5 Dimension    33 NMult    30 NNew      3
 CISAX will form     3 AO SS matrices at one time.
 NMat=     3 NSing=     3 JSym2X= 0.
 Root      1 not converged, maximum delta is    0.004127343739173
 Excitation Energies [eV] at current iteration:
 Root      1 :    -2.130362358264122   Change is   -0.001115134145572
 Root      2 :     4.497244926468415   Change is   -0.001286565417668
 Root      3 :     5.047284300047891   Change is   -0.000527021174394
 Cease iterating as an instability has been found.
 ***********************************************************************
 Stability analysis using <AA,BB:AA,BB> singles matrix:
 ***********************************************************************
 1PDM for each excited state written to RWF  633
 Ground to excited state transition densities written to RWF  633

 Eigenvectors of the stability matrix:
 
 Excited state symmetry could not be determined.
 Eigenvector   1:  3.000-?Sym  Eigenvalue=-0.0782894  <S**2>=2.000
     12A -> 14A        0.65045
     12A -> 23A       -0.12677
     12A -> 26A       -0.16372
     12B -> 14B       -0.65045
     12B -> 23B        0.12677
     12B -> 26B        0.16372
 
 Excited state symmetry could not be determined.
 Eigenvector   2:  3.000-?Sym  Eigenvalue= 0.1652707  <S**2>=2.000
     11A -> 14A        0.35417
     12A -> 13A        0.52641
     12A -> 15A        0.14099
     12A -> 19A        0.11247
     11B -> 14B       -0.35417
     12B -> 13B       -0.52641
     12B -> 15B       -0.14099
     12B -> 19B       -0.11247
 
 Excited state symmetry could not be determined.
 Eigenvector   3:  3.000-?Sym  Eigenvalue= 0.1854843  <S**2>=2.000
     11A -> 14A        0.48418
     11A -> 26A       -0.11524
     12A -> 13A       -0.26088
     12A -> 15A       -0.30155
     12A -> 16A       -0.17098
     11B -> 14B       -0.48418
     11B -> 26B        0.11524
     12B -> 13B        0.26088
     12B -> 15B        0.30155
     12B -> 16B        0.17098
 The wavefunction has an internal instability.
 Leave Link  914 at Tue Jan  3 09:03:43 2023, MaxMem=   536870912 cpu:               2.0 elap:               1.0
 (Enter /opt/software/gaussian/g16.c01/l508.exe)
 Keep R1 and R2 ints in memory in canonical form, NReq=19169830.
 FoFCou: FMM=F IPFlag=           0 FMFlag=           0 FMFlg1=           0
         NFxFlg=           0 DoJE=F BraDBF=F KetDBF=F FulRan=T
         wScrn=  0.000000 ICntrl=       600 IOpCl=  0 I1Cent=           0 NGrid=           0
         NMat0=    1 NMatS0=   4278 NMatT0=    0 NMatD0=    1 NMtDS0=    0 NMtDT0=    0
 Symmetry not used in FoFCou.
 Two-electron integral symmetry not used.
 Very tight linear equation convergence will be used.
 UHF wavefunction.
 Quadratic Convergence SCF Method.
 Line search only if initial step raises energy.
 Perform preliminary linear searches along instability eigenvector.
     ILin= 1 X=0.000D+00 Y=-1.488758017398D+02 DE= 0.00D+00
     ILin= 2 X=1.000D-01 Y=-1.488765698623D+02 DE=-7.68D-04
     ILin= 3 X=1.414D-01 Y=-1.488773087260D+02 DE=-1.51D-03
     ILin= 4 X=2.000D-01 Y=-1.488786996911D+02 DE=-2.90D-03
     ILin= 5 X=2.828D-01 Y=-1.488811415542D+02 DE=-5.34D-03
     ILin= 6 X=4.000D-01 Y=-1.488847196604D+02 DE=-8.92D-03
     ILin= 7 X=5.657D-01 Y=-1.488870721023D+02 DE=-1.13D-02
     ILin= 8 X=8.000D-01 Y=-1.488756330204D+02 DE= 1.69D-04
     An  expanding polynomial of degree  8 produced  0.5501
 Iteration F X= 5.501D-01 EE=-1.488871059893335D+02
     ILin= 1 X=0.000D+00 Y=-1.488758017398D+02 DE= 0.00D+00
     ILin= 2 X=1.000D-01 Y=-1.488765698722D+02 DE=-7.68D-04
     ILin= 3 X=1.414D-01 Y=-1.488773087539D+02 DE=-1.51D-03
 The two search directions are symmetric.
 Iteration B X= 5.501D-01 EE=-1.488871059893335D+02
 Take forward step, X= 5.501D-01 Step= 5.501D-01
 Iteration   1 EE= -148.887105971462                                    Grad=5.081D-02 Max rot=    0.8104 deg.
 Gradient too large for Newton-Raphson -- use scaled steepest descent instead.
 Alpha Gap=     0.450 HL deriv= 2.02D-07
  Beta Gap=     0.407 HL deriv= 2.39D-07
     ILin= 1 X=0.000D+00 Y=-1.488871059715D+02 DE= 0.00D+00 F= -4.04D-03
     ILin= 2 X=3.000D-01 Y=-1.488881870428D+02 DE=-1.08D-03 F= -3.17D-03 OKLS=F
     ILin= 3 X=6.000D-01 Y=-1.488890092326D+02 DE=-1.90D-03 F= -2.31D-03
     ILin= 4 X=1.200D+00 Y=-1.488898769430D+02 DE=-2.77D-03 F= -5.83D-04
     ILin= 5 X=2.400D+00 Y=-1.488885064493D+02 DE=-1.40D-03 F=  2.87D-03
     An  expanding polynomial of degree  5 produced  1.4028
 Iteration   2 EE= -148.889936081287     Delta-E=       -0.002830109826 Grad=2.632D-02 Max rot=    0.6143 deg.
 Gradient too large for Newton-Raphson -- use scaled steepest descent instead.
 Alpha Gap=     0.446 HL deriv= 1.25D-06
  Beta Gap=     0.406 HL deriv= 8.90D-08
     ILin= 1 X=0.000D+00 Y=-1.488899360813D+02 DE= 0.00D+00 F= -1.35D-03
     ILin= 2 X=6.000D-01 Y=-1.488904914041D+02 DE=-5.55D-04 F= -5.02D-04 OKLS=F
     ILin= 3 X=1.300D+00 Y=-1.488904969175D+02 DE=-5.61D-04 F=  4.86D-04
     Accept linear search using points  2 and  3.
     An  expanding polynomial of degree  3 produced  0.9531
 Iteration   3 EE= -148.890580677983     Delta-E=       -0.000644596696 Grad=2.055D-02 Max rot=    0.2872 deg.
 Gradient too large for Newton-Raphson -- use scaled steepest descent instead.
 Alpha Gap=     0.455 HL deriv= 7.25D-07
  Beta Gap=     0.408 HL deriv= 4.37D-08
     ILin= 1 X=0.000D+00 Y=-1.488905806780D+02 DE= 0.00D+00 F= -6.47D-04
     ILin= 2 X=1.200D+00 Y=-1.488909901002D+02 DE=-4.09D-04 F= -3.54D-05 OKLS=T
     Reject lnstep IMin12=  1  2 Big=T Turn=F Min= 1.239D+00 FVal=-1.488909906816D+02 Lims=  0.00D+00  1.20D+00
     ILin= 3 X=2.300D+00 Y=-1.488907206804D+02 DE=-1.40D-04 F=  5.25D-04
     An  expanding polynomial of degree  3 produced  1.2694
     Minimum is close to point  2 DX=  6.94D-02 DF= -1.23D-06 DXR=  5.47D-02 DFR=  3.00D-03 which will be used.
 Iteration   4 EE= -148.890990100240     Delta-E=       -0.000409422257 Grad=1.555D-02 Max rot=    0.3875 deg.
 Gradient too large for Newton-Raphson -- use scaled steepest descent instead.
 Alpha Gap=     0.454 HL deriv= 3.28D-07
  Beta Gap=     0.408 HL deriv= 4.81D-09
     ILin= 1 X=0.000D+00 Y=-1.488909901002D+02 DE= 0.00D+00 F= -5.31D-04
     ILin= 2 X=1.100D+00 Y=-1.488912694336D+02 DE=-2.79D-04 F=  2.27D-05 OKLS=T
     Accept linear search using points  1 and  2.
     An  expanding polynomial of degree  2 produced  1.0647
     Minimum is close to point  2 DX= -3.53D-02 DF= -3.63D-07 DXR=  3.31D-02 DFR=  1.30D-03 which will be used.
 Iteration   5 EE= -148.891269433567     Delta-E=       -0.000279333328 Grad=1.618D-02 Max rot=    0.1866 deg.
 Gradient too large for Newton-Raphson -- use scaled steepest descent instead.
 Alpha Gap=     0.461 HL deriv= 2.23D-07
  Beta Gap=     0.409 HL deriv= 7.29D-08
     ILin= 1 X=0.000D+00 Y=-1.488912694336D+02 DE= 0.00D+00 F= -3.77D-04
     ILin= 2 X=1.200D+00 Y=-1.488914614549D+02 DE=-1.92D-04 F=  5.71D-05 OKLS=T
     Accept linear search using points  1 and  2.
     An  expanding polynomial of degree  2 produced  1.0894
 Iteration   6 EE= -148.891465553438     Delta-E=       -0.000196119871 Grad=1.097D-02 Max rot=    0.2729 deg.
 Gradient too large for Newton-Raphson -- use scaled steepest descent instead.
 Alpha Gap=     0.460 HL deriv= 1.10D-07
  Beta Gap=     0.409 HL deriv= 8.97D-09
     ILin= 1 X=0.000D+00 Y=-1.488914655534D+02 DE= 0.00D+00 F= -2.61D-04
     ILin= 2 X=1.100D+00 Y=-1.488916020467D+02 DE=-1.36D-04 F=  1.31D-05 OKLS=T
     Accept linear search using points  1 and  2.
     An  expanding polynomial of degree  2 produced  1.0586
     Minimum is close to point  2 DX= -4.14D-02 DF= -2.46D-07 DXR=  3.91D-02 DFR=  1.80D-03 which will be used.
 Iteration   7 EE= -148.891602046734     Delta-E=       -0.000136493296 Grad=1.134D-02 Max rot=    0.1271 deg.
 Gradient too large for Newton-Raphson -- use scaled steepest descent instead.
 Alpha Gap=     0.464 HL deriv= 8.76D-08
  Beta Gap=     0.409 HL deriv= 4.80D-08
     ILin= 1 X=0.000D+00 Y=-1.488916020467D+02 DE= 0.00D+00 F= -1.84D-04
     ILin= 2 X=1.100D+00 Y=-1.488916966007D+02 DE=-9.46D-05 F=  1.21D-05 OKLS=T
     Accept linear search using points  1 and  2.
     An  expanding polynomial of degree  2 produced  1.0462
     Minimum is close to point  2 DX= -5.38D-02 DF= -2.95D-07 DXR=  5.15D-02 DFR=  3.12D-03 which will be used.
 Iteration   8 EE= -148.891696600743     Delta-E=       -0.000094554009 Grad=7.782D-03 Max rot=    0.1958 deg.
 QCNR:  CnvC1=4.38D-10 CnvC2=4.38D-09
 LinEq1:  Iter=  0 NonCon=     1 RMS=2.32D-04 Max=7.89D-03 NDo=     1
 AX will form     1 AO Fock derivatives at one time.
 LinEq1:  Iter=  1 NonCon=     1 RMS=1.34D-04 Max=1.74D-03 NDo=     1
 LinEq1:  Iter=  2 NonCon=     1 RMS=7.66D-06 Max=1.36D-04 NDo=     1
 LinEq1:  Iter=  3 NonCon=     1 RMS=2.02D-06 Max=3.88D-05 NDo=     1
 LinEq1:  Iter=  4 NonCon=     1 RMS=1.12D-06 Max=2.34D-05 NDo=     1
 LinEq1:  Iter=  5 NonCon=     1 RMS=2.27D-07 Max=2.81D-06 NDo=     1
 LinEq1:  Iter=  6 NonCon=     1 RMS=6.78D-08 Max=6.80D-07 NDo=     1
 LinEq1:  Iter=  7 NonCon=     1 RMS=2.39D-08 Max=2.76D-07 NDo=     1
 LinEq1:  Iter=  8 NonCon=     1 RMS=6.16D-09 Max=7.60D-08 NDo=     1
 LinEq1:  Iter=  9 NonCon=     1 RMS=1.64D-09 Max=1.39D-08 NDo=     1
 LinEq1:  Iter= 10 NonCon=     0 RMS=3.54D-10 Max=2.96D-09 NDo=     1
 Linear equations converged to 4.382D-10 4.382D-09 after    10 iterations.
 Angle between quadratic step and gradient=  53.34 degrees.
     ILin= 1 X=0.000D+00 Y=-1.488916966007D+02 DE= 0.00D+00 F= -4.23D-04
     ILin= 2 X=1.000D+00 Y=-1.488919022160D+02 DE=-2.06D-04 F=  1.86D-05 OKLS=T
     Accept linear search using points  1 and  2.
     An  expanding polynomial of degree  2 produced  0.9596
     Minimum is close to point  2 DX= -4.04D-02 DF= -3.76D-07 DXR=  4.21D-02 DFR=  1.83D-03 which will be used.
 Iteration   9 EE= -148.891902215978     Delta-E=       -0.000205615234 Grad=3.866D-04 Max rot=    0.0092 deg.
 QCNR:  CnvC1=4.38D-10 CnvC2=4.38D-09
 LinEq1:  Iter=  0 NonCon=     1 RMS=1.17D-05 Max=3.09D-04 NDo=     1
 LinEq1:  Iter=  1 NonCon=     1 RMS=3.58D-06 Max=1.02D-04 NDo=     1
 LinEq1:  Iter=  2 NonCon=     1 RMS=1.51D-06 Max=2.37D-05 NDo=     1
 LinEq1:  Iter=  3 NonCon=     1 RMS=3.90D-07 Max=8.73D-06 NDo=     1
 LinEq1:  Iter=  4 NonCon=     1 RMS=1.66D-07 Max=3.50D-06 NDo=     1
 LinEq1:  Iter=  5 NonCon=     1 RMS=6.81D-08 Max=6.30D-07 NDo=     1
 LinEq1:  Iter=  6 NonCon=     1 RMS=2.53D-08 Max=3.00D-07 NDo=     1
 LinEq1:  Iter=  7 NonCon=     1 RMS=8.42D-09 Max=1.19D-07 NDo=     1
 LinEq1:  Iter=  8 NonCon=     1 RMS=2.79D-09 Max=2.26D-08 NDo=     1
 LinEq1:  Iter=  9 NonCon=     1 RMS=6.37D-10 Max=6.28D-09 NDo=     1
 LinEq1:  Iter= 10 NonCon=     0 RMS=1.36D-10 Max=1.34D-09 NDo=     1
 Linear equations converged to 4.382D-10 4.382D-09 after    10 iterations.
 Angle between quadratic step and gradient=  44.17 degrees.
     ILin= 1 X=0.000D+00 Y=-1.488919022160D+02 DE= 0.00D+00 F= -1.17D-06
     ILin= 2 X=1.000D+00 Y=-1.488919028009D+02 DE=-5.85D-07 F= -4.40D-09 OKLS=T
     Reject lnstep IMin12=  1  2 Big=T Turn=F Min= 1.004D+00 FVal=-1.488919028009D+02 Lims=  0.00D+00  1.00D+00
     ILin= 3 X=2.000D+00 Y=-1.488919022277D+02 DE=-1.17D-08 F=  1.15D-06
     An  expanding polynomial of degree  3 produced  1.0051
     Minimum is close to point  2 DX=  5.06D-03 DF= -1.49D-11 DXR=  5.04D-03 DFR=  2.54D-05 which will be used.
 Iteration  10 EE= -148.891902800899     Delta-E=       -0.000000584921 Grad=1.299D-06 Max rot=    0.0000 deg.
 QCNR:  CnvC1=1.30D-11 CnvC2=1.30D-10
 LinEq1:  Iter=  0 NonCon=     1 RMS=4.57D-08 Max=1.26D-06 NDo=     1
 LinEq1:  Iter=  1 NonCon=     1 RMS=8.44D-09 Max=1.63D-07 NDo=     1
 LinEq1:  Iter=  2 NonCon=     1 RMS=2.98D-09 Max=6.49D-08 NDo=     1
 LinEq1:  Iter=  3 NonCon=     1 RMS=1.17D-09 Max=1.86D-08 NDo=     1
 LinEq1:  Iter=  4 NonCon=     1 RMS=5.15D-10 Max=8.16D-09 NDo=     1
 LinEq1:  Iter=  5 NonCon=     1 RMS=1.74D-10 Max=1.75D-09 NDo=     1
 LinEq1:  Iter=  6 NonCon=     1 RMS=6.40D-11 Max=8.10D-10 NDo=     1
 LinEq1:  Iter=  7 NonCon=     1 RMS=2.18D-11 Max=2.40D-10 NDo=     1
 LinEq1:  Iter=  8 NonCon=     0 RMS=8.64D-12 Max=7.59D-11 NDo=     1
 Linear equations converged to 1.299D-11 1.299D-10 after     8 iterations.
 Angle between quadratic step and gradient=  37.33 degrees.
     ILin= 1 X=0.000D+00 Y=-1.488919028009D+02 DE= 0.00D+00 F= -1.76D-11
     ILin= 2 X=1.000D+00 Y=-1.488919028009D+02 DE=-8.64D-12
 Iteration  11 EE= -148.891902800908     Delta-E=       -0.000000000009 Grad=1.432D-08 Max rot=    0.0000 deg.
 Rotation gradient small -- convergence achieved.
 SCF Done:  E(UHF) =  -148.891902801     a.u. after   11 cycles
            Convg  =    0.1432D-07                    57 Fock formations.
              S**2 =  0.6474                  -V/T =  2.0041
 <Sx>= 0.0000 <Sy>= 0.0000 <Sz>= 0.0000 <S**2>= 0.6474 S= 0.4473
 <L.S>=  0.00000000000    
 Annihilation of the first spin contaminant:
 S**2 before annihilation     0.6474,   after     0.0655
 Leave Link  508 at Tue Jan  3 09:03:45 2023, MaxMem=   536870912 cpu:               2.9 elap:               2.3
 (Enter /opt/software/gaussian/g16.c01/l801.exe)
 Range of M.O.s used for correlation:     1    92
 NBasis=    92 NAE=    12 NBE=    12 NFC=     0 NFV=     0
 NROrb=     92 NOA=    12 NOB=    12 NVA=    80 NVB=    80

 **** Warning!!: The largest alpha MO coefficient is  0.21403153D+02


 **** Warning!!: The largest beta MO coefficient is  0.21932260D+02

 Leave Link  801 at Tue Jan  3 09:03:45 2023, MaxMem=   536870912 cpu:               0.1 elap:               0.0
 (Enter /opt/software/gaussian/g16.c01/l914.exe)
 UHF ground state
 Doing stability rather than CIS.
 Keep R1 and R2 ints in memory in canonical form, NReq=19169770.
 FoFCou: FMM=F IPFlag=           0 FMFlag=           0 FMFlg1=           0
         NFxFlg=           0 DoJE=F BraDBF=F KetDBF=F FulRan=T
         wScrn=  0.000000 ICntrl=       600 IOpCl=  0 I1Cent=           0 NGrid=           0
         NMat0=    1 NMatS0=   4278 NMatT0=    0 NMatD0=    1 NMtDS0=    0 NMtDT0=    0
 Symmetry not used in FoFCou.
 Two-electron integral symmetry not used.
 MDV=   536870912 DFT=F DoStab=T Mixed=F DoRPA=F DoScal=F NonHer=F
 Making orbital integer symmetry assigments:
    12 initial guesses have been made.
 Convergence on wavefunction:    0.001000000000000
 Davidson Disk Diagonalization:  ConvIn= 1.00D-03 SkipCon=T Conv= 1.00D-03.
 Max sub-space:  2000 roots to seek:    12 dimension of matrix:         1920
 Iteration     1 Dimension    12 NMult     0 NNew     12
 CISAX will form    12 AO SS matrices at one time.
 NMat=    12 NSing=    12 JSym2X= 0.
 Excitation Energies [eV] at current iteration:
 Root      1 :     4.686660869657466
 Root      2 :     5.264825753885914
 Root      3 :     5.631200081413319
 Root      4 :     6.537539490488917
 Root      5 :     6.671892707069406
 Root      6 :     7.824009688724100
 Root      7 :     8.355056921470318
 Root      8 :     8.443994071457590
 Root      9 :     8.524424321610784
 Root     10 :     8.624717588903742
 Root     11 :     9.446709117373073
 Root     12 :    10.530702960160751
 Iteration     2 Dimension    24 NMult    12 NNew     12
 CISAX will form    12 AO SS matrices at one time.
 NMat=    12 NSing=    12 JSym2X= 0.
 Root      1 not converged, maximum delta is    0.216535475451077
 Excitation Energies [eV] at current iteration:
 Root      1 :     3.380338364375423   Change is   -1.306322505282043
 Root      2 :     4.426409216452192   Change is   -0.838416537433722
 Root      3 :     5.270438994383886   Change is   -0.360761087029432
 Root      4 :     5.818135195527575   Change is   -2.625858875930015
 Root      5 :     6.184681793210027   Change is   -0.352857697278890
 Root      6 :     6.249866070078241   Change is   -0.422026636991165
 Root      7 :     7.440217138973430   Change is   -0.383792549750671
 Root      8 :     7.820504526839452   Change is   -0.534552394630866
 Root      9 :     8.000794377007944   Change is   -0.523629944602840
 Root     10 :     8.342556771624782   Change is   -1.104152345748291
 Root     11 :     8.364725248327215   Change is   -0.259992340576527
 Root     12 :     9.914555097345101   Change is   -0.616147862815650
 Iteration     3 Dimension    27 NMult    24 NNew      3
 CISAX will form     3 AO SS matrices at one time.
 NMat=     3 NSing=     3 JSym2X= 0.
 Root      1 not converged, maximum delta is    0.146104341835607
 Excitation Energies [eV] at current iteration:
 Root      1 :     2.904130554351479   Change is   -0.476207810023944
 Root      2 :     4.319522694006050   Change is   -0.106886522446141
 Root      3 :     5.241101574930002   Change is   -0.029337419453884
 Iteration     4 Dimension    30 NMult    27 NNew      3
 CISAX will form     3 AO SS matrices at one time.
 NMat=     3 NSing=     3 JSym2X= 0.
 Root      1 not converged, maximum delta is    0.085819385645698
 Excitation Energies [eV] at current iteration:
 Root      1 :     2.769888685739534   Change is   -0.134241868611945
 Root      2 :     4.302384518198113   Change is   -0.017138175807937
 Root      3 :     5.197510284651155
 Iteration     5 Dimension    33 NMult    30 NNew      3
 CISAX will form     3 AO SS matrices at one time.
 NMat=     3 NSing=     3 JSym2X= 0.
 Root      1 not converged, maximum delta is    0.031278350739750
 Excitation Energies [eV] at current iteration:
 Root      1 :     2.744683750657949   Change is   -0.025204935081585
 Root      2 :     4.300621763001981   Change is   -0.001762755196132
 Root      3 :     4.625471568064511   Change is   -0.572038716586644
 Iteration     6 Dimension    36 NMult    33 NNew      3
 CISAX will form     3 AO SS matrices at one time.
 NMat=     3 NSing=     3 JSym2X= 0.
 Root      1 not converged, maximum delta is    0.006559260939098
 Excitation Energies [eV] at current iteration:
 Root      1 :     2.740572922333135   Change is   -0.004110828324815
 Root      2 :     4.300415720267681   Change is   -0.000206042734300
 Root      3 :     4.528570582615491   Change is   -0.096900985449019
 Iteration     7 Dimension    39 NMult    36 NNew      3
 CISAX will form     3 AO SS matrices at one time.
 NMat=     3 NSing=     3 JSym2X= 0.
 Root      1 not converged, maximum delta is    0.001905211214921
 Excitation Energies [eV] at current iteration:
 Root      1 :     2.739898043056465   Change is   -0.000674879276670
 Root      2 :     4.300389783459361   Change is   -0.000025936808320
 Root      3 :     4.506417406323539   Change is   -0.022153176291952
 Iteration     8 Dimension    42 NMult    39 NNew      3
 CISAX will form     3 AO SS matrices at one time.
 NMat=     3 NSing=     3 JSym2X= 0.
 Root      1 not converged, maximum delta is    0.001070853366973
 Excitation Energies [eV] at current iteration:
 Root      1 :     2.739758712772628   Change is   -0.000139330283837
 Root      2 :     4.300386761755607   Change is   -0.000003021703754
 Root      3 :     4.498653919023003   Change is   -0.007763487300536
 Iteration     9 Dimension    45 NMult    42 NNew      3
 CISAX will form     3 AO SS matrices at one time.
 NMat=     3 NSing=     3 JSym2X= 0.
 Root      1 has converged.
 Excitation Energies [eV] at current iteration:
 Root      1 :     2.739744276676674   Change is   -0.000014436095954
 Root      2 :     4.300386456006893   Change is   -0.000000305748713
 Root      3 :     4.497531890368071   Change is   -0.001122028654932
 Convergence achieved on expansion vectors.
 ***********************************************************************
 Stability analysis using <AA,BB:AA,BB> singles matrix:
 ***********************************************************************
 1PDM for each excited state written to RWF  633
 Ground to excited state transition densities written to RWF  633

 Eigenvectors of the stability matrix:
 
 Excited state symmetry could not be determined.
 Eigenvector   1:  2.009-?Sym  Eigenvalue= 0.1006837  <S**2>=0.759
     12A -> 15A       -0.14188
     10B -> 15B        0.26873
     10B -> 26B       -0.10629
     12B -> 15B        0.85505
     12B -> 23B       -0.10434
     12B -> 26B       -0.19746
 The wavefunction is stable under the perturbations considered.
 Leave Link  914 at Tue Jan  3 09:03:47 2023, MaxMem=   536870912 cpu:               2.5 elap:               1.3
 (Enter /opt/software/gaussian/g16.c01/l508.exe)
 The wavefunction is already stable.
 Leave Link  508 at Tue Jan  3 09:03:47 2023, MaxMem=   536870912 cpu:               0.0 elap:               0.0
 (Enter /opt/software/gaussian/g16.c01/l601.exe)
 Copying SCF densities to generalized density rwf, IOpCl= 1 IROHF=0.

 **********************************************************************

            Population analysis using the SCF Density.

 **********************************************************************

 Alpha  occ. eigenvalues --  -15.66112 -15.57346 -11.24086  -1.35242  -1.07449
 Alpha  occ. eigenvalues --   -0.83623  -0.75413  -0.65214  -0.61587  -0.56954
 Alpha  occ. eigenvalues --   -0.46290  -0.35795
 Alpha virt. eigenvalues --    0.10266   0.13050   0.14871   0.17526   0.22310
 Alpha virt. eigenvalues --    0.23775   0.23898   0.24897   0.29407   0.30535
 Alpha virt. eigenvalues --    0.32087   0.34354   0.37075   0.38782   0.40442
 Alpha virt. eigenvalues --    0.41655   0.43147   0.43886   0.46685   0.48556
 Alpha virt. eigenvalues --    0.49837   0.53608   0.54776   0.56029   0.58555
 Alpha virt. eigenvalues --    0.59313   0.60461   0.63855   0.67016   0.69626
 Alpha virt. eigenvalues --    0.74696   0.77337   0.78723   0.81406   0.82660
 Alpha virt. eigenvalues --    0.89486   0.93203   1.01370   1.08802   1.14008
 Alpha virt. eigenvalues --    1.22265   1.26910   1.31110   1.32021   1.34652
 Alpha virt. eigenvalues --    1.40846   1.48762   1.55267   1.64420   1.70382
 Alpha virt. eigenvalues --    1.78461   1.83197   1.86221   1.88583   1.89412
 Alpha virt. eigenvalues --    1.99669   2.01686   2.06027   2.07799   2.20953
 Alpha virt. eigenvalues --    2.21111   2.37340   2.40141   2.48275   2.50259
 Alpha virt. eigenvalues --    2.53716   2.56373   2.63559   2.75448   2.84801
 Alpha virt. eigenvalues --    2.90574   3.04832   3.08042   3.27737   3.38219
 Alpha virt. eigenvalues --    3.43871   3.61155   3.68763   3.89772   4.14059
  Beta  occ. eigenvalues --  -15.65457 -15.54924 -11.26121  -1.33011  -1.05297
  Beta  occ. eigenvalues --   -0.84805  -0.75371  -0.65181  -0.57610  -0.56574
  Beta  occ. eigenvalues --   -0.43255  -0.30078
  Beta virt. eigenvalues --    0.10116   0.12984   0.15544   0.17750   0.22087
  Beta virt. eigenvalues --    0.23555   0.23708   0.24392   0.29336   0.30532
  Beta virt. eigenvalues --    0.32286   0.32328   0.36575   0.38708   0.40481
  Beta virt. eigenvalues --    0.41613   0.42782   0.43668   0.45995   0.48470
  Beta virt. eigenvalues --    0.50318   0.52543   0.54393   0.56138   0.58079
  Beta virt. eigenvalues --    0.60615   0.61540   0.63169   0.66559   0.69667
  Beta virt. eigenvalues --    0.74553   0.77402   0.78810   0.81886   0.84839
  Beta virt. eigenvalues --    0.89687   0.93552   0.93903   1.08452   1.13643
  Beta virt. eigenvalues --    1.20907   1.26434   1.31347   1.34282   1.35568
  Beta virt. eigenvalues --    1.41757   1.53837   1.55065   1.64302   1.67711
  Beta virt. eigenvalues --    1.79319   1.83135   1.86673   1.88091   1.89165
  Beta virt. eigenvalues --    1.99450   2.03019   2.06125   2.07754   2.20540
  Beta virt. eigenvalues --    2.20991   2.36076   2.39245   2.49419   2.51122
  Beta virt. eigenvalues --    2.53583   2.56764   2.61284   2.75458   2.88058
  Beta virt. eigenvalues --    2.91713   3.05732   3.09688   3.31116   3.37780
  Beta virt. eigenvalues --    3.43828   3.61424   3.70880   3.90471   4.14573
          Condensed to atoms (all electrons):
               1          2          3          4          5          6
     1  C    4.429302   0.362232  -0.061499   0.013059   0.359760   0.407157
     2  N    0.362232   6.579778  -0.328678   0.182378   0.003733   0.072221
     3  N   -0.061499  -0.328678   7.521275  -0.035634   0.002280  -0.037365
     4  H    0.013059   0.182378  -0.035634   0.811588  -0.001640   0.005557
     5  H    0.359760   0.003733   0.002280  -0.001640   0.753987  -0.043379
     6  H    0.407157   0.072221  -0.037365   0.005557  -0.043379   0.686269
     7  H   -0.086420   0.257521   0.083877  -0.089843   0.034199  -0.013858
               7
     1  C   -0.086420
     2  N    0.257521
     3  N    0.083877
     4  H   -0.089843
     5  H    0.034199
     6  H   -0.013858
     7  H    1.046484
          Atomic-Atomic Spin Densities.
               1          2          3          4          5          6
     1  C   -1.038293   0.073458   0.010875  -0.000410  -0.048843  -0.035862
     2  N    0.073458   0.233734  -0.187481  -0.025042   0.022352   0.028708
     3  N    0.010875  -0.187481   0.902299   0.047661   0.001186  -0.001210
     4  H   -0.000410  -0.025042   0.047661  -0.051121  -0.000855  -0.000214
     5  H   -0.048843   0.022352   0.001186  -0.000855   0.134323  -0.004602
     6  H   -0.035862   0.028708  -0.001210  -0.000214  -0.004602   0.105278
     7  H    0.002323   0.012783  -0.007181  -0.000613   0.001013  -0.007407
               7
     1  C    0.002323
     2  N    0.012783
     3  N   -0.007181
     4  H   -0.000613
     5  H    0.001013
     6  H   -0.007407
     7  H   -0.047498
 Mulliken charges and spin densities:
               1          2
     1  C    0.576408  -1.036752
     2  N   -0.129185   0.158512
     3  N   -0.144256   0.766149
     4  H    0.114534  -0.030593
     5  H   -0.108939   0.104574
     6  H   -0.076601   0.084691
     7  H   -0.231960  -0.046580
 Sum of Mulliken charges =   0.00000   0.00000
 Mulliken charges and spin densities with hydrogens summed into heavy atoms:
               1          2
     1  C    0.390867  -0.847488
     2  N   -0.361145   0.111932
     3  N   -0.029722   0.735556
 Electronic spatial extent (au):  <R**2>=            597.4803
 Charge=              0.0000 electrons
 Dipole moment (field-independent basis, Debye):
    X=              0.4605    Y=              0.7459    Z=              2.7704  Tot=              2.9058
 Quadrupole moment (field-independent basis, Debye-Ang):
   XX=            -13.2771   YY=            -21.2009   ZZ=            -22.4034
   XY=              2.0924   XZ=              7.6896   YZ=             -0.4090
 Traceless Quadrupole moment (field-independent basis, Debye-Ang):
   XX=              5.6834   YY=             -2.2404   ZZ=             -3.4429
   XY=              2.0924   XZ=              7.6896   YZ=             -0.4090
 Octapole moment (field-independent basis, Debye-Ang**2):
  XXX=            -86.1148  YYY=             10.5760  ZZZ=             40.8717  XYY=            -45.2928
  XXY=              8.1686  XXZ=             28.6215  XZZ=            -51.8811  YZZ=              5.4709
  YYZ=             11.6896  XYZ=             -2.1014
 Hexadecapole moment (field-independent basis, Debye-Ang**3):
 XXXX=           -460.2496 YYYY=            -27.9846 ZZZZ=           -113.4490 XXXY=             35.2636
 XXXZ=            122.1404 YYYX=             28.9578 YYYZ=            -11.9937 ZZZX=            116.5515
 ZZZY=            -14.3473 XXYY=           -124.2660 XXZZ=           -151.8679 YYZZ=            -22.7865
 XXYZ=             -8.7619 YYXZ=             33.6048 ZZXY=             15.1447
 N-N= 7.338254906404D+01 E-N=-4.947023260754D+02  KE= 1.482813836341D+02
                          Isotropic Fermi Contact Couplings
        Atom                 a.u.       MegaHertz       Gauss      10(-4) cm-1
     1  C(13)             -0.24036    -135.10641     -48.20933     -45.06665
     2  N(14)              0.09922      16.02901       5.71955       5.34670
     3  N(14)              0.34069      55.03915      19.63934      18.35908
     4  H(1)              -0.01584     -35.39100     -12.62839     -11.80517
     5  H(1)               0.02210      49.39529      17.62547      16.47649
     6  H(1)               0.02203      49.23722      17.56906      16.42377
     7  H(1)              -0.00541     -12.10119      -4.31801      -4.03652
 --------------------------------------------------------
       Center         ----  Spin Dipole Couplings  ----
                      3XX-RR        3YY-RR        3ZZ-RR
 --------------------------------------------------------
     1   Atom        0.461923     -0.790956      0.329032
     2   Atom       -0.194478      0.332306     -0.137829
     3   Atom       -0.734782      1.374729     -0.639947
     4   Atom        0.077558     -0.017677     -0.059882
     5   Atom        0.051440     -0.007018     -0.044422
     6   Atom        0.040052     -0.006313     -0.033739
     7   Atom       -0.023657     -0.001731      0.025388
 --------------------------------------------------------
                        XY            XZ            YZ
 --------------------------------------------------------
     1   Atom        0.005362     -0.009452      0.323699
     2   Atom       -0.001710      0.005905     -0.135885
     3   Atom       -0.005527      0.028953     -0.582260
     4   Atom        0.012597      0.044940     -0.011896
     5   Atom        0.009907      0.035715     -0.010565
     6   Atom       -0.013808     -0.052429     -0.008288
     7   Atom        0.002703      0.010506      0.007912
 --------------------------------------------------------


 ---------------------------------------------------------------------------------
              Anisotropic Spin Dipole Couplings in Principal Axis System
 ---------------------------------------------------------------------------------

       Atom             a.u.   MegaHertz   Gauss  10(-4) cm-1        Axes

              Baa    -0.8778  -117.796   -42.032   -39.292 -0.0057  0.9658 -0.2591
     1 C(13)  Bbb     0.4146    55.634    19.852    18.558  0.1612  0.2566  0.9530
              Bcc     0.4632    62.161    22.181    20.735  0.9869 -0.0364 -0.1572
 
              Baa    -0.1958    -7.551    -2.694    -2.519  0.9713 -0.0563 -0.2309
     2 N(14)  Bbb    -0.1730    -6.672    -2.381    -2.225  0.2376  0.2530  0.9378
              Bcc     0.3688    14.223     5.075     4.744 -0.0056  0.9658 -0.2591
 
              Baa    -0.8060   -31.086   -11.092   -10.369 -0.3494  0.2409  0.9055
     3 N(14)  Bbb    -0.7250   -27.960    -9.977    -9.327  0.9370  0.0957  0.3361
              Bcc     1.5310    59.046    21.069    19.696 -0.0057  0.9658 -0.2591
 
              Baa    -0.0771   -41.130   -14.676   -13.719 -0.2889  0.2465  0.9251
     4 H(1)   Bbb    -0.0146    -7.768    -2.772    -2.591 -0.0057  0.9658 -0.2591
              Bcc     0.0916    48.898    17.448    16.311  0.9573  0.0801  0.2776
 
              Baa    -0.0596   -31.785   -11.342   -10.602 -0.3167  0.2440  0.9166
     5 H(1)   Bbb    -0.0042    -2.264    -0.808    -0.755 -0.0057  0.9659 -0.2590
              Bcc     0.0638    34.049    12.149    11.357  0.9485  0.0873  0.3045
 
              Baa    -0.0642   -34.272   -12.229   -11.432  0.4613  0.2325  0.8563
     6 H(1)   Bbb    -0.0040    -2.138    -0.763    -0.713 -0.0057  0.9658 -0.2592
              Bcc     0.0682    36.410    12.992    12.145  0.8872 -0.1147 -0.4468
 
              Baa    -0.0259   -13.798    -4.924    -4.603  0.9800 -0.0463 -0.1937
     7 H(1)   Bbb    -0.0039    -2.065    -0.737    -0.689 -0.0056  0.9658 -0.2592
              Bcc     0.0297    15.863     5.660     5.291  0.1991  0.2551  0.9462
 

 ---------------------------------------------------------------------------------

 No NMR shielding tensors so no spin-rotation constants.
 Leave Link  601 at Tue Jan  3 09:03:47 2023, MaxMem=   536870912 cpu:               0.4 elap:               0.2
 (Enter /opt/software/gaussian/g16.c01/l9999.exe)

 Test job not archived.
 1\1\GINC-GRA738\Stability\UHF\Gen\C1H4N2\BHAVUK\03-Jan-2023\0\\#p uhf/
 gen stable=opt scf=(maxcycle=900,verytightlineq,xqc) integral=grid=ult
 rafine symmetry=None density=current iop(99/18=-1) output=wfn\\0001_q0
 00_m01_k00_opt_uwb97xd_def2svpd/0001_q000_m01_k00_force_uhf_def2svpd s
 table-force\\0,1\C,0,1.0726168695,-0.0701991232,-0.153012633\N,0,2.377
 9437514,-0.0897456927,-0.2543854931\N,0,3.0833554789,-0.3684697824,-1.
 3087287982\H,0,4.0640493508,-0.2926697434,-1.0476368317\H,0,0.63996287
 31,0.1851542916,0.8085260928\H,0,0.4830438364,-0.3099796861,-1.0337247
 999\H,0,2.8674978397,0.1458797364,0.6131324666\\Version=ES64L-G16RevC.
 01\HF=-148.8919028\S2=0.647429\S2-1=0.\S2A=0.065483\RMSD=3.267e-10\Dip
 ole=0.1811611,0.2934476,1.0899634\Quadrupole=4.2254325,-1.6657107,-2.5
 597218,1.5556766,5.716996,-0.3040508\PG=Unknown\\@

 Writing a WFN file to "0001_q000_m01_k00_force_uhf_def2svpd.wfn"


 THERE IS NOTHING NOBLE IN BEING SUPERIOR TO SOME OTHER MAN.
 TRUE NOBILITY IS BEING SUPERIOR TO YOUR FORMER SELF.

                                                   -- HINDU PROVERB
 Job cpu time:       0 days  0 hours  0 minutes 12.0 seconds.
 Elapsed time:       0 days  0 hours  0 minutes  7.0 seconds.
 File lengths (MBytes):  RWF=     70 Int=      0 D2E=      0 Chk=      2 Scr=      1
 Normal termination of Gaussian 16 at Tue Jan  3 09:03:47 2023.
 Initial command:
 /opt/software/gaussian/g16.c01/l1.exe "/localscratch/bhavuk.2151341.0/Gau-15997.inp" -scrdir="/localscratch/bhavuk.2151341.0/"
 Entering Link 1 = /opt/software/gaussian/g16.c01/l1.exe PID=     16333.
  
 Copyright (c) 1988-2019, Gaussian, Inc.  All Rights Reserved.
  
 This is part of the Gaussian(R) 16 program.  It is based on
 the Gaussian(R) 09 system (copyright 2009, Gaussian, Inc.),
 the Gaussian(R) 03 system (copyright 2003, Gaussian, Inc.),
 the Gaussian(R) 98 system (copyright 1998, Gaussian, Inc.),
 the Gaussian(R) 94 system (copyright 1995, Gaussian, Inc.),
 the Gaussian 92(TM) system (copyright 1992, Gaussian, Inc.),
 the Gaussian 90(TM) system (copyright 1990, Gaussian, Inc.),
 the Gaussian 88(TM) system (copyright 1988, Gaussian, Inc.),
 the Gaussian 86(TM) system (copyright 1986, Carnegie Mellon
 University), and the Gaussian 82(TM) system (copyright 1983,
 Carnegie Mellon University). Gaussian is a federally registered
 trademark of Gaussian, Inc.
  
 This software contains proprietary and confidential information,
 including trade secrets, belonging to Gaussian, Inc.
  
 This software is provided under written license and may be
 used, copied, transmitted, or stored only in accord with that
 written license.
  
 The following legend is applicable only to US Government
 contracts under FAR:
  
                    RESTRICTED RIGHTS LEGEND
  
 Use, reproduction and disclosure by the US Government is
 subject to restrictions as set forth in subparagraphs (a)
 and (c) of the Commercial Computer Software - Restricted
 Rights clause in FAR 52.227-19.
  
 Gaussian, Inc.
 340 Quinnipiac St., Bldg. 40, Wallingford CT 06492
  
  
 ---------------------------------------------------------------
 Warning -- This program may not be used in any manner that
 competes with the business of Gaussian, Inc. or will provide
 assistance to any competitor of Gaussian, Inc.  The licensee
 of this program is prohibited from giving any competitor of
 Gaussian, Inc. access to this program.  By using this program,
 the user acknowledges that Gaussian, Inc. is engaged in the
 business of creating and licensing software in the field of
 computational chemistry and represents and warrants to the
 licensee that it is not a competitor of Gaussian, Inc. and that
 it will not use this program in any manner prohibited above.
 ---------------------------------------------------------------
  

 Cite this work as:
 Gaussian 16, Revision C.01,
 M. J. Frisch, G. W. Trucks, H. B. Schlegel, G. E. Scuseria, 
 M. A. Robb, J. R. Cheeseman, G. Scalmani, V. Barone, 
 G. A. Petersson, H. Nakatsuji, X. Li, M. Caricato, A. V. Marenich, 
 J. Bloino, B. G. Janesko, R. Gomperts, B. Mennucci, H. P. Hratchian, 
 J. V. Ortiz, A. F. Izmaylov, J. L. Sonnenberg, D. Williams-Young, 
 F. Ding, F. Lipparini, F. Egidi, J. Goings, B. Peng, A. Petrone, 
 T. Henderson, D. Ranasinghe, V. G. Zakrzewski, J. Gao, N. Rega, 
 G. Zheng, W. Liang, M. Hada, M. Ehara, K. Toyota, R. Fukuda, 
 J. Hasegawa, M. Ishida, T. Nakajima, Y. Honda, O. Kitao, H. Nakai, 
 T. Vreven, K. Throssell, J. A. Montgomery, Jr., J. E. Peralta, 
 F. Ogliaro, M. J. Bearpark, J. J. Heyd, E. N. Brothers, K. N. Kudin, 
 V. N. Staroverov, T. A. Keith, R. Kobayashi, J. Normand, 
 K. Raghavachari, A. P. Rendell, J. C. Burant, S. S. Iyengar, 
 J. Tomasi, M. Cossi, J. M. Millam, M. Klene, C. Adamo, R. Cammi, 
 J. W. Ochterski, R. L. Martin, K. Morokuma, O. Farkas, 
 J. B. Foresman, and D. J. Fox, Gaussian, Inc., Wallingford CT, 2019.
 
 ******************************************
 Gaussian 16:  ES64L-G16RevC.01  3-Jul-2019
                 3-Jan-2023 
 ******************************************
 %chk=0001_q000_m01_k00_force_uhf_def2svpd.chk
 %nprocshared=2
 Will use up to    2 processors via shared memory.
 %mem=4GB
 ----------------------------------------------------------------------
 #p uhf/chkbasis force guess=read geom=check scf=(maxcycle=900,verytigh
 tlineq,xqc) integral=grid=ultrafine symmetry=None density=current pop=
 (cm5,hlygat,mbs,npa) output=wfx
 ----------------------------------------------------------------------
 1/10=7,29=2,30=1,38=1/1,3;
 2/12=2,15=3,40=1/2;
 3/5=7,6=2,11=2,14=-4,25=1,30=1,67=1,71=1,75=-5,116=2/1,2,3;
 4/5=1/1;
 5/5=2,7=900,8=3,13=1,17=3,38=6/2,8;
 6/7=2,8=2,9=2,10=2,15=8,20=15,22=-1,27=100,28=1,40=-1,79=1/1,2,7;
 7/29=1,30=1/1,2,3,16;
 1/10=7,30=1/3;
 99/6=200/99;
 Leave Link    1 at Tue Jan  3 09:03:47 2023, MaxMem=   536870912 cpu:               0.2 elap:               0.1
 (Enter /opt/software/gaussian/g16.c01/l101.exe)
 ----------------------------------------------------------------------
 0001_q000_m01_k00_opt_uwb97xd_def2svpd/0001_q000_m01_k00_force_uhf_def
 2svpd stable-force
 ----------------------------------------------------------------------
 Structure from the checkpoint file:  "0001_q000_m01_k00_force_uhf_def2svpd.chk"
 Charge =  0 Multiplicity = 1
 Z-Matrix found in chk file.
 C,0,1.0726168695,-0.0701991232,-0.153012633
 N,0,2.3779437514,-0.0897456927,-0.2543854931
 N,0,3.0833554789,-0.3684697824,-1.3087287982
 H,0,4.0640493508,-0.2926697434,-1.0476368317
 H,0,0.6399628731,0.1851542916,0.8085260928
 H,0,0.4830438364,-0.3099796861,-1.0337247999
 H,0,2.8674978397,0.1458797364,0.6131324666
 Recover connectivity data from disk.
 ITRead=  0  0  0  0  0  0  0
 MicOpt= -1 -1 -1 -1 -1 -1 -1
 NAtoms=      7 NQM=        7 NQMF=       0 NMMI=      0 NMMIF=      0
                NMic=       0 NMicF=      0.
                    Isotopes and Nuclear Properties:
 (Nuclear quadrupole moments (NQMom) in fm**2, nuclear magnetic moments (NMagM)
  in nuclear magnetons)

  Atom         1           2           3           4           5           6           7
 IAtWgt=          12          14          14           1           1           1           1
 AtmWgt=  12.0000000  14.0030740  14.0030740   1.0078250   1.0078250   1.0078250   1.0078250
 NucSpn=           0           2           2           1           1           1           1
 AtZEff=   3.6000000   4.5500000   4.5500000   1.0000000   1.0000000   1.0000000   1.0000000
 NQMom=    0.0000000   2.0440000   2.0440000   0.0000000   0.0000000   0.0000000   0.0000000
 NMagM=    0.0000000   0.4037610   0.4037610   2.7928460   2.7928460   2.7928460   2.7928460
 AtZNuc=   6.0000000   7.0000000   7.0000000   1.0000000   1.0000000   1.0000000   1.0000000
 Leave Link  101 at Tue Jan  3 09:03:48 2023, MaxMem=   536870912 cpu:               0.4 elap:               0.2
 (Enter /opt/software/gaussian/g16.c01/l103.exe)

 GradGradGradGradGradGradGradGradGradGradGradGradGradGradGradGradGradGrad
 Berny optimization.
 Initialization pass.
 Trust Radius=3.00D-01 FncErr=1.00D-07 GrdErr=1.00D-07 EigMax=2.50D+02 EigMin=1.00D-04
 Number of steps in this run=      2 maximum allowed number of steps=      2.
 GradGradGradGradGradGradGradGradGradGradGradGradGradGradGradGradGradGrad

 Leave Link  103 at Tue Jan  3 09:03:48 2023, MaxMem=   536870912 cpu:               0.1 elap:               0.0
 (Enter /opt/software/gaussian/g16.c01/l202.exe)
                          Input orientation:                          
 ---------------------------------------------------------------------
 Center     Atomic      Atomic             Coordinates (Angstroms)
[...]
   Natural Minimal Basis     11.94279 ( 99.5233% of  12)
   Natural Rydberg Basis      0.05721 (  0.4767% of  12)
 --------------------------------------------------------

    Atom  No          Natural Electron Configuration
 ----------------------------------------------------------------------------
      C    1      [core]2S( 0.48)2p( 1.18)3p( 0.01)
      N    2      [core]2S( 0.61)2p( 2.14)4d( 0.01)
      N    3      [core]2S( 0.77)2p( 2.28)3p( 0.01)4d( 0.01)
      H    4            1S( 0.32)
      H    5            1S( 0.43)
      H    6            1S( 0.43)
      H    7            1S( 0.30)


 NBO analysis skipped by request.


 ***************************************************
 *******         Beta  spin orbitals         *******
 ***************************************************


 NATURAL POPULATIONS:  Natural atomic orbital occupancies 
                                                          
   NAO  Atom  No  lang   Type(AO)    Occupancy      Energy
 ----------------------------------------------------------
     1    C    1  S      Cor( 1S)     0.99974     -11.13880
     2    C    1  S      Val( 2S)     0.53699      -0.28548
     3    C    1  S      Ryd( 4S)     0.00093       0.97765
     4    C    1  S      Ryd( 3S)     0.00005       0.83270
     5    C    1  px     Val( 2p)     0.43599       0.04134
     6    C    1  px     Ryd( 3p)     0.00344       0.82021
     7    C    1  py     Val( 2p)     0.88434      -0.29903
     8    C    1  py     Ryd( 3p)     0.00868       0.79253
     9    C    1  pz     Val( 2p)     0.61856      -0.06122
    10    C    1  pz     Ryd( 3p)     0.00274       1.12903
    11    C    1  dxy    Ryd( 4d)     0.00030       2.01002
    12    C    1  dxy    Ryd( 3d)     0.00037       0.92029
    13    C    1  dxz    Ryd( 4d)     0.00054       2.52760
    14    C    1  dxz    Ryd( 3d)     0.00007       1.05002
    15    C    1  dyz    Ryd( 4d)     0.00020       1.86875
    16    C    1  dyz    Ryd( 3d)     0.00007       0.98198
    17    C    1  dx2y2  Ryd( 4d)     0.00130       2.10513
    18    C    1  dx2y2  Ryd( 3d)     0.00003       1.02348
    19    C    1  dz2    Ryd( 4d)     0.00120       2.27275
    20    C    1  dz2    Ryd( 3d)     0.00010       1.10709
 
    21    N    2  S      Cor( 1S)     0.99974     -15.47944
    22    N    2  S      Val( 2S)     0.60188      -0.61455
    23    N    2  S      Ryd( 4S)     0.00202       1.33323
    24    N    2  S      Ryd( 3S)     0.00001       0.93248
    25    N    2  px     Val( 2p)     0.66765      -0.32824
    26    N    2  px     Ryd( 3p)     0.00080       1.40933
    27    N    2  py     Val( 2p)     0.69550      -0.28879
    28    N    2  py     Ryd( 3p)     0.00422       1.19316
    29    N    2  pz     Val( 2p)     0.64840      -0.27479
    30    N    2  pz     Ryd( 3p)     0.00175       1.53047
    31    N    2  dxy    Ryd( 4d)     0.00204       2.05956
    32    N    2  dxy    Ryd( 3d)     0.00005       1.57495
    33    N    2  dxz    Ryd( 4d)     0.00121       2.97372
    34    N    2  dxz    Ryd( 3d)     0.00019       1.76833
    35    N    2  dyz    Ryd( 4d)     0.00067       1.98131
    36    N    2  dyz    Ryd( 3d)     0.00006       1.77883
    37    N    2  dx2y2  Ryd( 4d)     0.00163       2.30596
    38    N    2  dx2y2  Ryd( 3d)     0.00008       1.93503
    39    N    2  dz2    Ryd( 4d)     0.00145       2.64982
    40    N    2  dz2    Ryd( 3d)     0.00010       1.71720
 
    41    N    3  S      Cor( 1S)     0.99983     -15.39527
    42    N    3  S      Val( 2S)     0.73757      -0.60160
    43    N    3  S      Ryd( 4S)     0.00274       1.71378
    44    N    3  S      Ryd( 3S)     0.00010       0.93385
    45    N    3  px     Val( 2p)     0.60148      -0.11183
    46    N    3  px     Ryd( 3p)     0.00314       1.38923
    47    N    3  py     Val( 2p)     0.39311      -0.00648
    48    N    3  py     Ryd( 3p)     0.00218       1.22358
    49    N    3  pz     Val( 2p)     0.67840      -0.17350
    50    N    3  pz     Ryd( 3p)     0.00253       1.25677
    51    N    3  dxy    Ryd( 4d)     0.00021       2.03253
    52    N    3  dxy    Ryd( 3d)     0.00011       1.53673
    53    N    3  dxz    Ryd( 4d)     0.00283       2.72649
    54    N    3  dxz    Ryd( 3d)     0.00005       1.36062
    55    N    3  dyz    Ryd( 4d)     0.00236       2.05662
    56    N    3  dyz    Ryd( 3d)     0.00003       1.48645
    57    N    3  dx2y2  Ryd( 4d)     0.00140       2.33117
    58    N    3  dx2y2  Ryd( 3d)     0.00010       1.76098
    59    N    3  dz2    Ryd( 4d)     0.00188       2.36675
    60    N    3  dz2    Ryd( 3d)     0.00007       1.38003
 
    61    H    4  S      Val( 1S)     0.34952       0.17016
    62    H    4  S      Ryd( 2S)     0.00031       0.64157
    63    H    4  px     Ryd( 2p)     0.00129       1.57092
    64    H    4  px     Ryd( 3p)     0.00054       1.59893
    65    H    4  py     Ryd( 2p)     0.00153       1.19796
    66    H    4  py     Ryd( 3p)     0.00020       1.51769
    67    H    4  pz     Ryd( 2p)     0.00077       1.35267
    68    H    4  pz     Ryd( 3p)     0.00006       1.63125
 
    69    H    5  S      Val( 1S)     0.38816       0.11463
    70    H    5  S      Ryd( 2S)     0.00013       0.60095
    71    H    5  px     Ryd( 3p)     0.00053       1.45927
    72    H    5  px     Ryd( 2p)     0.00004       1.36246
    73    H    5  py     Ryd( 2p)     0.00069       1.18042
    74    H    5  py     Ryd( 3p)     0.00002       1.34654
    75    H    5  pz     Ryd( 3p)     0.00091       1.69246
    76    H    5  pz     Ryd( 2p)     0.00007       1.40692
 
    77    H    6  S      Val( 1S)     0.38396       0.13260
    78    H    6  S      Ryd( 2S)     0.00089       0.54705
    79    H    6  px     Ryd( 2p)     0.00083       1.30709
    80    H    6  px     Ryd( 3p)     0.00016       1.64003
    81    H    6  py     Ryd( 2p)     0.00015       1.04194
    82    H    6  py     Ryd( 3p)     0.00010       1.51356
    83    H    6  pz     Ryd( 2p)     0.00086       1.40329
    84    H    6  pz     Ryd( 3p)     0.00013       1.65821
 
    85    H    7  S      Val( 1S)     0.30884       0.15183
    86    H    7  S      Ryd( 2S)     0.00078       0.90525
    87    H    7  px     Ryd( 3p)     0.00066       1.67559
    88    H    7  px     Ryd( 2p)     0.00026       1.28742
    89    H    7  py     Ryd( 3p)     0.00082       1.36957
    90    H    7  py     Ryd( 2p)     0.00019       1.27200
    91    H    7  pz     Ryd( 3p)     0.00116       1.73246
    92    H    7  pz     Ryd( 2p)     0.00022       1.30333

 WARNING:  Population inversion found on atom  C    1
           Population inversion found on atom  N    2
           Population inversion found on atom  N    3
           Population inversion found on atom  H    5
           Population inversion found on atom  H    7


 Summary of Natural Population Analysis:                  
                                                          
                                       Natural Population 
                Natural  -----------------------------------------------
    Atom  No    Charge         Core      Valence    Rydberg      Total
 -----------------------------------------------------------------------
      C    1   -0.49565      0.99974     2.47589    0.02001     3.49565
      N    2   -0.12944      0.99974     2.61342    0.01628     3.62944
      N    3    0.06988      0.99983     2.41056    0.01973     3.43012
      H    4    0.14577      0.00000     0.34952    0.00470     0.35423
      H    5    0.10946      0.00000     0.38816    0.00238     0.39054
      H    6    0.11292      0.00000     0.38396    0.00312     0.38708
      H    7    0.18706      0.00000     0.30884    0.00410     0.31294
 =======================================================================
   * Total *    0.00000      2.99931     8.93035    0.07033    12.00000

                                 Natural Population      
 --------------------------------------------------------
   Core                       2.99931 ( 99.9771% of   3)
   Valence                    8.93035 ( 99.2262% of   9)
   Natural Minimal Basis     11.92967 ( 99.4139% of  12)
   Natural Rydberg Basis      0.07033 (  0.5861% of  12)
 --------------------------------------------------------

    Atom  No          Natural Electron Configuration
 ----------------------------------------------------------------------------
      C    1      [core]2S( 0.54)2p( 1.94)3p( 0.01)
      N    2      [core]2S( 0.60)2p( 2.01)3p( 0.01)4d( 0.01)
      N    3      [core]2S( 0.74)2p( 1.67)3p( 0.01)4d( 0.01)
      H    4            1S( 0.35)
      H    5            1S( 0.39)
      H    6            1S( 0.38)
      H    7            1S( 0.31)


 NBO analysis skipped by request.
 Leave Link  607 at Tue Jan  3 09:03:52 2023, MaxMem=   536870912 cpu:               3.5 elap:               1.7
 (Enter /opt/software/gaussian/g16.c01/l701.exe)
 ... and contract with generalized density number  0.
 Compute integral first derivatives.
 Leave Link  701 at Tue Jan  3 09:03:52 2023, MaxMem=   536870912 cpu:               0.2 elap:               0.1
 (Enter /opt/software/gaussian/g16.c01/l702.exe)
 L702 exits ... SP integral derivatives will be done elsewhere.
 Leave Link  702 at Tue Jan  3 09:03:53 2023, MaxMem=   536870912 cpu:               0.1 elap:               0.0
 (Enter /opt/software/gaussian/g16.c01/l703.exe)
 Integral derivatives from FoFJK, PRISM(SPDF).
 Compute integral first derivatives, UseDBF=F ICtDFT=           0.
 Calling FoFJK, ICntrl=      2127 FMM=F ISym2X=0 I1Cent= 0 IOpClX= 1 NMat=1 NMatS=1 NMatT=0.
 FoFJK:  IHMeth= 1 ICntrl=    2127 DoSepK=F KAlg= 0 I1Cent=           0 FoldK=F
 IRaf=         0 NMat=       1 IRICut=       1 DoRegI=T DoRafI=F ISym2E= 0 IDoP0=0 IntGTp=1.
 FoFCou: FMM=F IPFlag=           0 FMFlag=      100000 FMFlg1=         800
         NFxFlg=           0 DoJE=F BraDBF=F KetDBF=F FulRan=T
         wScrn=  0.000000 ICntrl=      2127 IOpCl=  1 I1Cent=           0 NGrid=           0
         NMat0=    1 NMatS0=      1 NMatT0=    0 NMatD0=    1 NMtDS0=    0 NMtDT0=    0
 Symmetry not used in FoFCou.
 Leave Link  703 at Tue Jan  3 09:03:54 2023, MaxMem=   536870912 cpu:               1.5 elap:               0.7
 (Enter /opt/software/gaussian/g16.c01/l716.exe)
 Dipole        = 1.81161072D-01 2.93447604D-01 1.08996346D+00
 -------------------------------------------------------------------
 Center     Atomic                   Forces (Hartrees/Bohr)
 Number     Number              X              Y              Z
 -------------------------------------------------------------------
      1        6          -0.044122795   -0.001515055   -0.004677097
      2        7           0.048474146    0.007564537    0.027134266
      3        7           0.009799145   -0.000358870   -0.001551079
      4        1          -0.011534600   -0.001065902   -0.003722277
      5        1           0.001575118   -0.001821807   -0.006828909
      6        1           0.001992827    0.001860962    0.006891396
      7        1          -0.006183841   -0.004663866   -0.017246301
 -------------------------------------------------------------------
 Cartesian Forces:  Max     0.048474146 RMS     0.016655627
 Z-matrix is all fixed cartesians, so copy forces.
 Force constants in Cartesian coordinates: 
                1             2             3             4             5 
      1  0.979681D+00
      2 -0.379301D-03  0.213865D+00
      3 -0.190645D-01  0.142607D+00  0.707620D+00
      4 -0.643805D+00  0.579070D-02  0.334547D-01  0.112567D+01
      5  0.632347D-02 -0.106234D+00 -0.223587D-01 -0.331382D-01  0.255501D+00
      6  0.354270D-01 -0.223469D-01 -0.184344D+00 -0.143773D+00  0.210309D+00
      7  0.271848D-02  0.887848D-02  0.332925D-01 -0.285848D+00  0.632473D-01
      8  0.405863D-03  0.125485D-01  0.280651D-02  0.556667D-01 -0.952295D-01
      9  0.171151D-02  0.262289D-02  0.215325D-01  0.212339D+00 -0.116800D+00
     10  0.000000D+00 -0.399533D-04  0.107186D-04 -0.760156D-02 -0.133499D-02
     11 -0.399096D-04  0.681015D-02 -0.182702D-02  0.704590D-02  0.450257D-02
     12  0.107071D-04 -0.182705D-02  0.490159D-03  0.265068D-01  0.370720D-02
     13 -0.151899D+00  0.232181D-01  0.887550D-01  0.227506D-02  0.740187D-02
     14  0.222321D-01 -0.700228D-01 -0.649731D-01  0.189247D-03  0.144423D-01
     15  0.850866D-01 -0.649992D-01 -0.296927D+00  0.973426D-03 -0.504849D-03
     16 -0.184388D+00 -0.297881D-01 -0.108208D+00 -0.207961D-02 -0.693893D-02
     17 -0.287722D-01 -0.722180D-01 -0.562752D-01  0.243717D-03  0.170004D-01
     18 -0.104411D+00 -0.562483D-01 -0.264302D+00  0.132579D-02  0.166311D-04
     19 -0.230818D-02 -0.767988D-02 -0.282404D-01 -0.188615D+00 -0.355605D-01
     20  0.229955D-03  0.152509D-01  0.203553D-04 -0.357981D-01 -0.899827D-01
     21  0.124008D-02  0.191593D-03  0.159310D-01 -0.130826D+00 -0.743693D-01
                6             7             8             9            10 
      6  0.986309D+00
      7  0.240594D+00  0.668956D+00
      8 -0.116633D+00 -0.324380D-01  0.846813D-01
      9 -0.504269D+00 -0.134507D+00  0.140554D+00  0.574006D+00
     10 -0.473293D-02 -0.410677D+00 -0.278084D-01 -0.950666D-01  0.418278D+00
     11  0.352379D-02 -0.361895D-01 -0.231711D-01 -0.184397D-01  0.291372D-01
     12  0.167545D-01 -0.126306D+00 -0.186231D-01 -0.846654D-01  0.998012D-01
     13  0.278675D-01  0.000000D+00 -0.447309D-04  0.120004D-04  0.000000D+00
     14 -0.347895D-03 -0.447767D-04  0.764067D-02 -0.204983D-02  0.000000D+00
     15  0.126317D-01  0.120092D-04 -0.204924D-02  0.549768D-03  0.000000D+00
     16 -0.254401D-01  0.000000D+00  0.448748D-04 -0.120390D-04  0.000000D+00
     17 -0.139769D-03  0.448434D-04 -0.765204D-02  0.205288D-02  0.000000D+00
     18  0.170683D-01 -0.120329D-04  0.205329D-02 -0.550853D-03  0.000000D+00
     19 -0.129942D+00  0.248506D-01  0.417370D-02  0.155231D-01  0.000000D+00
     20 -0.743652D-01 -0.349835D-02  0.211822D-01 -0.794026D-02  0.462088D-04
     21 -0.344150D+00 -0.130734D-01 -0.810855D-02 -0.660326D-02 -0.123974D-04
               11            12            13            14            15 
     11  0.197348D-01
     12  0.146298D-01  0.679877D-01
     13  0.000000D+00  0.000000D+00  0.120347D+00
     14  0.000000D+00  0.000000D+00 -0.258292D-01  0.469624D-01
     15  0.000000D+00  0.000000D+00 -0.983283D-01  0.699484D-01  0.291298D+00
     16  0.000000D+00  0.000000D+00  0.292766D-01  0.340314D-02  0.122695D-01
     17  0.000000D+00  0.000000D+00 -0.479540D-02  0.941143D-02 -0.465711D-02
     18  0.000000D+00  0.000000D+00 -0.182930D-01 -0.484049D-02 -0.694563D-02
     19  0.463037D-04 -0.124225D-04  0.000000D+00  0.494397D-04 -0.132598D-04
     20 -0.787642D-02  0.211311D-02  0.493749D-04 -0.843392D-02  0.226199D-02
     21  0.211317D-02 -0.566929D-03 -0.132473D-04  0.226283D-02 -0.606894D-03
               16            17            18            19            20 
     16  0.157191D+00
     17  0.333285D-01  0.450118D-01
     18  0.121377D+00  0.612854D-01  0.254122D+00
     19  0.000000D+00 -0.495133D-04  0.132860D-04  0.166072D+00
     20 -0.495337D-04  0.844647D-02 -0.226646D-02  0.390205D-01  0.614135D-01
     21  0.132899D-04 -0.226619D-02  0.608092D-03  0.142672D+00  0.801764D-01
               21 
     21  0.335388D+00
 Leave Link  716 at Tue Jan  3 09:03:54 2023, MaxMem=   536870912 cpu:               0.1 elap:               0.0
 (Enter /opt/software/gaussian/g16.c01/l103.exe)

 GradGradGradGradGradGradGradGradGradGradGradGradGradGradGradGradGradGrad
 Berny optimization.
 Search for a local minimum.
 Step number   1 out of a maximum of    2
 All quantities printed in internal units (Hartrees-Bohrs-Radians)
 Second derivative matrix not updated -- first step.
 ITU=  0
     Eigenvalues ---    0.02409   0.03062   0.03370   0.05977   0.08903
     Eigenvalues ---    0.11483   0.14278   0.19866   0.30111   0.35087
     Eigenvalues ---    0.61127   0.81664   1.00827   1.49337   1.92763
 Angle between quadratic step and forces=  61.28 degrees.
 Linear search not attempted -- first point.
 B after Tr=     0.001850    0.001605    0.005949
         Rot=    1.000000   -0.000003    0.000517   -0.000139 Ang=  -0.06 deg.
 Variable       Old X    -DE/DX   Delta X   Delta X   Delta X     New X
                                 (Linear)    (Quad)   (Total)
    X1        2.02695  -0.04412   0.00000  -0.02597  -0.02377   2.00318
    Y1       -0.13266  -0.00152   0.00000  -0.00177   0.00039  -0.13226
    Z1       -0.28915  -0.00468   0.00000  -0.00600   0.00201  -0.28714
    X2        4.49366   0.04847   0.00000   0.04006   0.04241   4.53607
    Y2       -0.16959   0.00756   0.00000   0.01136   0.01422  -0.15538
    Z2       -0.48072   0.02713   0.00000   0.04147   0.05210  -0.42862
    X3        5.82670   0.00980   0.00000  -0.00621  -0.00162   5.82507
    Y3       -0.69631  -0.00036   0.00000   0.00168   0.00492  -0.69139
    Z3       -2.47314  -0.00155   0.00000   0.00642   0.01838  -2.45476
    X4        7.67994  -0.01153   0.00000  -0.01612  -0.01201   7.66793
    Y4       -0.55307  -0.00107   0.00000  -0.01545  -0.01171  -0.56477
    Z4       -1.97975  -0.00372   0.00000  -0.05730  -0.04343  -2.02318
    X5        1.20935   0.00158   0.00000  -0.06359  -0.06337   1.14598
    Y5        0.34989  -0.00182   0.00000  -0.01186  -0.00995   0.33994
    Z5        1.52789  -0.00683   0.00000  -0.04290  -0.03577   1.49212
    X6        0.91282   0.00199   0.00000   0.00046   0.00449   0.91731
    Y6       -0.58578   0.00186   0.00000   0.00016   0.00203  -0.58375
    Z6       -1.95346   0.00689   0.00000   0.00059   0.00748  -1.94598
    X7        5.41879  -0.00618   0.00000   0.05330   0.05389   5.47267
    Y7        0.27567  -0.00466   0.00000  -0.00302   0.00010   0.27577
    Z7        1.15865  -0.01725   0.00000  -0.01237  -0.00077   1.15789
         Item               Value     Threshold  Converged?
 Maximum Force            0.048474     0.000450     NO 
 RMS     Force            0.016656     0.000300     NO 
 Maximum Displacement     0.063370     0.001800     NO 
 RMS     Displacement     0.027771     0.001200     NO 
 Predicted change in Energy=-2.395637D-03
 GradGradGradGradGradGradGradGradGradGradGradGradGradGradGradGradGradGrad

 Leave Link  103 at Tue Jan  3 09:03:54 2023, MaxMem=   536870912 cpu:               0.0 elap:               0.0
 (Enter /opt/software/gaussian/g16.c01/l9999.exe)
 Unable to Open any file for archive entry.
 1\1\GINC-GRA738\Force\UHF\Gen\C1H4N2\BHAVUK\03-Jan-2023\0\\#p uhf/chkb
 asis force guess=read geom=check scf=(maxcycle=900,verytightlineq,xqc)
  integral=grid=ultrafine symmetry=None density=current pop=(cm5,hlygat
 ,mbs,npa) output=wfx\\0001_q000_m01_k00_opt_uwb97xd_def2svpd/0001_q000
 _m01_k00_force_uhf_def2svpd stable-force\\0,1\C,1.0726168695,-0.070199
 1232,-0.153012633\N,2.3779437514,-0.0897456927,-0.2543854931\N,3.08335
 54789,-0.3684697824,-1.3087287982\H,4.0640493508,-0.2926697434,-1.0476
 368317\H,0.6399628731,0.1851542916,0.8085260928\H,0.4830438364,-0.3099
 796861,-1.0337247999\H,2.8674978397,0.1458797364,0.6131324666\\Version
 =ES64L-G16RevC.01\HF=-148.8919028\S2=0.647429\S2-1=0.\S2A=0.065483\RMS
 D=2.363e-10\RMSF=1.666e-02\Dipole=0.1811611,0.2934476,1.0899635\Quadru
 pole=4.2254326,-1.6657107,-2.5597218,1.5556767,5.7169961,-0.3040508\PG
 =Unknown\\@
 The archive entry for this job was punched.

 Writing a WFNX file to "0001_q000_m01_k00_force_uhf_def2svpd.wfx"


 IF YOU PERCEIVE THAT THERE ARE FOUR POSSIBLE WAYS IN
 WHICH A PROCEDURE CAN GO WRONG AND CIRCUMVENT THESE, 
 THEN A FIFTH WAY WILL DEVELOP.

                              -- MURPHY'S TWELFTH LAW
 Job cpu time:       0 days  0 hours  0 minutes  9.9 seconds.
 Elapsed time:       0 days  0 hours  0 minutes  4.7 seconds.
 File lengths (MBytes):  RWF=     10 Int=      0 D2E=      0 Chk=      2 Scr=      1
 Normal termination of Gaussian 16 at Tue Jan  3 09:03:54 2023.
