 Entering Gaussian System, Link 0=g16
 Input=0001_q000_m01_k00_force_ub3lyp_def2svp.com
 Output=0001_q000_m01_k00_force_ub3lyp_def2svp.log
 Initial command:
 /opt/software/gaussian/g16.c01/l1.exe "/localscratch/bhavuk.2151332.0/Gau-16526.inp" -scrdir="/localscratch/bhavuk.2151332.0/"
 Entering Link 1 = /opt/software/gaussian/g16.c01/l1.exe PID=     16527.
  
 Copyright (c) 1988-2019, Gaussian, Inc.  All Rights Reserved.
  
 This is part of the Gaussian(R) 16 program.  It is based on
 the Gaussian(R) 09 system (copyright 2009, Gaussian, Inc.),
 the Gaussian(R) 03 system (copyright 2003, Gaussian, Inc.),
 the Gaussian(R) 98 system (copyright 1998, Gaussian, Inc.),
 the Gaussian(R) 94 system (copyright 1995, Gaussian, Inc.),
 the Gaussian 92(TM) system (copyright 1992, Gaussian, Inc.),
 the Gaussian 90(TM) system (copyright 1990, Gaussian, Inc.),
 the Gaussian 88(TM) system (copyright 1988, Gaussian, Inc.),
 the Gaussian 86(TM) system (copyright 1986, Carnegie Mellon
 University), and the Gaussian 82(TM) system (copyright 1983,
 Carnegie Mellon University). Gaussian is a federally registered
 trademark of Gaussian, Inc.
  
 This software contains proprietary and confidential information,
 including trade secrets, belonging to Gaussian, Inc.
  
 This software is provided under written license and may be
 used, copied, transmitted, or stored only in accord with that
 written license.
  
 The following legend is applicable only to US Government
 contracts under FAR:
  
                    RESTRICTED RIGHTS LEGEND
  
 Use, reproduction and disclosure by the US Government is
 subject to restrictions as set forth in subparagraphs (a)
 and (c) of the Commercial Computer Software - Restricted
 Rights clause in FAR 52.227-19.
  
 Gaussian, Inc.
 340 Quinnipiac St., Bldg. 40, Wallingford CT 06492
  
  
 ---------------------------------------------------------------
 Warning -- This program may not be used in any manner that
 competes with the business of Gaussian, Inc. or will provide
 assistance to any competitor of Gaussian, Inc.  The licensee
 of this program is prohibited from giving any competitor of
 Gaussian, Inc. access to this program.  By using this program,
 the user acknowledges that Gaussian, Inc. is engaged in the
 business of creating and licensing software in the field of
 computational chemistry and represents and warrants to the
 licensee that it is not a competitor of Gaussian, Inc. and that
 it will not use this program in any manner prohibited above.
 ---------------------------------------------------------------
  

 Cite this work as:
 Gaussian 16, Revision C.01,
 M. J. Frisch, G. W. Trucks, H. B. Schlegel, G. E. Scuseria, 
 M. A. Robb, J. R. Cheeseman, G. Scalmani, V. Barone, 
 G. A. Petersson, H. Nakatsuji, X. Li, M. Caricato, A. V. Marenich, 
 J. Bloino, B. G. Janesko, R. Gomperts, B. Mennucci, H. P. Hratchian, 
 J. V. Ortiz, A. F. Izmaylov, J. L. Sonnenberg, D. Williams-Young, 
 F. Ding, F. Lipparini, F. Egidi, J. Goings, B. Peng, A. Petrone, 
 T. Henderson, D. Ranasinghe, V. G. Zakrzewski, J. Gao, N. Rega, 
 G. Zheng, W. Liang, M. Hada, M. Ehara, K. Toyota, R. Fukuda, 
 J. Hasegawa, M. Ishida, T. Nakajima, Y. Honda, O. Kitao, H. Nakai, 
 T. Vreven, K. Throssell, J. A. Montgomery, Jr., J. E. Peralta, 
 F. Ogliaro, M. J. Bearpark, J. J. Heyd, E. N. Brothers, K. N. Kudin, 
 V. N. Staroverov, T. A. Keith, R. Kobayashi, J. Normand, 
 K. Raghavachari, A. P. Rendell, J. C. Burant, S. S. Iyengar, 
 J. Tomasi, M. Cossi, J. M. Millam, M. Klene, C. Adamo, R. Cammi, 
 J. W. Ochterski, R. L. Martin, K. Morokuma, O. Farkas, 
 J. B. Foresman, and D. J. Fox, Gaussian, Inc., Wallingford CT, 2019.
 
 ******************************************
 Gaussian 16:  ES64L-G16RevC.01  3-Jul-2019
                 3-Jan-2023 
 ******************************************
 %chk=0001_q000_m01_k00_force_ub3lyp_def2svp.chk
 %nprocshared=2
 Will use up to    2 processors via shared memory.
 %mem=4GB
 ----------------------------------------------------------------------
 #p ub3lyp/gen stable=opt scf=(maxcycle=900,verytightlineq,xqc) integra
 l=grid=ultrafine symmetry=None density=current iop(99/18=-1) output=wf
 n
 ----------------------------------------------------------------------
 1/38=1,172=1/1;
 2/12=2,15=3,17=6,18=5,40=1/2;
 3/5=7,11=2,25=1,30=1,74=-5,75=-5,116=2/1,2,3;
 4//1;
 5/5=2,7=900,8=3,13=1,17=3,38=5/2,8;
 6/7=2,8=2,9=2,10=2,22=-1,28=1/1;
 8/6=1,10=90,11=11/1;
 9/8=-3,42=1,46=1/14;
 5/5=2,7=900,8=3,17=43,38=5/8(-2);
 6/7=2,8=2,9=2,10=2,22=-1,28=1/1;
 99/5=1,6=100,9=1,18=-1/99;
 Leave Link    1 at Tue Jan  3 09:03:13 2023, MaxMem=   536870912 cpu:               0.1 elap:               0.1
 (Enter /opt/software/gaussian/g16.c01/l101.exe)
 ----------------------------------------------------------------------
 0001_q000_m01_k00_opt_uwb97xd_def2svpd/0001_q000_m01_k00_force_ub3lyp_
 def2svp stable-force
 ----------------------------------------------------------------------
 Symbolic Z-matrix:
 Charge =  0 Multiplicity = 1
 C                     1.07262  -0.0702   -0.15301 
 N                     2.37794  -0.08975  -0.25439 
 N                     3.08336  -0.36847  -1.30873 
 H                     4.06405  -0.29267  -1.04764 
 H                     0.63996   0.18515   0.80853 
 H                     0.48304  -0.30998  -1.03372 
 H                     2.8675    0.14588   0.61313 
 
 ITRead=  0  0  0  0  0  0  0
 MicOpt= -1 -1 -1 -1 -1 -1 -1
 NAtoms=      7 NQM=        7 NQMF=       0 NMMI=      0 NMMIF=      0
                NMic=       0 NMicF=      0.
                    Isotopes and Nuclear Properties:
 (Nuclear quadrupole moments (NQMom) in fm**2, nuclear magnetic moments (NMagM)
  in nuclear magnetons)

  Atom         1           2           3           4           5           6           7
 IAtWgt=          12          14          14           1           1           1           1
 AtmWgt=  12.0000000  14.0030740  14.0030740   1.0078250   1.0078250   1.0078250   1.0078250
 NucSpn=           0           2           2           1           1           1           1
 AtZEff=  -0.0000000  -0.0000000  -0.0000000  -0.0000000  -0.0000000  -0.0000000  -0.0000000
 NQMom=    0.0000000   2.0440000   2.0440000   0.0000000   0.0000000   0.0000000   0.0000000
 NMagM=    0.0000000   0.4037610   0.4037610   2.7928460   2.7928460   2.7928460   2.7928460
 AtZNuc=   6.0000000   7.0000000   7.0000000   1.0000000   1.0000000   1.0000000   1.0000000
 Leave Link  101 at Tue Jan  3 09:03:13 2023, MaxMem=   536870912 cpu:               0.4 elap:               0.2
 (Enter /opt/software/gaussian/g16.c01/l202.exe)
                          Input orientation:                          
 ---------------------------------------------------------------------
 Center     Atomic      Atomic             Coordinates (Angstroms)
 Number     Number       Type             X           Y           Z
 ---------------------------------------------------------------------
      1          6           0        1.072617   -0.070199   -0.153013
      2          7           0        2.377944   -0.089746   -0.254385
      3          7           0        3.083355   -0.368470   -1.308729
      4          1           0        4.064049   -0.292670   -1.047637
      5          1           0        0.639963    0.185154    0.808526
      6          1           0        0.483044   -0.309980   -1.033725
      7          1           0        2.867498    0.145880    0.613132
 ---------------------------------------------------------------------
                    Distance matrix (angstroms):
                    1          2          3          4          5
     1  C    0.000000
     2  N    1.309403   0.000000
     3  N    2.338315   1.298820   0.000000
     4  H    3.130258   1.874401   1.017681   0.000000
     5  H    1.084874   2.055706   3.280158   3.924032   0.000000
     6  H    1.086621   2.060708   2.615467   3.581074   1.914071
     7  H    1.963483   1.023606   2.001175   2.093374   2.236433
                    6          7
     6  H    0.000000
     7  H    2.933525   0.000000
 Symmetry turned off by external request.
 Stoichiometry    CH4N2
 Rotational constants (GHZ):          71.2642239          11.2793619           9.7380671
 Leave Link  202 at Tue Jan  3 09:03:13 2023, MaxMem=   536870912 cpu:               0.0 elap:               0.0
 (Enter /opt/software/gaussian/g16.c01/l301.exe)
 General basis read from cards:  (5D, 7F)
 Centers:       4      5      6      7
 S 3 1.00
     Exponent=  1.3010701000D+01 Coefficients=  1.9682158000D-02
     Exponent=  1.9622572000D+00 Coefficients=  1.3796524000D-01
     Exponent=  4.4453796000D-01 Coefficients=  4.7831935000D-01
 S 1 1.00
     Exponent=  1.2194962000D-01 Coefficients=  1.0000000000D+00
 P 1 1.00
     Exponent=  8.0000000000D-01 Coefficients=  1.0000000000D+00
 ****
 Centers:       1
 S 5 1.00
     Exponent=  1.2384016938D+03 Coefficients=  5.4568832082D-03
     Exponent=  1.8629004992D+02 Coefficients=  4.0638409211D-02
     Exponent=  4.2251176346D+01 Coefficients=  1.8025593888D-01
     Exponent=  1.1676557932D+01 Coefficients=  4.6315121755D-01
     Exponent=  3.5930506482D+00 Coefficients=  4.4087173314D-01
 S 1 1.00
     Exponent=  4.0245147363D-01 Coefficients=  1.0000000000D+00
 S 1 1.00
     Exponent=  1.3090182668D-01 Coefficients=  1.0000000000D+00
 P 3 1.00
     Exponent=  9.4680970621D+00 Coefficients=  3.8387871728D-02
     Exponent=  2.0103545142D+00 Coefficients=  2.1117025112D-01
     Exponent=  5.4771004707D-01 Coefficients=  5.1328172114D-01
 P 1 1.00
     Exponent=  1.5268613795D-01 Coefficients=  1.0000000000D+00
 D 1 1.00
     Exponent=  8.0000000000D-01 Coefficients=  1.0000000000D+00
 ****
 Centers:       2      3
 S 5 1.00
     Exponent=  1.7128415853D+03 Coefficients= -5.3934125305D-03
     Exponent=  2.5764812677D+02 Coefficients= -4.0221581118D-02
     Exponent=  5.8458245853D+01 Coefficients= -1.7931144990D-01
     Exponent=  1.6198367905D+01 Coefficients= -4.6376317823D-01
     Exponent=  5.0052600809D+00 Coefficients= -4.4171422662D-01
 S 1 1.00
     Exponent=  5.8731856571D-01 Coefficients=  1.0000000000D+00
 S 1 1.00
     Exponent=  1.8764592253D-01 Coefficients=  1.0000000000D+00
 P 3 1.00
     Exponent=  1.3571470233D+01 Coefficients= -4.0072398852D-02
     Exponent=  2.9257372874D+00 Coefficients= -2.1807045028D-01
     Exponent=  7.9927750754D-01 Coefficients= -5.1294466049D-01
 P 1 1.00
     Exponent=  2.1954348034D-01 Coefficients=  1.0000000000D+00
 D 1 1.00
     Exponent=  1.0000000000D+00 Coefficients=  1.0000000000D+00
 ****
 Ernie: Thresh=  0.10000D-02 Tol=  0.10000D-05 Strict=F.
    62 basis functions,   103 primitive gaussians,    65 cartesian basis functions
    12 alpha electrons       12 beta electrons
       nuclear repulsion energy        73.3825490640 Hartrees.
 IExCor=  402 DFT=T Ex+Corr=B3LYP ExCW=0 ScaHFX=  0.200000
 ScaDFX=  0.800000  0.720000  1.000000  0.810000 ScalE2=  1.000000  1.000000
 IRadAn=      5 IRanWt=     -1 IRanGd=            0 ICorTp=0 IEmpDi=  4
 NAtoms=    7 NActive=    7 NUniq=    7 SFac= 1.00D+00 NAtFMM=   60 NAOKFM=F Big=F
 Integral buffers will be    131072 words long.
 Raffenetti 2 integral format.
 Two-electron integral symmetry is turned off.
 Leave Link  301 at Tue Jan  3 09:03:13 2023, MaxMem=   536870912 cpu:               0.2 elap:               0.1
 (Enter /opt/software/gaussian/g16.c01/l302.exe)
 NPDir=0 NMtPBC=     1 NCelOv=     1 NCel=       1 NClECP=     1 NCelD=      1
         NCelK=      1 NCelE2=     1 NClLst=     1 CellRange=     0.0.
 One-electron integrals computed using PRISM.
 NBasis=    62 RedAO= T EigKep=  5.91D-03  NBF=    62
 NBsUse=    62 1.00D-06 EigRej= -1.00D+00 NBFU=    62
 Precomputing XC quadrature grid using
 IXCGrd= 4 IRadAn=           5 IRanWt=          -1 IRanGd=           0 AccXCQ= 0.00D+00.
 Generated NRdTot=       0 NPtTot=           0 NUsed=           0 NTot=          32
 NSgBfM=    65    65    65    65    65 MxSgAt=     7 MxSgA2=     7.
 Leave Link  302 at Tue Jan  3 09:03:14 2023, MaxMem=   536870912 cpu:               0.4 elap:               0.2
 (Enter /opt/software/gaussian/g16.c01/l303.exe)
 DipDrv:  MaxL=1.
 Leave Link  303 at Tue Jan  3 09:03:14 2023, MaxMem=   536870912 cpu:               0.1 elap:               0.1
 (Enter /opt/software/gaussian/g16.c01/l401.exe)
 ExpMin= 1.22D-01 ExpMax= 1.71D+03 ExpMxC= 2.58D+02 IAcc=3 IRadAn=         5 AccDes= 0.00D+00
 Harris functional with IExCor=  402 and IRadAn=       5 diagonalized for initial guess.
 HarFok:  IExCor=  402 AccDes= 0.00D+00 IRadAn=         5 IDoV= 1 UseB2=F ITyADJ=14
 ICtDFT=  3500011 ScaDFX=  1.000000  1.000000  1.000000  1.000000
 FoFCou: FMM=F IPFlag=           0 FMFlag=      100000 FMFlg1=           0
         NFxFlg=           0 DoJE=T BraDBF=F KetDBF=T FulRan=T
         wScrn=  0.000000 ICntrl=       500 IOpCl=  0 I1Cent=   200000004 NGrid=           0
         NMat0=    1 NMatS0=      1 NMatT0=    0 NMatD0=    1 NMtDS0=    0 NMtDT0=    0
 Symmetry not used in FoFCou.
 Harris En= -149.819883588879    
 JPrj=0 DoOrth=F DoCkMO=F.
 Initial guess <Sx>= 0.0000 <Sy>= 0.0000 <Sz>= 0.0000 <S**2>= 0.0000 S= 0.0000
 Leave Link  401 at Tue Jan  3 09:03:14 2023, MaxMem=   536870912 cpu:               1.0 elap:               0.5
 (Enter /opt/software/gaussian/g16.c01/l502.exe)
 Keep R1 and R2 ints in memory in canonical form, NReq=5595459.
 FoFCou: FMM=F IPFlag=           0 FMFlag=           0 FMFlg1=           0
         NFxFlg=           0 DoJE=F BraDBF=F KetDBF=F FulRan=T
         wScrn=  0.000000 ICntrl=       600 IOpCl=  0 I1Cent=           0 NGrid=           0
         NMat0=    1 NMatS0=   1953 NMatT0=    0 NMatD0=    1 NMtDS0=    0 NMtDT0=    0
 Symmetry not used in FoFCou.
 Two-electron integral symmetry not used.
 UHF open shell SCF:
 Using DIIS extrapolation, IDIIS=  1040.
 NGot=   536870912 LenX=   533045055 LenY=   533040389
 Requested convergence on RMS density matrix=1.00D-08 within 128 cycles.
 Requested convergence on MAX density matrix=1.00D-06.
 Requested convergence on             energy=1.00D-06.
 No special actions if energy rises.
 Integral accuracy reduced to 1.0D-05 until final iterations.

 Cycle   1  Pass 0  IDiag  1:
 E= -149.725428655906    
 DIIS: error= 4.10D-02 at cycle   1 NSaved=   1.
 NSaved= 1 IEnMin= 1 EnMin= -149.725428655906     IErMin= 1 ErrMin= 4.10D-02
 ErrMax= 4.10D-02  0.00D+00 EMaxC= 1.00D-01 BMatC= 3.54D-01 BMatP= 3.54D-01
 IDIUse=3 WtCom= 5.90D-01 WtEn= 4.10D-01
 Coeff-Com:  0.100D+01
 Coeff-En:   0.100D+01
 Coeff:      0.100D+01
 Gap=     0.132 Goal=   None    Shift=    0.000
 Gap=     0.132 Goal=   None    Shift=    0.000
 GapD=    0.132 DampG=1.000 DampE=0.500 DampFc=0.5000 IDamp=-1.
 Damping current iteration by 5.00D-01
 RMSDP=1.20D-02 MaxDP=2.25D-01              OVMax= 1.77D-01

 Cycle   2  Pass 0  IDiag  1:
 E= -149.757595674072     Delta-E=       -0.032167018166 Rises=F Damp=T
 DIIS: error= 9.20D-03 at cycle   2 NSaved=   2.
 NSaved= 2 IEnMin= 2 EnMin= -149.757595674072     IErMin= 2 ErrMin= 9.20D-03
 ErrMax= 9.20D-03  0.00D+00 EMaxC= 1.00D-01 BMatC= 3.58D-02 BMatP= 3.54D-01
 IDIUse=3 WtCom= 9.08D-01 WtEn= 9.20D-02
 Coeff-Com:  0.163D+00 0.837D+00
 Coeff-En:   0.247D+00 0.753D+00
 Coeff:      0.171D+00 0.829D+00
 Gap=     0.204 Goal=   None    Shift=    0.000
 Gap=     0.204 Goal=   None    Shift=    0.000
 RMSDP=3.26D-03 MaxDP=5.14D-02 DE=-3.22D-02 OVMax= 1.81D-01

 Cycle   3  Pass 0  IDiag  1:
 E= -149.795535091088     Delta-E=       -0.037939417017 Rises=F Damp=F
 DIIS: error= 1.68D-02 at cycle   3 NSaved=   3.
 NSaved= 3 IEnMin= 3 EnMin= -149.795535091088     IErMin= 2 ErrMin= 9.20D-03
 ErrMax= 1.68D-02  0.00D+00 EMaxC= 1.00D-01 BMatC= 6.53D-02 BMatP= 3.58D-02
 IDIUse=2 WtCom= 0.00D+00 WtEn= 1.00D+00
 Coeff-En:   0.000D+00 0.000D+00 0.100D+01
 Coeff:      0.000D+00 0.000D+00 0.100D+01
 Gap=     0.152 Goal=   None    Shift=    0.000
 Gap=     0.152 Goal=   None    Shift=    0.000
 RMSDP=7.85D-03 MaxDP=1.43D-01 DE=-3.79D-02 OVMax= 3.46D-01

 Cycle   4  Pass 0  IDiag  1:
 E= -149.653137099382     Delta-E=        0.142397991706 Rises=F Damp=F
 DIIS: error= 5.82D-02 at cycle   4 NSaved=   4.
 NSaved= 4 IEnMin= 3 EnMin= -149.795535091088     IErMin= 2 ErrMin= 9.20D-03
 ErrMax= 5.82D-02  0.00D+00 EMaxC= 1.00D-01 BMatC= 5.96D-01 BMatP= 3.58D-02
 IDIUse=2 WtCom= 0.00D+00 WtEn= 1.00D+00
 Coeff-En:   0.000D+00 0.000D+00 0.836D+00 0.164D+00
 Coeff:      0.000D+00 0.000D+00 0.836D+00 0.164D+00
 Gap=     0.166 Goal=   None    Shift=    0.000
 Gap=     0.166 Goal=   None    Shift=    0.000
 RMSDP=4.18D-03 MaxDP=7.08D-02 DE= 1.42D-01 OVMax= 1.78D-01

 Cycle   5  Pass 0  IDiag  1:
 E= -149.796761158564     Delta-E=       -0.143624059182 Rises=F Damp=F
 DIIS: error= 1.87D-02 at cycle   5 NSaved=   5.
 NSaved= 5 IEnMin= 5 EnMin= -149.796761158564     IErMin= 2 ErrMin= 9.20D-03
 ErrMax= 1.87D-02  0.00D+00 EMaxC= 1.00D-01 BMatC= 6.19D-02 BMatP= 3.58D-02
 IDIUse=2 WtCom= 0.00D+00 WtEn= 1.00D+00
 Coeff-En:   0.000D+00 0.000D+00 0.488D+00 0.000D+00 0.512D+00
 Coeff:      0.000D+00 0.000D+00 0.488D+00 0.000D+00 0.512D+00
 Gap=     0.177 Goal=   None    Shift=    0.000
 Gap=     0.177 Goal=   None    Shift=    0.000
 RMSDP=2.05D-03 MaxDP=3.85D-02 DE=-1.44D-01 OVMax= 9.19D-02

 Cycle   6  Pass 0  IDiag  1:
 E= -149.813269608884     Delta-E=       -0.016508450320 Rises=F Damp=F
 DIIS: error= 1.44D-03 at cycle   6 NSaved=   6.
 NSaved= 6 IEnMin= 6 EnMin= -149.813269608884     IErMin= 6 ErrMin= 1.44D-03
 ErrMax= 1.44D-03  0.00D+00 EMaxC= 1.00D-01 BMatC= 5.60D-04 BMatP= 3.58D-02
 IDIUse=3 WtCom= 9.86D-01 WtEn= 1.44D-02
 Coeff-Com: -0.606D-02 0.259D-01 0.206D+00-0.730D-01 0.441D+00 0.407D+00
 Coeff-En:   0.000D+00 0.000D+00 0.000D+00 0.000D+00 0.000D+00 0.100D+01
 Coeff:     -0.597D-02 0.255D-01 0.203D+00-0.719D-01 0.434D+00 0.415D+00
 Gap=     0.180 Goal=   None    Shift=    0.000
 Gap=     0.180 Goal=   None    Shift=    0.000
 RMSDP=2.28D-04 MaxDP=3.43D-03 DE=-1.65D-02 OVMax= 8.54D-03

 Cycle   7  Pass 0  IDiag  1:
 E= -149.813399661062     Delta-E=       -0.000130052179 Rises=F Damp=F
 DIIS: error= 4.59D-04 at cycle   7 NSaved=   7.
 NSaved= 7 IEnMin= 7 EnMin= -149.813399661062     IErMin= 7 ErrMin= 4.59D-04
 ErrMax= 4.59D-04  0.00D+00 EMaxC= 1.00D-01 BMatC= 3.82D-05 BMatP= 5.60D-04
 IDIUse=3 WtCom= 9.95D-01 WtEn= 4.59D-03
 Coeff-Com: -0.176D-02 0.174D-03 0.302D-01-0.105D-01 0.585D-01 0.194D+00
 Coeff-Com:  0.730D+00
 Coeff-En:   0.000D+00 0.000D+00 0.000D+00 0.000D+00 0.000D+00 0.727D-01
 Coeff-En:   0.927D+00
 Coeff:     -0.176D-02 0.174D-03 0.301D-01-0.104D-01 0.582D-01 0.193D+00
 Coeff:      0.731D+00
 Gap=     0.180 Goal=   None    Shift=    0.000
 Gap=     0.180 Goal=   None    Shift=    0.000
 RMSDP=4.34D-05 MaxDP=7.16D-04 DE=-1.30D-04 OVMax= 1.85D-03

 Cycle   8  Pass 0  IDiag  1:
 E= -149.813409639169     Delta-E=       -0.000009978106 Rises=F Damp=F
 DIIS: error= 4.87D-05 at cycle   8 NSaved=   8.
 NSaved= 8 IEnMin= 8 EnMin= -149.813409639169     IErMin= 8 ErrMin= 4.87D-05
 ErrMax= 4.87D-05  0.00D+00 EMaxC= 1.00D-01 BMatC= 3.39D-07 BMatP= 3.82D-05
 IDIUse=1 WtCom= 1.00D+00 WtEn= 0.00D+00
 Coeff-Com: -0.124D-03-0.262D-03-0.108D-03 0.252D-03-0.351D-02 0.284D-01
 Coeff-Com:  0.128D+00 0.848D+00
 Coeff:     -0.124D-03-0.262D-03-0.108D-03 0.252D-03-0.351D-02 0.284D-01
 Coeff:      0.128D+00 0.848D+00
 Gap=     0.180 Goal=   None    Shift=    0.000
 Gap=     0.180 Goal=   None    Shift=    0.000
 RMSDP=6.12D-06 MaxDP=9.97D-05 DE=-9.98D-06 OVMax= 2.66D-04

 Initial convergence to 1.0D-05 achieved.  Increase integral accuracy.
 Cycle   9  Pass 1  IDiag  1:
 E= -149.813412584152     Delta-E=       -0.000002944983 Rises=F Damp=F
 DIIS: error= 8.49D-06 at cycle   1 NSaved=   1.
 NSaved= 1 IEnMin= 1 EnMin= -149.813412584152     IErMin= 1 ErrMin= 8.49D-06
 ErrMax= 8.49D-06  0.00D+00 EMaxC= 1.00D-01 BMatC= 1.10D-08 BMatP= 1.10D-08
 IDIUse=1 WtCom= 1.00D+00 WtEn= 0.00D+00
 Coeff-Com:  0.100D+01
 Coeff:      0.100D+01
 Gap=     0.180 Goal=   None    Shift=    0.000
 Gap=     0.180 Goal=   None    Shift=    0.000
 RMSDP=6.12D-06 MaxDP=9.97D-05 DE=-2.94D-06 OVMax= 1.38D-04

 Cycle  10  Pass 1  IDiag  1:
 E= -149.813412564642     Delta-E=        0.000000019510 Rises=F Damp=F
 DIIS: error= 2.21D-05 at cycle   2 NSaved=   2.
 NSaved= 2 IEnMin= 1 EnMin= -149.813412584152     IErMin= 1 ErrMin= 8.49D-06
 ErrMax= 2.21D-05  0.00D+00 EMaxC= 1.00D-01 BMatC= 8.39D-08 BMatP= 1.10D-08
 IDIUse=1 WtCom= 1.00D+00 WtEn= 0.00D+00
 Coeff-Com:  0.741D+00 0.259D+00
 Coeff:      0.741D+00 0.259D+00
 Gap=     0.180 Goal=   None    Shift=    0.000
 Gap=     0.180 Goal=   None    Shift=    0.000
 RMSDP=2.38D-06 MaxDP=4.30D-05 DE= 1.95D-08 OVMax= 1.04D-04

 Cycle  11  Pass 1  IDiag  1:
 E= -149.813412587374     Delta-E=       -0.000000022732 Rises=F Damp=F
 DIIS: error= 7.94D-07 at cycle   3 NSaved=   3.
 NSaved= 3 IEnMin= 3 EnMin= -149.813412587374     IErMin= 3 ErrMin= 7.94D-07
 ErrMax= 7.94D-07  0.00D+00 EMaxC= 1.00D-01 BMatC= 2.93D-10 BMatP= 1.10D-08
 IDIUse=1 WtCom= 1.00D+00 WtEn= 0.00D+00
 Coeff-Com:  0.222D+00 0.958D-01 0.682D+00
 Coeff:      0.222D+00 0.958D-01 0.682D+00
 Gap=     0.180 Goal=   None    Shift=    0.000
 Gap=     0.180 Goal=   None    Shift=    0.000
 RMSDP=1.35D-07 MaxDP=2.15D-06 DE=-2.27D-08 OVMax= 2.51D-06

 Cycle  12  Pass 1  IDiag  1:
 E= -149.813412587434     Delta-E=       -0.000000000060 Rises=F Damp=F
 DIIS: error= 3.89D-07 at cycle   4 NSaved=   4.
 NSaved= 4 IEnMin= 4 EnMin= -149.813412587434     IErMin= 4 ErrMin= 3.89D-07
 ErrMax= 3.89D-07  0.00D+00 EMaxC= 1.00D-01 BMatC= 3.55D-11 BMatP= 2.93D-10
 IDIUse=1 WtCom= 1.00D+00 WtEn= 0.00D+00
 Coeff-Com:  0.514D-01 0.315D-01 0.280D+00 0.638D+00
 Coeff:      0.514D-01 0.315D-01 0.280D+00 0.638D+00
 Gap=     0.180 Goal=   None    Shift=    0.000
 Gap=     0.180 Goal=   None    Shift=    0.000
 RMSDP=5.14D-08 MaxDP=8.97D-07 DE=-6.00D-11 OVMax= 1.35D-06

 Cycle  13  Pass 1  IDiag  1:
 E= -149.813412587438     Delta-E=       -0.000000000004 Rises=F Damp=F
 DIIS: error= 2.57D-07 at cycle   5 NSaved=   5.
 NSaved= 5 IEnMin= 5 EnMin= -149.813412587438     IErMin= 5 ErrMin= 2.57D-07
 ErrMax= 2.57D-07  0.00D+00 EMaxC= 1.00D-01 BMatC= 1.38D-11 BMatP= 3.55D-11
 IDIUse=1 WtCom= 1.00D+00 WtEn= 0.00D+00
 Coeff-Com: -0.111D-01 0.428D-02 0.236D-01 0.393D+00 0.590D+00
 Coeff:     -0.111D-01 0.428D-02 0.236D-01 0.393D+00 0.590D+00
 Gap=     0.180 Goal=   None    Shift=    0.000
 Gap=     0.180 Goal=   None    Shift=    0.000
 RMSDP=2.55D-08 MaxDP=4.89D-07 DE=-3.81D-12 OVMax= 7.45D-07

 Cycle  14  Pass 1  IDiag  1:
 E= -149.813412587441     Delta-E=       -0.000000000003 Rises=F Damp=F
 DIIS: error= 2.96D-08 at cycle   6 NSaved=   6.
 NSaved= 6 IEnMin= 6 EnMin= -149.813412587441     IErMin= 6 ErrMin= 2.96D-08
 ErrMax= 2.96D-08  0.00D+00 EMaxC= 1.00D-01 BMatC= 2.26D-13 BMatP= 1.38D-11
 IDIUse=1 WtCom= 1.00D+00 WtEn= 0.00D+00
 Coeff-Com: -0.478D-02 0.123D-02-0.204D-02 0.880D-01 0.166D+00 0.752D+00
 Coeff:     -0.478D-02 0.123D-02-0.204D-02 0.880D-01 0.166D+00 0.752D+00
 Gap=     0.180 Goal=   None    Shift=    0.000
 Gap=     0.180 Goal=   None    Shift=    0.000
 RMSDP=3.87D-09 MaxDP=6.10D-08 DE=-3.18D-12 OVMax= 1.27D-07

 SCF Done:  E(UB3LYP) =  -149.813412587     A.U. after   14 cycles
            NFock= 14  Conv=0.39D-08     -V/T= 2.0094
 <Sx>= 0.0000 <Sy>= 0.0000 <Sz>= 0.0000 <S**2>=-0.0000 S=-0.0000
 <L.S>=  0.00000000000    
 KE= 1.484178063511D+02 PE=-4.953071202045D+02 EE= 1.236933522019D+02
 Annihilation of the first spin contaminant:
 S**2 before annihilation    -0.0000,   after     0.0000
 Leave Link  502 at Tue Jan  3 09:03:19 2023, MaxMem=   536870912 cpu:               8.7 elap:               4.4
 (Enter /opt/software/gaussian/g16.c01/l508.exe)
 QCSCF skips out because SCF is already converged.
 Leave Link  508 at Tue Jan  3 09:03:19 2023, MaxMem=   536870912 cpu:               0.0 elap:               0.0
 (Enter /opt/software/gaussian/g16.c01/l601.exe)
 Copying SCF densities to generalized density rwf, IOpCl= 1 IROHF=0.

 **********************************************************************

            Population analysis using the SCF Density.

 **********************************************************************

 Alpha  occ. eigenvalues --  -14.44378 -14.30119 -10.20278  -1.02460  -0.79633
 Alpha  occ. eigenvalues --   -0.63658  -0.55736  -0.47830  -0.42571  -0.41206
 Alpha  occ. eigenvalues --   -0.26840  -0.18988
 Alpha virt. eigenvalues --   -0.00995   0.02263   0.10189   0.11611   0.14173
 Alpha virt. eigenvalues --    0.24590   0.33727   0.43353   0.47324   0.49547
 Alpha virt. eigenvalues --    0.51658   0.58187   0.64053   0.66902   0.67473
 Alpha virt. eigenvalues --    0.73927   0.77416   0.80033   0.81515   0.93737
 Alpha virt. eigenvalues --    0.96412   1.05160   1.18428   1.25842   1.27917
 Alpha virt. eigenvalues --    1.38794   1.50896   1.51231   1.64498   1.65477
 Alpha virt. eigenvalues --    1.81569   1.87710   1.95493   2.00006   2.02385
 Alpha virt. eigenvalues --    2.11160   2.16862   2.24895   2.32375   2.45014
 Alpha virt. eigenvalues --    2.45162   2.55435   2.70926   2.86446   2.89211
 Alpha virt. eigenvalues --    2.92731   3.07916   3.16809   3.37105   3.59810
  Beta  occ. eigenvalues --  -14.44378 -14.30119 -10.20278  -1.02460  -0.79633
  Beta  occ. eigenvalues --   -0.63658  -0.55736  -0.47830  -0.42571  -0.41206
  Beta  occ. eigenvalues --   -0.26840  -0.18988
  Beta virt. eigenvalues --   -0.00995   0.02263   0.10189   0.11611   0.14173
  Beta virt. eigenvalues --    0.24590   0.33727   0.43353   0.47324   0.49547
  Beta virt. eigenvalues --    0.51658   0.58187   0.64053   0.66902   0.67473
  Beta virt. eigenvalues --    0.73927   0.77416   0.80033   0.81515   0.93737
  Beta virt. eigenvalues --    0.96412   1.05160   1.18428   1.25842   1.27917
  Beta virt. eigenvalues --    1.38794   1.50896   1.51231   1.64498   1.65477
  Beta virt. eigenvalues --    1.81569   1.87710   1.95493   2.00006   2.02385
  Beta virt. eigenvalues --    2.11160   2.16862   2.24895   2.32375   2.45014
  Beta virt. eigenvalues --    2.45162   2.55435   2.70926   2.86446   2.89211
  Beta virt. eigenvalues --    2.92731   3.07916   3.16809   3.37105   3.59810
          Condensed to atoms (all electrons):
               1          2          3          4          5          6
     1  C    4.912264   0.542281  -0.111859   0.009460   0.385572   0.385540
     2  N    0.542281   5.840650   0.274219   0.001117  -0.019205  -0.017301
     3  N   -0.111859   0.274219   6.801141   0.274510   0.007339   0.008469
     4  H    0.009460   0.001117   0.274510   0.670865  -0.001088  -0.000928
     5  H    0.385572  -0.019205   0.007339  -0.001088   0.645772  -0.038964
     6  H    0.385540  -0.017301   0.008469  -0.000928  -0.038964   0.608806
     7  H   -0.045445   0.329375  -0.011278  -0.029183  -0.008705   0.010837
               7
     1  C   -0.045445
     2  N    0.329375
     3  N   -0.011278
     4  H   -0.029183
     5  H   -0.008705
     6  H    0.010837
     7  H    0.630976
          Atomic-Atomic Spin Densities.
               1          2          3          4          5          6
     1  C   -0.000000   0.000000   0.000000  -0.000000  -0.000000   0.000000
     2  N    0.000000   0.000000   0.000000  -0.000000  -0.000000  -0.000000
     3  N    0.000000   0.000000   0.000000   0.000000  -0.000000   0.000000
     4  H   -0.000000  -0.000000   0.000000  -0.000000   0.000000  -0.000000
     5  H   -0.000000  -0.000000  -0.000000   0.000000   0.000000  -0.000000
     6  H    0.000000  -0.000000   0.000000  -0.000000  -0.000000  -0.000000
     7  H    0.000000  -0.000000   0.000000   0.000000   0.000000  -0.000000
               7
     1  C    0.000000
     2  N   -0.000000
     3  N    0.000000
     4  H    0.000000
     5  H    0.000000
     6  H   -0.000000
     7  H   -0.000000
 Mulliken charges and spin densities:
               1          2
     1  C   -0.077813   0.000000
     2  N    0.048865  -0.000000
     3  N   -0.242541   0.000000
     4  H    0.075247  -0.000000
     5  H    0.029279   0.000000
     6  H    0.043541  -0.000000
     7  H    0.123423  -0.000000
 Sum of Mulliken charges =  -0.00000   0.00000
 Mulliken charges and spin densities with hydrogens summed into heavy atoms:
               1          2
     1  C   -0.004993   0.000000
     2  N    0.172288  -0.000000
     3  N   -0.167294   0.000000
 Electronic spatial extent (au):  <R**2>=            596.4069
 Charge=              0.0000 electrons
 Dipole moment (field-independent basis, Debye):
    X=              0.6478    Y=              0.8015    Z=              2.9737  Tot=              3.1472
 Quadrupole moment (field-independent basis, Debye-Ang):
   XX=            -12.5680   YY=            -20.5437   ZZ=            -22.3260
   XY=              2.2347   XZ=              8.2444   YZ=             -0.5812
 Traceless Quadrupole moment (field-independent basis, Debye-Ang):
   XX=              5.9112   YY=             -2.0644   ZZ=             -3.8468
   XY=              2.2347   XZ=              8.2444   YZ=             -0.5812
 Octapole moment (field-independent basis, Debye-Ang**2):
  XXX=            -84.4774  YYY=             10.3197  ZZZ=             39.6999  XYY=            -43.4370
  XXY=              8.5719  XXZ=             30.2698  XZZ=            -51.6241  YZZ=              5.2964
  YYZ=             11.4057  XYZ=             -2.5733
 Hexadecapole moment (field-independent basis, Debye-Ang**3):
 XXXX=           -458.5173 YYYY=            -25.8295 ZZZZ=           -109.0969 XXXY=             36.4615
 XXXZ=            127.2122 YYYX=             28.0063 YYYZ=            -11.7011 ZZZX=            113.0916
 ZZZY=            -13.9679 XXYY=           -118.1821 XXZZ=           -151.2385 YYZZ=            -21.7258
 XXYZ=            -10.3574 YYXZ=             32.5482 ZZXY=             14.7669
 N-N= 7.338254906404D+01 E-N=-4.953071213694D+02  KE= 1.484178063511D+02
                          Isotropic Fermi Contact Couplings
        Atom                 a.u.       MegaHertz       Gauss      10(-4) cm-1
     1  C(13)              0.00000       0.00000       0.00000       0.00000
     2  N(14)              0.00000       0.00000       0.00000       0.00000
     3  N(14)              0.00000       0.00000       0.00000       0.00000
     4  H(1)              -0.00000      -0.00000      -0.00000      -0.00000
     5  H(1)               0.00000       0.00000       0.00000       0.00000
     6  H(1)              -0.00000      -0.00000      -0.00000      -0.00000
     7  H(1)              -0.00000      -0.00000      -0.00000      -0.00000
 --------------------------------------------------------
       Center         ----  Spin Dipole Couplings  ----
                      3XX-RR        3YY-RR        3ZZ-RR
 --------------------------------------------------------
     1   Atom        0.000000      0.000000      0.000000
     2   Atom        0.000000      0.000000      0.000000
     3   Atom        0.000000      0.000000      0.000000
     4   Atom        0.000000      0.000000      0.000000
     5   Atom        0.000000      0.000000      0.000000
     6   Atom        0.000000      0.000000      0.000000
     7   Atom        0.000000      0.000000      0.000000
 --------------------------------------------------------
                        XY            XZ            YZ
 --------------------------------------------------------
     1   Atom        0.000000      0.000000      0.000000
     2   Atom        0.000000      0.000000      0.000000
     3   Atom        0.000000      0.000000      0.000000
     4   Atom        0.000000      0.000000      0.000000
     5   Atom        0.000000      0.000000      0.000000
     6   Atom        0.000000      0.000000      0.000000
     7   Atom        0.000000      0.000000      0.000000
 --------------------------------------------------------


 ---------------------------------------------------------------------------------
              Anisotropic Spin Dipole Couplings in Principal Axis System
 ---------------------------------------------------------------------------------

       Atom             a.u.   MegaHertz   Gauss  10(-4) cm-1        Axes

              Baa     0.0000     0.000     0.000     0.000  1.0000  0.0000  0.0000
     1 C(13)  Bbb     0.0000     0.000     0.000     0.000 -0.0000  1.0000  0.0000
              Bcc     0.0000     0.000     0.000     0.000  0.0000  0.0000  1.0000
 
              Baa     0.0000     0.000     0.000     0.000  1.0000  0.0000  0.0000
     2 N(14)  Bbb     0.0000     0.000     0.000     0.000 -0.0000  1.0000  0.0000
              Bcc     0.0000     0.000     0.000     0.000  0.0000  0.0000  1.0000
 
              Baa     0.0000     0.000     0.000     0.000  1.0000  0.0000  0.0000
     3 N(14)  Bbb     0.0000     0.000     0.000     0.000 -0.0000  1.0000  0.0000
              Bcc     0.0000     0.000     0.000     0.000  0.0000  0.0000  1.0000
 
              Baa     0.0000     0.000     0.000     0.000  1.0000  0.0000  0.0000
     4 H(1)   Bbb     0.0000     0.000     0.000     0.000 -0.0000  1.0000  0.0000
              Bcc     0.0000     0.000     0.000     0.000  0.0000  0.0000  1.0000
 
              Baa     0.0000     0.000     0.000     0.000  1.0000  0.0000  0.0000
     5 H(1)   Bbb     0.0000     0.000     0.000     0.000 -0.0000  1.0000  0.0000
              Bcc     0.0000     0.000     0.000     0.000  0.0000  0.0000  1.0000
 
              Baa     0.0000     0.000     0.000     0.000  1.0000  0.0000  0.0000
     6 H(1)   Bbb     0.0000     0.000     0.000     0.000 -0.0000  1.0000  0.0000
              Bcc     0.0000     0.000     0.000     0.000  0.0000  0.0000  1.0000
 
              Baa     0.0000     0.000     0.000     0.000  1.0000  0.0000  0.0000
     7 H(1)   Bbb     0.0000     0.000     0.000     0.000 -0.0000  1.0000  0.0000
              Bcc     0.0000     0.000     0.000     0.000  0.0000  0.0000  1.0000
 

 ---------------------------------------------------------------------------------

 No NMR shielding tensors so no spin-rotation constants.
 Leave Link  601 at Tue Jan  3 09:03:19 2023, MaxMem=   536870912 cpu:               0.3 elap:               0.2
 (Enter /opt/software/gaussian/g16.c01/l801.exe)
 DoSCS=F DFT=T ScalE2(SS,OS)=  1.000000  1.000000
 Range of M.O.s used for correlation:     1    62
 NBasis=    62 NAE=    12 NBE=    12 NFC=     0 NFV=     0
 NROrb=     62 NOA=    12 NOB=    12 NVA=    50 NVB=    50
 Leave Link  801 at Tue Jan  3 09:03:19 2023, MaxMem=   536870912 cpu:               0.1 elap:               0.1
 (Enter /opt/software/gaussian/g16.c01/l914.exe)
 UHF ground state
 Doing stability rather than CIS.
 Keep R1 and R2 ints in memory in canonical form, NReq=6219845.
 FoFCou: FMM=F IPFlag=           0 FMFlag=           0 FMFlg1=           0
         NFxFlg=           0 DoJE=F BraDBF=F KetDBF=F FulRan=T
         wScrn=  0.000000 ICntrl=       600 IOpCl=  0 I1Cent=           0 NGrid=           0
         NMat0=    1 NMatS0=   1953 NMatT0=    0 NMatD0=    1 NMtDS0=    0 NMtDT0=    0
 Symmetry not used in FoFCou.
 Two-electron integral symmetry not used.
 MDV=   536870912 DFT=T DoStab=T Mixed=T DoRPA=F DoScal=F NonHer=F
 Making orbital integer symmetry assigments:
    12 initial guesses have been made.
 Convergence on wavefunction:    0.001000000000000
 Davidson Disk Diagonalization:  ConvIn= 1.00D-03 SkipCon=T Conv= 1.00D-03.
 Max sub-space:  2000 roots to seek:    12 dimension of matrix:         1200
 Iteration     1 Dimension    12 NMult     0 NNew     12
 CISAX will form    12 AO SS matrices at one time.
 NMat=    12 NSing=    12 JSym2X= 0.
 Excitation Energies [eV] at current iteration:
 Root      1 :     0.979265744895386
 Root      2 :     4.358204885227384
 Root      3 :     4.593004449558700
 Root      4 :     4.605894342033013
 Root      5 :     6.159794371680758
 Root      6 :     6.281036308786046
 Root      7 :     6.401925723337555
 Root      8 :     6.748377423973240
 Root      9 :     7.017297429014007
 Root     10 :     7.109743077944452
 Root     11 :     7.534795738902394
 Root     12 :    14.285831630112511
 Iteration     2 Dimension    24 NMult    12 NNew     12
 CISAX will form    12 AO SS matrices at one time.
 NMat=    12 NSing=    12 JSym2X= 0.
 Root      1 not converged, maximum delta is    0.051908823109780
 Excitation Energies [eV] at current iteration:
 Root      1 :     0.714406817153560   Change is   -0.264858927741826
 Root      2 :     4.254900959919617   Change is   -0.103303925307767
 Root      3 :     4.494000361973022   Change is   -0.111893980059991
 Root      4 :     4.575854318168274   Change is   -0.017150131390426
 Root      5 :     5.930212139047302   Change is   -0.229582232633456
 Root      6 :     5.993316107188262   Change is   -0.287720201597784
 Root      7 :     6.229019151664226   Change is   -0.172906571673328
 Root      8 :     6.571498097921316   Change is   -0.176879326051924
 Root      9 :     6.893813521743715   Change is   -0.215929556200737
 Root     10 :     6.913864818450971   Change is   -0.103432610563036
 Root     11 :     7.342906865608578   Change is   -0.191888873293817
 Root     12 :    11.282387138667110   Change is   -3.003444491445403
 Iteration     3 Dimension    27 NMult    24 NNew      3
 CISAX will form     3 AO SS matrices at one time.
 NMat=     3 NSing=     3 JSym2X= 0.
 Root      1 not converged, maximum delta is    0.003764014744008
 Excitation Energies [eV] at current iteration:
 Root      1 :     0.709968090090196   Change is   -0.004438727063364
 Root      2 :     4.253404327379372   Change is   -0.001496632540245
 Root      3 :     4.492373794195275   Change is   -0.001626567777747
 Iteration     4 Dimension    30 NMult    27 NNew      3
 CISAX will form     3 AO SS matrices at one time.
 NMat=     3 NSing=     3 JSym2X= 0.
 Root      1 not converged, maximum delta is    0.001200537445199
 Excitation Energies [eV] at current iteration:
 Root      1 :     0.709831813855626   Change is   -0.000136276234570
 Root      2 :     4.253342750388294   Change is   -0.000061576991079
 Root      3 :     4.492307264870002   Change is   -0.000066529325273
 Iteration     5 Dimension    33 NMult    30 NNew      3
 CISAX will form     3 AO SS matrices at one time.
 NMat=     3 NSing=     3 JSym2X= 0.
 Root      1 has converged.
 Excitation Energies [eV] at current iteration:
 Root      1 :     0.709828395239677   Change is   -0.000003418615949
 Root      2 :     4.253341633213979   Change is   -0.000001117174314
 Root      3 :     4.492306141720082   Change is   -0.000001123149920
 Convergence achieved on expansion vectors.
 ***********************************************************************
 Stability analysis using <AA,BB:AA,BB> singles matrix:
 ***********************************************************************
 1PDM for each excited state written to RWF  633
 Ground to excited state transition densities written to RWF  633

 Eigenvectors of the stability matrix:
 
 Excited state symmetry could not be determined.
 Eigenvector   1:  3.000-?Sym  Eigenvalue= 0.0260857  <S**2>=2.000
     12A -> 13A       -0.70193
     12B -> 13B        0.70193
 The wavefunction is stable under the perturbations considered.
 Leave Link  914 at Tue Jan  3 09:03:37 2023, MaxMem=   536870912 cpu:              35.4 elap:              17.8
 (Enter /opt/software/gaussian/g16.c01/l508.exe)
 The wavefunction is already stable.
 Leave Link  508 at Tue Jan  3 09:03:37 2023, MaxMem=   536870912 cpu:               0.0 elap:               0.0
 (Enter /opt/software/gaussian/g16.c01/l601.exe)
 Copying SCF densities to generalized density rwf, IOpCl= 1 IROHF=0.

 **********************************************************************

            Population analysis using the SCF Density.

 **********************************************************************

 Alpha  occ. eigenvalues --  -14.44378 -14.30119 -10.20278  -1.02460  -0.79633
 Alpha  occ. eigenvalues --   -0.63658  -0.55736  -0.47830  -0.42571  -0.41206
 Alpha  occ. eigenvalues --   -0.26840  -0.18988
 Alpha virt. eigenvalues --   -0.00995   0.02263   0.10189   0.11611   0.14173
 Alpha virt. eigenvalues --    0.24590   0.33727   0.43353   0.47324   0.49547
 Alpha virt. eigenvalues --    0.51658   0.58187   0.64053   0.66902   0.67473
 Alpha virt. eigenvalues --    0.73927   0.77416   0.80033   0.81515   0.93737
 Alpha virt. eigenvalues --    0.96412   1.05160   1.18428   1.25842   1.27917
 Alpha virt. eigenvalues --    1.38794   1.50896   1.51231   1.64498   1.65477
 Alpha virt. eigenvalues --    1.81569   1.87710   1.95493   2.00006   2.02385
 Alpha virt. eigenvalues --    2.11160   2.16862   2.24895   2.32375   2.45014
 Alpha virt. eigenvalues --    2.45162   2.55435   2.70926   2.86446   2.89211
 Alpha virt. eigenvalues --    2.92731   3.07916   3.16809   3.37105   3.59810
  Beta  occ. eigenvalues --  -14.44378 -14.30119 -10.20278  -1.02460  -0.79633
  Beta  occ. eigenvalues --   -0.63658  -0.55736  -0.47830  -0.42571  -0.41206
  Beta  occ. eigenvalues --   -0.26840  -0.18988
  Beta virt. eigenvalues --   -0.00995   0.02263   0.10189   0.11611   0.14173
  Beta virt. eigenvalues --    0.24590   0.33727   0.43353   0.47324   0.49547
  Beta virt. eigenvalues --    0.51658   0.58187   0.64053   0.66902   0.67473
  Beta virt. eigenvalues --    0.73927   0.77416   0.80033   0.81515   0.93737
  Beta virt. eigenvalues --    0.96412   1.05160   1.18428   1.25842   1.27917
  Beta virt. eigenvalues --    1.38794   1.50896   1.51231   1.64498   1.65477
  Beta virt. eigenvalues --    1.81569   1.87710   1.95493   2.00006   2.02385
  Beta virt. eigenvalues --    2.11160   2.16862   2.24895   2.32375   2.45014
  Beta virt. eigenvalues --    2.45162   2.55435   2.70926   2.86446   2.89211
  Beta virt. eigenvalues --    2.92731   3.07916   3.16809   3.37105   3.59810
          Condensed to atoms (all electrons):
               1          2          3          4          5          6
     1  C    4.912264   0.542281  -0.111859   0.009460   0.385572   0.385540
     2  N    0.542281   5.840650   0.274219   0.001117  -0.019205  -0.017301
     3  N   -0.111859   0.274219   6.801141   0.274510   0.007339   0.008469
     4  H    0.009460   0.001117   0.274510   0.670865  -0.001088  -0.000928
     5  H    0.385572  -0.019205   0.007339  -0.001088   0.645772  -0.038964
     6  H    0.385540  -0.017301   0.008469  -0.000928  -0.038964   0.608806
     7  H   -0.045445   0.329375  -0.011278  -0.029183  -0.008705   0.010837
               7
     1  C   -0.045445
     2  N    0.329375
     3  N   -0.011278
     4  H   -0.029183
     5  H   -0.008705
     6  H    0.010837
     7  H    0.630976
          Atomic-Atomic Spin Densities.
               1          2          3          4          5          6
     1  C   -0.000000   0.000000   0.000000  -0.000000  -0.000000   0.000000
     2  N    0.000000   0.000000   0.000000  -0.000000  -0.000000  -0.000000
     3  N    0.000000   0.000000   0.000000   0.000000  -0.000000   0.000000
     4  H   -0.000000  -0.000000   0.000000  -0.000000   0.000000  -0.000000
     5  H   -0.000000  -0.000000  -0.000000   0.000000   0.000000  -0.000000
     6  H    0.000000  -0.000000   0.000000  -0.000000  -0.000000  -0.000000
     7  H    0.000000  -0.000000   0.000000   0.000000   0.000000  -0.000000
               7
     1  C    0.000000
     2  N   -0.000000
     3  N    0.000000
     4  H    0.000000
     5  H    0.000000
     6  H   -0.000000
     7  H   -0.000000
 Mulliken charges and spin densities:
               1          2
     1  C   -0.077813   0.000000
     2  N    0.048865  -0.000000
     3  N   -0.242541   0.000000
     4  H    0.075247  -0.000000
     5  H    0.029279   0.000000
     6  H    0.043541  -0.000000
     7  H    0.123423  -0.000000
 Sum of Mulliken charges =  -0.00000   0.00000
 Mulliken charges and spin densities with hydrogens summed into heavy atoms:
               1          2
     1  C   -0.004993   0.000000
     2  N    0.172288  -0.000000
     3  N   -0.167294   0.000000
 Electronic spatial extent (au):  <R**2>=            596.4069
 Charge=              0.0000 electrons
 Dipole moment (field-independent basis, Debye):
    X=              0.6478    Y=              0.8015    Z=              2.9737  Tot=              3.1472
 Quadrupole moment (field-independent basis, Debye-Ang):
   XX=            -12.5680   YY=            -20.5437   ZZ=            -22.3260
   XY=              2.2347   XZ=              8.2444   YZ=             -0.5812
 Traceless Quadrupole moment (field-independent basis, Debye-Ang):
   XX=              5.9112   YY=             -2.0644   ZZ=             -3.8468
   XY=              2.2347   XZ=              8.2444   YZ=             -0.5812
 Octapole moment (field-independent basis, Debye-Ang**2):
  XXX=            -84.4774  YYY=             10.3197  ZZZ=             39.6999  XYY=            -43.4370
  XXY=              8.5719  XXZ=             30.2698  XZZ=            -51.6241  YZZ=              5.2964
  YYZ=             11.4057  XYZ=             -2.5733
 Hexadecapole moment (field-independent basis, Debye-Ang**3):
 XXXX=           -458.5173 YYYY=            -25.8295 ZZZZ=           -109.0969 XXXY=             36.4615
 XXXZ=            127.2122 YYYX=             28.0063 YYYZ=            -11.7011 ZZZX=            113.0916
 ZZZY=            -13.9679 XXYY=           -118.1821 XXZZ=           -151.2385 YYZZ=            -21.7258
 XXYZ=            -10.3574 YYXZ=             32.5482 ZZXY=             14.7669
 N-N= 7.338254906404D+01 E-N=-4.953071213694D+02  KE= 1.484178063511D+02
                          Isotropic Fermi Contact Couplings
        Atom                 a.u.       MegaHertz       Gauss      10(-4) cm-1
     1  C(13)              0.00000       0.00000       0.00000       0.00000
     2  N(14)              0.00000       0.00000       0.00000       0.00000
     3  N(14)              0.00000       0.00000       0.00000       0.00000
     4  H(1)              -0.00000      -0.00000      -0.00000      -0.00000
     5  H(1)               0.00000       0.00000       0.00000       0.00000
     6  H(1)              -0.00000      -0.00000      -0.00000      -0.00000
     7  H(1)              -0.00000      -0.00000      -0.00000      -0.00000
 --------------------------------------------------------
       Center         ----  Spin Dipole Couplings  ----
                      3XX-RR        3YY-RR        3ZZ-RR
 --------------------------------------------------------
     1   Atom        0.000000      0.000000      0.000000
     2   Atom        0.000000      0.000000      0.000000
     3   Atom        0.000000      0.000000      0.000000
     4   Atom        0.000000      0.000000      0.000000
     5   Atom        0.000000      0.000000      0.000000
     6   Atom        0.000000      0.000000      0.000000
     7   Atom        0.000000      0.000000      0.000000
 --------------------------------------------------------
                        XY            XZ            YZ
 --------------------------------------------------------
     1   Atom        0.000000      0.000000      0.000000
     2   Atom        0.000000      0.000000      0.000000
     3   Atom        0.000000      0.000000      0.000000
     4   Atom        0.000000      0.000000      0.000000
     5   Atom        0.000000      0.000000      0.000000
     6   Atom        0.000000      0.000000      0.000000
     7   Atom        0.000000      0.000000      0.000000
 --------------------------------------------------------


 ---------------------------------------------------------------------------------
              Anisotropic Spin Dipole Couplings in Principal Axis System
 ---------------------------------------------------------------------------------

       Atom             a.u.   MegaHertz   Gauss  10(-4) cm-1        Axes

              Baa     0.0000     0.000     0.000     0.000  1.0000  0.0000  0.0000
     1 C(13)  Bbb     0.0000     0.000     0.000     0.000 -0.0000  1.0000  0.0000
              Bcc     0.0000     0.000     0.000     0.000  0.0000  0.0000  1.0000
 
              Baa     0.0000     0.000     0.000     0.000  1.0000  0.0000  0.0000
     2 N(14)  Bbb     0.0000     0.000     0.000     0.000 -0.0000  1.0000  0.0000
              Bcc     0.0000     0.000     0.000     0.000  0.0000  0.0000  1.0000
 
              Baa     0.0000     0.000     0.000     0.000  1.0000  0.0000  0.0000
     3 N(14)  Bbb     0.0000     0.000     0.000     0.000 -0.0000  1.0000  0.0000
              Bcc     0.0000     0.000     0.000     0.000  0.0000  0.0000  1.0000
 
              Baa     0.0000     0.000     0.000     0.000  1.0000  0.0000  0.0000
     4 H(1)   Bbb     0.0000     0.000     0.000     0.000 -0.0000  1.0000  0.0000
              Bcc     0.0000     0.000     0.000     0.000  0.0000  0.0000  1.0000
 
              Baa     0.0000     0.000     0.000     0.000  1.0000  0.0000  0.0000
     5 H(1)   Bbb     0.0000     0.000     0.000     0.000 -0.0000  1.0000  0.0000
              Bcc     0.0000     0.000     0.000     0.000  0.0000  0.0000  1.0000
 
              Baa     0.0000     0.000     0.000     0.000  1.0000  0.0000  0.0000
     6 H(1)   Bbb     0.0000     0.000     0.000     0.000 -0.0000  1.0000  0.0000
              Bcc     0.0000     0.000     0.000     0.000  0.0000  0.0000  1.0000
 
              Baa     0.0000     0.000     0.000     0.000  1.0000  0.0000  0.0000
     7 H(1)   Bbb     0.0000     0.000     0.000     0.000 -0.0000  1.0000  0.0000
              Bcc     0.0000     0.000     0.000     0.000  0.0000  0.0000  1.0000
 

 ---------------------------------------------------------------------------------

 No NMR shielding tensors so no spin-rotation constants.
 Leave Link  601 at Tue Jan  3 09:03:37 2023, MaxMem=   536870912 cpu:               0.3 elap:               0.2
 (Enter /opt/software/gaussian/g16.c01/l9999.exe)

 Test job not archived.
 1\1\GINC-GRA704\Stability\UB3LYP\Gen\C1H4N2\BHAVUK\03-Jan-2023\0\\#p u
 b3lyp/gen stable=opt scf=(maxcycle=900,verytightlineq,xqc) integral=gr
 id=ultrafine symmetry=None density=current iop(99/18=-1) output=wfn\\0
 001_q000_m01_k00_opt_uwb97xd_def2svpd/0001_q000_m01_k00_force_ub3lyp_d
 ef2svp stable-force\\0,1\C,0,1.0726168695,-0.0701991232,-0.153012633\N
 ,0,2.3779437514,-0.0897456927,-0.2543854931\N,0,3.0833554789,-0.368469
 7824,-1.3087287982\H,0,4.0640493508,-0.2926697434,-1.0476368317\H,0,0.
 6399628731,0.1851542916,0.8085260928\H,0,0.4830438364,-0.3099796861,-1
 .0337247999\H,0,2.8674978397,0.1458797364,0.6131324666\\Version=ES64L-
 G16RevC.01\HF=-149.8134126\S2=0.\S2-1=0.\S2A=0.\RMSD=3.871e-09\Dipole=
 0.2548638,0.3153356,1.1699462\Quadrupole=4.3948616,-1.5348676,-2.85999
 41,1.6614152,6.1295128,-0.4320876\PG=Unknown\\@

 Writing a WFN file to "0001_q000_m01_k00_force_ub3lyp_def2svp.wfn"


 WHEN ALL ELSE FAILS, LOOK AT THE SCHRODINGER EQUATION.
     -- RUSSELL T. PACK, APRIL 1978
 Job cpu time:       0 days  0 hours  0 minutes 47.5 seconds.
 Elapsed time:       0 days  0 hours  0 minutes 23.9 seconds.
 File lengths (MBytes):  RWF=     49 Int=      0 D2E=      0 Chk=      2 Scr=      1
 Normal termination of Gaussian 16 at Tue Jan  3 09:03:37 2023.
 Initial command:
 /opt/software/gaussian/g16.c01/l1.exe "/localscratch/bhavuk.2151332.0/Gau-16526.inp" -scrdir="/localscratch/bhavuk.2151332.0/"
 Entering Link 1 = /opt/software/gaussian/g16.c01/l1.exe PID=     16975.
  
 Copyright (c) 1988-2019, Gaussian, Inc.  All Rights Reserved.
  
 This is part of the Gaussian(R) 16 program.  It is based on
 the Gaussian(R) 09 system (copyright 2009, Gaussian, Inc.),
 the Gaussian(R) 03 system (copyright 2003, Gaussian, Inc.),
 the Gaussian(R) 98 system (copyright 1998, Gaussian, Inc.),
 the Gaussian(R) 94 system (copyright 1995, Gaussian, Inc.),
 the Gaussian 92(TM) system (copyright 1992, Gaussian, Inc.),
 the Gaussian 90(TM) system (copyright 1990, Gaussian, Inc.),
 the Gaussian 88(TM) system (copyright 1988, Gaussian, Inc.),
 the Gaussian 86(TM) system (copyright 1986, Carnegie Mellon
 University), and the Gaussian 82(TM) system (copyright 1983,
 Carnegie Mellon University). Gaussian is a federally registered
 trademark of Gaussian, Inc.
  
 This software contains proprietary and confidential information,
 including trade secrets, belonging to Gaussian, Inc.
  
 This software is provided under written license and may be
 used, copied, transmitted, or stored only in accord with that
 written license.
  
 The following legend is applicable only to US Government
 contracts under FAR:
  
                    RESTRICTED RIGHTS LEGEND
  
 Use, reproduction and disclosure by the US Government is
 subject to restrictions as set forth in subparagraphs (a)
 and (c) of the Commercial Computer Software - Restricted
 Rights clause in FAR 52.227-19.
  
 Gaussian, Inc.
 340 Quinnipiac St., Bldg. 40, Wallingford CT 06492
  
  
 ---------------------------------------------------------------
 Warning -- This program may not be used in any manner that
 competes with the business of Gaussian, Inc. or will provide
 assistance to any competitor of Gaussian, Inc.  The licensee
 of this program is prohibited from giving any competitor of
 Gaussian, Inc. access to this program.  By using this program,
 the user acknowledges that Gaussian, Inc. is engaged in the
 business of creating and licensing software in the field of
 computational chemistry and represents and warrants to the
 licensee that it is not a competitor of Gaussian, Inc. and that
 it will not use this program in any manner prohibited above.
 ---------------------------------------------------------------
  

 Cite this work as:
 Gaussian 16, Revision C.01,
 M. J. Frisch, G. W. Trucks, H. B. Schlegel, G. E. Scuseria, 
 M. A. Robb, J. R. Cheeseman, G. Scalmani, V. Barone, 
 G. A. Petersson, H. Nakatsuji, X. Li, M. Caricato, A. V. Marenich, 
 J. Bloino, B. G. Janesko, R. Gomperts, B. Mennucci, H. P. Hratchian, 
 J. V. Ortiz, A. F. Izmaylov, J. L. Sonnenberg, D. Williams-Young, 
 F. Ding, F. Lipparini, F. Egidi, J. Goings, B. Peng, A. Petrone, 
 T. Henderson, D. Ranasinghe, V. G. Zakrzewski, J. Gao, N. Rega, 
 G. Zheng, W. Liang, M. Hada, M. Ehara, K. Toyota, R. Fukuda, 
 J. Hasegawa, M. Ishida, T. Nakajima, Y. Honda, O. Kitao, H. Nakai, 
 T. Vreven, K. Throssell, J. A. Montgomery, Jr., J. E. Peralta, 
 F. Ogliaro, M. J. Bearpark, J. J. Heyd, E. N. Brothers, K. N. Kudin, 
 V. N. Staroverov, T. A. Keith, R. Kobayashi, J. Normand, 
 K. Raghavachari, A. P. Rendell, J. C. Burant, S. S. Iyengar, 
 J. Tomasi, M. Cossi, J. M. Millam, M. Klene, C. Adamo, R. Cammi, 
 J. W. Ochterski, R. L. Martin, K. Morokuma, O. Farkas, 
 J. B. Foresman, and D. J. Fox, Gaussian, Inc., Wallingford CT, 2019.
 
 ******************************************
 Gaussian 16:  ES64L-G16RevC.01  3-Jul-2019
                 3-Jan-2023 
 ******************************************
 %chk=0001_q000_m01_k00_force_ub3lyp_def2svp.chk
 %nprocshared=2
 Will use up to    2 processors via shared memory.
 %mem=4GB
 ----------------------------------------------------------------------
 #p ub3lyp/chkbasis force guess=read geom=check scf=(maxcycle=900,veryt
 ightlineq,xqc) integral=grid=ultrafine symmetry=None density=current p
 op=(cm5,hlygat,mbs,npa) output=wfx
 ----------------------------------------------------------------------
 1/10=7,29=2,30=1,38=1/1,3;
 2/12=2,15=3,40=1/2;
 3/5=7,6=2,11=2,14=-4,25=1,30=1,67=1,71=1,74=-5,75=-5,116=2/1,2,3;
 4/5=1/1;
 5/5=2,7=900,8=3,13=1,17=3,38=6/2,8;
 6/7=2,8=2,9=2,10=2,15=8,20=15,22=-1,27=100,28=1,40=-1,79=1/1,2,7;
 7/29=1,30=1/1,2,3,16;
 1/10=7,30=1/3;
 99/6=200/99;
 Leave Link    1 at Tue Jan  3 09:03:37 2023, MaxMem=   536870912 cpu:               0.1 elap:               0.1
 (Enter /opt/software/gaussian/g16.c01/l101.exe)
 ----------------------------------------------------------------------
 0001_q000_m01_k00_opt_uwb97xd_def2svpd/0001_q000_m01_k00_force_ub3lyp_
 def2svp stable-force
 ----------------------------------------------------------------------
 Structure from the checkpoint file:  "0001_q000_m01_k00_force_ub3lyp_def2svp.chk"
 Charge =  0 Multiplicity = 1
 Z-Matrix found in chk file.
 C,0,1.0726168695,-0.0701991232,-0.153012633
 N,0,2.3779437514,-0.0897456927,-0.2543854931
 N,0,3.0833554789,-0.3684697824,-1.3087287982
 H,0,4.0640493508,-0.2926697434,-1.0476368317
 H,0,0.6399628731,0.1851542916,0.8085260928
 H,0,0.4830438364,-0.3099796861,-1.0337247999
 H,0,2.8674978397,0.1458797364,0.6131324666
 Recover connectivity data from disk.
 ITRead=  0  0  0  0  0  0  0
 MicOpt= -1 -1 -1 -1 -1 -1 -1
 NAtoms=      7 NQM=        7 NQMF=       0 NMMI=      0 NMMIF=      0
                NMic=       0 NMicF=      0.
                    Isotopes and Nuclear Properties:
 (Nuclear quadrupole moments (NQMom) in fm**2, nuclear magnetic moments (NMagM)
  in nuclear magnetons)

  Atom         1           2           3           4           5           6           7
 IAtWgt=          12          14          14           1           1           1           1
 AtmWgt=  12.0000000  14.0030740  14.0030740   1.0078250   1.0078250   1.0078250   1.0078250
 NucSpn=           0           2           2           1           1           1           1
 AtZEff=   3.6000000   4.5500000   4.5500000   1.0000000   1.0000000   1.0000000   1.0000000
 NQMom=    0.0000000   2.0440000   2.0440000   0.0000000   0.0000000   0.0000000   0.0000000
 NMagM=    0.0000000   0.4037610   0.4037610   2.7928460   2.7928460   2.7928460   2.7928460
 AtZNuc=   6.0000000   7.0000000   7.0000000   1.0000000   1.0000000   1.0000000   1.0000000
 Leave Link  101 at Tue Jan  3 09:03:38 2023, MaxMem=   536870912 cpu:               0.3 elap:               0.2
 (Enter /opt/software/gaussian/g16.c01/l103.exe)

 GradGradGradGradGradGradGradGradGradGradGradGradGradGradGradGradGradGrad
 Berny optimization.
 Initialization pass.
 Trust Radius=3.00D-01 FncErr=1.00D-07 GrdErr=1.00D-07 EigMax=2.50D+02 EigMin=1.00D-04
 Number of steps in this run=      2 maximum allowed number of steps=      2.
 GradGradGradGradGradGradGradGradGradGradGradGradGradGradGradGradGradGrad

 Leave Link  103 at Tue Jan  3 09:03:38 2023, MaxMem=   536870912 cpu:               0.1 elap:               0.0
 (Enter /opt/software/gaussian/g16.c01/l202.exe)
                          Input orientation:                          
 ---------------------------------------------------------------------
 Center     Atomic      Atomic             Coordinates (Angstroms)
 Number     Number       Type             X           Y           Z
 ---------------------------------------------------------------------
      1          6           0        1.072617   -0.070199   -0.153013
      2          7           0        2.377944   -0.089746   -0.254385
      3          7           0        3.083355   -0.368470   -1.308729
      4          1           0        4.064049   -0.292670   -1.047637
      5          1           0        0.639963    0.185154    0.808526
      6          1           0        0.483044   -0.309980   -1.033725
      7          1           0        2.867498    0.145880    0.613132
 ---------------------------------------------------------------------
                    Distance matrix (angstroms):
                    1          2          3          4          5
     1  C    0.000000
     2  N    1.309403   0.000000
     3  N    2.338315   1.298820   0.000000
     4  H    3.130258   1.874401   1.017681   0.000000
     5  H    1.084874   2.055706   3.280158   3.924032   0.000000
     6  H    1.086621   2.060708   2.615467   3.581074   1.914071
     7  H    1.963483   1.023606   2.001175   2.093374   2.236433
                    6          7
     6  H    0.000000
     7  H    2.933525   0.000000
 Symmetry turned off by external request.
 Stoichiometry    CH4N2
 Rotational constants (GHZ):          71.2642239          11.2793619           9.7380671
 Leave Link  202 at Tue Jan  3 09:03:38 2023, MaxMem=   536870912 cpu:               0.0 elap:               0.0
 (Enter /opt/software/gaussian/g16.c01/l301.exe)
 Basis read from chk: "0001_q000_m01_k00_force_ub3lyp_def2svp.chk" (5D, 7F)
 No pseudopotential information found on chk file.
    62 basis functions,   103 primitive gaussians,    65 cartesian basis functions
    12 alpha electrons       12 beta electrons
       nuclear repulsion energy        73.3825490640 Hartrees.
 IExCor=  402 DFT=T Ex+Corr=B3LYP ExCW=0 ScaHFX=  0.200000
 ScaDFX=  0.800000  0.720000  1.000000  0.810000 ScalE2=  1.000000  1.000000
 IRadAn=      5 IRanWt=     -1 IRanGd=            0 ICorTp=0 IEmpDi=  4
 NAtoms=    7 NActive=    7 NUniq=    7 SFac= 1.00D+00 NAtFMM=   60 NAOKFM=F Big=F
 Integral buffers will be    131072 words long.
 Raffenetti 2 integral format.
 Two-electron integral symmetry is turned off.
 No density basis found on file  20724.
 Leave Link  301 at Tue Jan  3 09:03:38 2023, MaxMem=   536870912 cpu:               0.1 elap:               0.1
 (Enter /opt/software/gaussian/g16.c01/l302.exe)
 NPDir=0 NMtPBC=     1 NCelOv=     1 NCel=       1 NClECP=     1 NCelD=      1
         NCelK=      1 NCelE2=     1 NClLst=     1 CellRange=     0.0.
 One-electron integrals computed using PRISM.
 NBasis=    62 RedAO= T EigKep=  5.91D-03  NBF=    62
 NBsUse=    62 1.00D-06 EigRej= -1.00D+00 NBFU=    62
 Precomputing XC quadrature grid using
 IXCGrd= 4 IRadAn=           5 IRanWt=          -1 IRanGd=           0 AccXCQ= 0.00D+00.
 Generated NRdTot=       0 NPtTot=           0 NUsed=           0 NTot=          32
 NSgBfM=    65    65    65    65    65 MxSgAt=     7 MxSgA2=     7.
 Leave Link  302 at Tue Jan  3 09:03:38 2023, MaxMem=   536870912 cpu:               0.3 elap:               0.2
 (Enter /opt/software/gaussian/g16.c01/l303.exe)
 DipDrv:  MaxL=1.
 Leave Link  303 at Tue Jan  3 09:03:38 2023, MaxMem=   536870912 cpu:               0.1 elap:               0.1
 (Enter /opt/software/gaussian/g16.c01/l401.exe)
 Initial guess from the checkpoint file:  "0001_q000_m01_k00_force_ub3lyp_def2svp.chk"
 B after Tr=     0.000000    0.000000    0.000000
         Rot=    1.000000    0.000000    0.000000    0.000000 Ang=   0.00 deg.
 Guess basis will be translated and rotated to current coordinates.
 JPrj=2 DoOrth=T DoCkMO=T.
 Initial guess <Sx>= 0.0000 <Sy>= 0.0000 <Sz>= 0.0000 <S**2>=-0.0000 S=-0.0000
 Leave Link  401 at Tue Jan  3 09:03:38 2023, MaxMem=   536870912 cpu:               0.2 elap:               0.1
 (Enter /opt/software/gaussian/g16.c01/l502.exe)
 Keep R1 and R2 ints in memory in canonical form, NReq=5595459.
 FoFCou: FMM=F IPFlag=           0 FMFlag=           0 FMFlg1=           0
         NFxFlg=           0 DoJE=F BraDBF=F KetDBF=F FulRan=T
         wScrn=  0.000000 ICntrl=       600 IOpCl=  0 I1Cent=           0 NGrid=           0
         NMat0=    1 NMatS0=   1953 NMatT0=    0 NMatD0=    1 NMtDS0=    0 NMtDT0=    0
 Symmetry not used in FoFCou.
 Two-electron integral symmetry not used.
 UHF open shell SCF:
 Using DIIS extrapolation, IDIIS=  1040.
 NGot=   536870912 LenX=   533045055 LenY=   533040389
 Requested convergence on RMS density matrix=1.00D-08 within 128 cycles.
 Requested convergence on MAX density matrix=1.00D-06.
 Requested convergence on             energy=1.00D-06.
 No special actions if energy rises.

 Cycle   1  Pass 1  IDiag  1:
 E= -149.813412587441    
 DIIS: error= 6.54D-09 at cycle   1 NSaved=   1.
 NSaved= 1 IEnMin= 1 EnMin= -149.813412587441     IErMin= 1 ErrMin= 6.54D-09
 ErrMax= 6.54D-09  0.00D+00 EMaxC= 1.00D-01 BMatC= 1.18D-14 BMatP= 1.18D-14
 IDIUse=1 WtCom= 1.00D+00 WtEn= 0.00D+00
 Coeff-Com:  0.100D+01
 Coeff:      0.100D+01
 Gap=     0.180 Goal=   None    Shift=    0.000
 Gap=     0.180 Goal=   None    Shift=    0.000
 RMSDP=2.19D-09 MaxDP=3.75D-08              OVMax= 4.96D-08

 SCF Done:  E(UB3LYP) =  -149.813412587     A.U. after    1 cycles
            NFock=  1  Conv=0.22D-08     -V/T= 2.0094
 <Sx>= 0.0000 <Sy>= 0.0000 <Sz>= 0.0000 <S**2>= 0.0000 S= 0.0000
 <L.S>=  0.00000000000    
 KE= 1.484178055836D+02 PE=-4.953071206018D+02 EE= 1.236933533668D+02
 Annihilation of the first spin contaminant:
 S**2 before annihilation     0.0000,   after    -0.0000
 Leave Link  502 at Tue Jan  3 09:03:39 2023, MaxMem=   536870912 cpu:               1.3 elap:               0.7
 (Enter /opt/software/gaussian/g16.c01/l508.exe)
 QCSCF skips out because SCF is already converged.
 Leave Link  508 at Tue Jan  3 09:03:39 2023, MaxMem=   536870912 cpu:               0.0 elap:               0.0
 (Enter /opt/software/gaussian/g16.c01/l601.exe)
 Copying SCF densities to generalized density rwf, IOpCl= 1 IROHF=0.

 **********************************************************************

            Population analysis using the SCF Density.

 **********************************************************************

 Alpha  occ. eigenvalues --  -14.44378 -14.30119 -10.20278  -1.02460  -0.79633
 Alpha  occ. eigenvalues --   -0.63658  -0.55736  -0.47830  -0.42571  -0.41206
 Alpha  occ. eigenvalues --   -0.26840  -0.18988
 Alpha virt. eigenvalues --   -0.00995   0.02263   0.10189   0.11611   0.14173
 Alpha virt. eigenvalues --    0.24590   0.33727   0.43353   0.47324   0.49547
 Alpha virt. eigenvalues --    0.51658   0.58187   0.64053   0.66902   0.67473
 Alpha virt. eigenvalues --    0.73927   0.77416   0.80033   0.81515   0.93737
 Alpha virt. eigenvalues --    0.96412   1.05160   1.18428   1.25842   1.27917
 Alpha virt. eigenvalues --    1.38794   1.50896   1.51231   1.64498   1.65477
 Alpha virt. eigenvalues --    1.81569   1.87710   1.95493   2.00006   2.02385
 Alpha virt. eigenvalues --    2.11160   2.16862   2.24895   2.32375   2.45014
 Alpha virt. eigenvalues --    2.45162   2.55435   2.70926   2.86446   2.89211
 Alpha virt. eigenvalues --    2.92731   3.07916   3.16809   3.37105   3.59810
  Beta  occ. eigenvalues --  -14.44378 -14.30119 -10.20278  -1.02460  -0.79633
  Beta  occ. eigenvalues --   -0.63658  -0.55736  -0.47830  -0.42571  -0.41206
  Beta  occ. eigenvalues --   -0.26840  -0.18988
  Beta virt. eigenvalues --   -0.00995   0.02263   0.10189   0.11611   0.14173
  Beta virt. eigenvalues --    0.24590   0.33727   0.43353   0.47324   0.49547
  Beta virt. eigenvalues --    0.51658   0.58187   0.64053   0.66902   0.67473
  Beta virt. eigenvalues --    0.73927   0.77416   0.80033   0.81515   0.93737
  Beta virt. eigenvalues --    0.96412   1.05160   1.18428   1.25842   1.27917
  Beta virt. eigenvalues --    1.38794   1.50896   1.51231   1.64498   1.65477
  Beta virt. eigenvalues --    1.81569   1.87710   1.95493   2.00006   2.02385
  Beta virt. eigenvalues --    2.11160   2.16862   2.24895   2.32375   2.45014
  Beta virt. eigenvalues --    2.45162   2.55435   2.70926   2.86446   2.89211
  Beta virt. eigenvalues --    2.92731   3.07916   3.16809   3.37105   3.59810
          Condensed to atoms (all electrons):
               1          2          3          4          5          6
     1  C    4.912264   0.542281  -0.111859   0.009460   0.385572   0.385540
     2  N    0.542281   5.840650   0.274219   0.001117  -0.019205  -0.017301
     3  N   -0.111859   0.274219   6.801141   0.274509   0.007339   0.008469
     4  H    0.009460   0.001117   0.274509   0.670865  -0.001088  -0.000928
     5  H    0.385572  -0.019205   0.007339  -0.001088   0.645772  -0.038964
     6  H    0.385540  -0.017301   0.008469  -0.000928  -0.038964   0.608806
     7  H   -0.045445   0.329375  -0.011278  -0.029183  -0.008705   0.010837
               7
     1  C   -0.045445
     2  N    0.329375
     3  N   -0.011278
     4  H   -0.029183
     5  H   -0.008705
     6  H    0.010837
     7  H    0.630976
          Atomic-Atomic Spin Densities.
               1          2          3          4          5          6
     1  C    0.000000  -0.000000   0.000000  -0.000000  -0.000000   0.000000
     2  N   -0.000000   0.000000  -0.000000  -0.000000  -0.000000   0.000000
     3  N    0.000000  -0.000000  -0.000000   0.000000   0.000000  -0.000000
     4  H   -0.000000  -0.000000   0.000000  -0.000000  -0.000000  -0.000000
     5  H   -0.000000  -0.000000   0.000000  -0.000000  -0.000000   0.000000
     6  H    0.000000   0.000000  -0.000000  -0.000000   0.000000  -0.000000
     7  H    0.000000  -0.000000   0.000000  -0.000000   0.000000  -0.000000
               7
     1  C    0.000000
     2  N   -0.000000
     3  N    0.000000
     4  H   -0.000000
     5  H    0.000000
     6  H   -0.000000
     7  H   -0.000000
 Mulliken charges and spin densities:
               1          2
     1  C   -0.077813   0.000000
     2  N    0.048865   0.000000
     3  N   -0.242541  -0.000000
     4  H    0.075247  -0.000000
     5  H    0.029279  -0.000000
     6  H    0.043541  -0.000000
     7  H    0.123423  -0.000000
 Sum of Mulliken charges =   0.00000   0.00000
 Mulliken charges and spin densities with hydrogens summed into heavy atoms:
               1          2
     1  C   -0.004993  -0.000000
     2  N    0.172288   0.000000
     3  N   -0.167294  -0.000000
 Electronic spatial extent (au):  <R**2>=            596.4069
 Charge=              0.0000 electrons
 Dipole moment (field-independent basis, Debye):
    X=              0.6478    Y=              0.8015    Z=              2.9737  Tot=              3.1472
 Quadrupole moment (field-independent basis, Debye-Ang):
   XX=            -12.5680   YY=            -20.5437   ZZ=            -22.3260
   XY=              2.2347   XZ=              8.2444   YZ=             -0.5812
 Traceless Quadrupole moment (field-independent basis, Debye-Ang):
   XX=              5.9112   YY=             -2.0645   ZZ=             -3.8468
   XY=              2.2347   XZ=              8.2444   YZ=             -0.5812
 Octapole moment (field-independent basis, Debye-Ang**2):
  XXX=            -84.4774  YYY=             10.3197  ZZZ=             39.6999  XYY=            -43.4370
  XXY=              8.5719  XXZ=             30.2698  XZZ=            -51.6241  YZZ=              5.2964
  YYZ=             11.4057  XYZ=             -2.5733
 Hexadecapole moment (field-independent basis, Debye-Ang**3):
 XXXX=           -458.5173 YYYY=            -25.8295 ZZZZ=           -109.0969 XXXY=             36.4615
 XXXZ=            127.2122 YYYX=             28.0063 YYYZ=            -11.7011 ZZZX=            113.0916
 ZZZY=            -13.9679 XXYY=           -118.1821 XXZZ=           -151.2385 YYZZ=            -21.7258
 XXYZ=            -10.3574 YYXZ=             32.5482 ZZXY=             14.7669
 N-N= 7.338254906404D+01 E-N=-4.953071194607D+02  KE= 1.484178055836D+02
 There are a total of      155354 grid points.
 ElSum from          density=       24.0000002332
 ElSum from atomic densities=       23.9999991513
 Hirshfeld populations at iteration   1 (CA, CB, DipXYZ):
               1          2          3          4          5
     1  C    3.043197   3.043197   0.015440  -0.000320  -0.001488
     2  N    3.469631   3.469631   0.068709   0.005522   0.019079
     3  N    3.636511   3.636511   0.079677   0.079081   0.293013
     4  H    0.459458   0.459458   0.178644   0.014099   0.048649
     5  H    0.483029   0.483029  -0.066481   0.037804   0.142413
     6  H    0.479137   0.479137  -0.095796  -0.035192  -0.129052
     7  H    0.429037   0.429037   0.096742   0.041364   0.152058
       Tot  12.000000  12.000000   0.276934   0.142357   0.524671

 Dip from Atomic Chgs             -0.022072   0.172982   0.645275
         Total Dipole              0.254862   0.315339   1.169946

 Hirshfeld charges, spin densities, dipoles, and CM5 charges using IRadAn=      5:
              Q-H        S-H        Dx         Dy         Dz        Q-CM5   
     1  C   -0.086394   0.000000   0.015440  -0.000320  -0.001488  -0.101738
     2  N    0.060738  -0.000000   0.068709   0.005522   0.019079  -0.246530
     3  N   -0.273022   0.000000   0.079677   0.079081   0.293013  -0.479389
     4  H    0.081084  -0.000000   0.178644   0.014099   0.048649   0.283126
     5  H    0.033942   0.000000  -0.066481   0.037804   0.142413   0.096807
     6  H    0.041725  -0.000000  -0.095796  -0.035192  -0.129052   0.107002
     7  H    0.141927  -0.000000   0.096742   0.041364   0.152058   0.340722
       Tot  -0.000000  -0.000000   0.276934   0.142357   0.524671  -0.000000
 Hirshfeld charges and spin densities with hydrogens summed into heavy atoms:
              Q-H        S-H       Q-CM5   
     1  C   -0.010727   0.000000   0.102071
     2  N    0.202665  -0.000000   0.094192
     3  N   -0.191938  -0.000000  -0.196263
 
 EQQ=-0.872855519622E-30 EQD=-0.202958436134E-15 EDD= 0.710256540972E-02
 EQQ+QD+DD= 0.710256540972E-02
 
          MBS Condensed to atoms (all electrons):
               1          2          3          4          5          6
     1  C    4.993377   0.471797  -0.048002   0.003400   0.395399   0.388328
     2  N    0.471797   5.967899   0.375779  -0.036835  -0.022428  -0.022582
     3  N   -0.048002   0.375779   6.835128   0.321056   0.001352  -0.000300
     4  H    0.003400  -0.036835   0.321056   0.521175  -0.000142  -0.000019
     5  H    0.395399  -0.022428   0.001352  -0.000142   0.549572  -0.018868
     6  H    0.388328  -0.022582  -0.000300  -0.000019  -0.018868   0.529394
     7  H   -0.043071   0.332994  -0.024669  -0.012480  -0.005322   0.003065
               7
     1  C   -0.043071
     2  N    0.332994
     3  N   -0.024669
     4  H   -0.012480
     5  H   -0.005322
     6  H    0.003065
     7  H    0.486549
          MBS Atomic-Atomic Spin Densities.
               1          2          3          4          5          6
     1  C    0.000000  -0.000000   0.000000  -0.000000  -0.000000   0.000000
     2  N   -0.000000   0.000000  -0.000000  -0.000000   0.000000   0.000000
     3  N    0.000000  -0.000000  -0.000000   0.000000   0.000000  -0.000000
     4  H   -0.000000  -0.000000   0.000000   0.000000  -0.000000  -0.000000
     5  H   -0.000000   0.000000   0.000000  -0.000000   0.000000   0.000000
     6  H    0.000000   0.000000  -0.000000  -0.000000   0.000000  -0.000000
     7  H    0.000000   0.000000   0.000000  -0.000000  -0.000000   0.000000
               7
     1  C    0.000000
     2  N    0.000000
     3  N    0.000000
     4  H   -0.000000
     5  H   -0.000000
     6  H    0.000000
     7  H   -0.000000
 MBS Mulliken charges and spin densities:
               1          2
     1  C   -0.161228   0.000000
     2  N   -0.066624  -0.000000
     3  N   -0.460345  -0.000000
     4  H    0.203844   0.000000
     5  H    0.100437   0.000000
     6  H    0.120982  -0.000000
     7  H    0.262933   0.000000
 Sum of MBS Mulliken charges =  -0.00000  -0.00000
 MBS Mulliken charges and spin densities with hydrogens summed into heavy atoms:
               1          2
     1  C    0.060191   0.000000
     2  N    0.196309  -0.000000
     3  N   -0.256500  -0.000000
 MBS Atomic Valencies and Mayer Atomic Bond Orders:
               1          2          3          4          5          6
     1  C    3.835501   1.439209   0.451700   0.008436   0.969067   0.959050
     2  N    1.439209   3.658130   1.336212   0.010857   0.003273   0.002649
     3  N    0.451700   1.336212   2.771710   0.931441   0.008447   0.006270
     4  H    0.008436   0.010857   0.931441   0.958447   0.002969   0.000055
     5  H    0.969067   0.003273   0.008447   0.002969   0.989912   0.004464
     6  H    0.959050   0.002649   0.006270   0.000055   0.004464   0.985363
     7  H    0.008039   0.865930   0.037641   0.004689   0.001692   0.012876
               7
     1  C    0.008039
     2  N    0.865930
     3  N    0.037641
     4  H    0.004689
     5  H    0.001692
     6  H    0.012876
     7  H    0.930866
 MBS Mayer-style numbers of lone pairs (12.000 valence pairs, 4.935 lone pairs):
               1
     1  C    1.162863
     2  N    1.704247
     3  N    2.344317
     4  H   -0.081146
     5  H   -0.045175
     6  H   -0.053173
     7  H   -0.096900
 BEBO parameters in MulMin, MxElBE=  0:
 ELP=  0.00000000000     EBEBO=  0.00000000000     Sum=  0.00000000000    
 ELP=  0.00000000000     EBEBO=  0.00000000000     EJK=  0.00000000000      0.00000000000     Sum=  0.00000000000    
 0 EA=  0.00000000000     EB=  0.00000000000     ETot=  0.00000000000    
 1 EA=  0.00000000000     EB=  0.00000000000     ETot=  0.00000000000    
 2 EA=  0.00000000000     EB=  0.00000000000     ETot=  0.00000000000    
 3 EJ=  0.00000000000     EK=  0.00000000000     ETot=  0.00000000000    
 4 EJ=  0.00000000000     EK=  0.00000000000     ETot=  0.00000000000    
 5 EA=  0.00000000000     EB=  0.00000000000     ETot=  0.00000000000    
                          Isotropic Fermi Contact Couplings
        Atom                 a.u.       MegaHertz       Gauss      10(-4) cm-1
     1  C(13)              0.00000       0.00000       0.00000       0.00000
     2  N(14)             -0.00000      -0.00000      -0.00000      -0.00000
     3  N(14)              0.00000       0.00000       0.00000       0.00000
     4  H(1)              -0.00000      -0.00000      -0.00000      -0.00000
     5  H(1)               0.00000       0.00000       0.00000       0.00000
     6  H(1)              -0.00000      -0.00000      -0.00000      -0.00000
     7  H(1)              -0.00000      -0.00000      -0.00000      -0.00000
 --------------------------------------------------------
       Center         ----  Spin Dipole Couplings  ----
                      3XX-RR        3YY-RR        3ZZ-RR
 --------------------------------------------------------
     1   Atom        0.000000      0.000000      0.000000
     2   Atom        0.000000      0.000000      0.000000
     3   Atom        0.000000      0.000000      0.000000
     4   Atom        0.000000      0.000000      0.000000
     5   Atom        0.000000      0.000000      0.000000
     6   Atom        0.000000      0.000000      0.000000
     7   Atom        0.000000      0.000000      0.000000
 --------------------------------------------------------
                        XY            XZ            YZ
 --------------------------------------------------------
     1   Atom        0.000000      0.000000      0.000000
     2   Atom        0.000000      0.000000      0.000000
     3   Atom        0.000000      0.000000      0.000000
     4   Atom        0.000000      0.000000      0.000000
     5   Atom        0.000000      0.000000      0.000000
     6   Atom        0.000000      0.000000      0.000000
     7   Atom        0.000000      0.000000      0.000000
 --------------------------------------------------------


 ---------------------------------------------------------------------------------
              Anisotropic Spin Dipole Couplings in Principal Axis System
 ---------------------------------------------------------------------------------

       Atom             a.u.   MegaHertz   Gauss  10(-4) cm-1        Axes

              Baa     0.0000     0.000     0.000     0.000  1.0000  0.0000  0.0000
     1 C(13)  Bbb     0.0000     0.000     0.000     0.000 -0.0000  1.0000  0.0000
              Bcc     0.0000     0.000     0.000     0.000  0.0000  0.0000  1.0000
 
              Baa     0.0000     0.000     0.000     0.000  1.0000  0.0000  0.0000
     2 N(14)  Bbb     0.0000     0.000     0.000     0.000 -0.0000  1.0000  0.0000
              Bcc     0.0000     0.000     0.000     0.000  0.0000  0.0000  1.0000
 
              Baa     0.0000     0.000     0.000     0.000  1.0000  0.0000  0.0000
     3 N(14)  Bbb     0.0000     0.000     0.000     0.000 -0.0000  1.0000  0.0000
              Bcc     0.0000     0.000     0.000     0.000  0.0000  0.0000  1.0000
 
              Baa     0.0000     0.000     0.000     0.000  1.0000  0.0000  0.0000
     4 H(1)   Bbb     0.0000     0.000     0.000     0.000 -0.0000  1.0000  0.0000
              Bcc     0.0000     0.000     0.000     0.000  0.0000  0.0000  1.0000
 
              Baa     0.0000     0.000     0.000     0.000  1.0000  0.0000  0.0000
[...]
    47    H    4  pz     Ryd( 2p)     0.00044       1.78511
 
    48    H    5  S      Val( 1S)     0.40567       0.04828
    49    H    5  S      Ryd( 2S)     0.00046       0.31052
    50    H    5  px     Ryd( 2p)     0.00011       1.85904
    51    H    5  py     Ryd( 2p)     0.00020       1.64904
    52    H    5  pz     Ryd( 2p)     0.00031       2.22702
 
    53    H    6  S      Val( 1S)     0.39896       0.06781
    54    H    6  S      Ryd( 2S)     0.00125       0.32438
    55    H    6  px     Ryd( 2p)     0.00013       1.96227
    56    H    6  py     Ryd( 2p)     0.00012       1.65988
    57    H    6  pz     Ryd( 2p)     0.00028       2.16008
 
    58    H    7  S      Val( 1S)     0.31061       0.04409
    59    H    7  S      Ryd( 2S)     0.00264       0.34607
    60    H    7  px     Ryd( 2p)     0.00027       2.02914
    61    H    7  py     Ryd( 2p)     0.00022       1.63823
    62    H    7  pz     Ryd( 2p)     0.00054       2.19778


 Summary of Natural Population Analysis:                  
                                                          
                                       Natural Population 
                Natural  -----------------------------------------------
    Atom  No    Charge         Core      Valence    Rydberg      Total
 -----------------------------------------------------------------------
      C    1   -0.13277      0.99966     2.11977    0.01333     3.13277
      N    2   -0.11827      0.99962     2.61068    0.00797     3.61827
      N    3   -0.28187      0.99979     2.76817    0.01392     3.78187
      H    4    0.15468      0.00000     0.34270    0.00261     0.34532
      H    5    0.09324      0.00000     0.40567    0.00109     0.40676
      H    6    0.09926      0.00000     0.39896    0.00178     0.40074
      H    7    0.18573      0.00000     0.31061    0.00366     0.31427
 =======================================================================
   * Total *    0.00000      2.99907     8.95656    0.04437    12.00000

                                 Natural Population      
 --------------------------------------------------------
   Core                       2.99907 ( 99.9691% of   3)
   Valence                    8.95656 ( 99.5173% of   9)
   Natural Minimal Basis     11.95563 ( 99.6303% of  12)
   Natural Rydberg Basis      0.04437 (  0.3697% of  12)
 --------------------------------------------------------

    Atom  No          Natural Electron Configuration
 ----------------------------------------------------------------------------
      C    1      [core]2S( 0.51)2p( 1.61)3p( 0.01)
      N    2      [core]2S( 0.60)2p( 2.01)
      N    3      [core]2S( 0.76)2p( 2.01)3p( 0.01)
      H    4            1S( 0.34)
      H    5            1S( 0.41)
      H    6            1S( 0.40)
      H    7            1S( 0.31)


 NBO analysis skipped by request.


 ***************************************************
 *******         Beta  spin orbitals         *******
 ***************************************************


 NATURAL POPULATIONS:  Natural atomic orbital occupancies 
                                                          
   NAO  Atom  No  lang   Type(AO)    Occupancy      Energy
 ----------------------------------------------------------
     1    C    1  S      Cor( 1S)     0.99966     -10.09484
     2    C    1  S      Val( 2S)     0.50671      -0.19342
     3    C    1  S      Ryd( 3S)     0.00086       0.48795
     4    C    1  px     Val( 2p)     0.43489      -0.01036
     5    C    1  px     Ryd( 3p)     0.00374       0.45623
     6    C    1  py     Val( 2p)     0.58690      -0.12541
     7    C    1  py     Ryd( 3p)     0.00484       0.51434
     8    C    1  pz     Val( 2p)     0.59127      -0.04422
     9    C    1  pz     Ryd( 3p)     0.00210       0.78171
    10    C    1  dxy    Ryd( 3d)     0.00056       1.99120
    11    C    1  dxz    Ryd( 3d)     0.00031       2.49240
    12    C    1  dyz    Ryd( 3d)     0.00007       1.99920
    13    C    1  dx2y2  Ryd( 3d)     0.00045       2.21331
    14    C    1  dz2    Ryd( 3d)     0.00038       2.34944
 
    15    N    2  S      Cor( 1S)     0.99962     -14.28596
    16    N    2  S      Val( 2S)     0.60210      -0.52223
    17    N    2  S      Ryd( 3S)     0.00184       0.85865
    18    N    2  px     Val( 2p)     0.67671      -0.29340
    19    N    2  px     Ryd( 3p)     0.00109       0.88780
    20    N    2  py     Val( 2p)     0.68317      -0.27808
    21    N    2  py     Ryd( 3p)     0.00027       0.78582
    22    N    2  pz     Val( 2p)     0.64869      -0.26462
    23    N    2  pz     Ryd( 3p)     0.00138       1.14226
    24    N    2  dxy    Ryd( 3d)     0.00106       2.33802
    25    N    2  dxz    Ryd( 3d)     0.00063       2.88006
    26    N    2  dyz    Ryd( 3d)     0.00053       2.37260
    27    N    2  dx2y2  Ryd( 3d)     0.00043       2.68061
    28    N    2  dz2    Ryd( 3d)     0.00074       2.69504
 
    29    N    3  S      Cor( 1S)     0.99979     -14.15772
    30    N    3  S      Val( 2S)     0.75936      -0.50973
    31    N    3  S      Ryd( 3S)     0.00319       0.87607
    32    N    3  px     Val( 2p)     0.60694      -0.11235
    33    N    3  px     Ryd( 3p)     0.00320       0.92315
    34    N    3  py     Val( 2p)     0.71408      -0.16921
    35    N    3  py     Ryd( 3p)     0.00231       0.78912
    36    N    3  pz     Val( 2p)     0.68779      -0.14524
    37    N    3  pz     Ryd( 3p)     0.00196       0.81780
    38    N    3  dxy    Ryd( 3d)     0.00012       2.38855
    39    N    3  dxz    Ryd( 3d)     0.00084       2.77427
    40    N    3  dyz    Ryd( 3d)     0.00104       2.40685
    41    N    3  dx2y2  Ryd( 3d)     0.00029       2.74328
    42    N    3  dz2    Ryd( 3d)     0.00097       2.61369
 
    43    H    4  S      Val( 1S)     0.34270       0.07647
    44    H    4  S      Ryd( 2S)     0.00096       0.37294
    45    H    4  px     Ryd( 2p)     0.00068       2.36155
    46    H    4  py     Ryd( 2p)     0.00054       1.63426
    47    H    4  pz     Ryd( 2p)     0.00044       1.78511
 
    48    H    5  S      Val( 1S)     0.40567       0.04828
    49    H    5  S      Ryd( 2S)     0.00046       0.31052
    50    H    5  px     Ryd( 2p)     0.00011       1.85904
    51    H    5  py     Ryd( 2p)     0.00020       1.64904
    52    H    5  pz     Ryd( 2p)     0.00031       2.22702
 
    53    H    6  S      Val( 1S)     0.39896       0.06781
    54    H    6  S      Ryd( 2S)     0.00125       0.32438
    55    H    6  px     Ryd( 2p)     0.00013       1.96227
    56    H    6  py     Ryd( 2p)     0.00012       1.65988
    57    H    6  pz     Ryd( 2p)     0.00028       2.16008
 
    58    H    7  S      Val( 1S)     0.31061       0.04409
    59    H    7  S      Ryd( 2S)     0.00264       0.34607
    60    H    7  px     Ryd( 2p)     0.00027       2.02914
    61    H    7  py     Ryd( 2p)     0.00022       1.63823
    62    H    7  pz     Ryd( 2p)     0.00054       2.19778


 Summary of Natural Population Analysis:                  
                                                          
                                       Natural Population 
                Natural  -----------------------------------------------
    Atom  No    Charge         Core      Valence    Rydberg      Total
 -----------------------------------------------------------------------
      C    1   -0.13277      0.99966     2.11977    0.01333     3.13277
      N    2   -0.11827      0.99962     2.61068    0.00797     3.61827
      N    3   -0.28187      0.99979     2.76817    0.01392     3.78187
      H    4    0.15468      0.00000     0.34270    0.00261     0.34532
      H    5    0.09324      0.00000     0.40567    0.00109     0.40676
      H    6    0.09926      0.00000     0.39896    0.00178     0.40074
      H    7    0.18573      0.00000     0.31061    0.00366     0.31427
 =======================================================================
   * Total *    0.00000      2.99907     8.95656    0.04437    12.00000

                                 Natural Population      
 --------------------------------------------------------
   Core                       2.99907 ( 99.9691% of   3)
   Valence                    8.95656 ( 99.5173% of   9)
   Natural Minimal Basis     11.95563 ( 99.6303% of  12)
   Natural Rydberg Basis      0.04437 (  0.3697% of  12)
 --------------------------------------------------------

    Atom  No          Natural Electron Configuration
 ----------------------------------------------------------------------------
      C    1      [core]2S( 0.51)2p( 1.61)3p( 0.01)
      N    2      [core]2S( 0.60)2p( 2.01)
      N    3      [core]2S( 0.76)2p( 2.01)3p( 0.01)
      H    4            1S( 0.34)
      H    5            1S( 0.41)
      H    6            1S( 0.40)
      H    7            1S( 0.31)


 NBO analysis skipped by request.
 Leave Link  607 at Tue Jan  3 09:03:42 2023, MaxMem=   536870912 cpu:               3.6 elap:               1.8
 (Enter /opt/software/gaussian/g16.c01/l701.exe)
 ... and contract with generalized density number  0.
 Compute integral first derivatives.
 Leave Link  701 at Tue Jan  3 09:03:42 2023, MaxMem=   536870912 cpu:               0.2 elap:               0.1
 (Enter /opt/software/gaussian/g16.c01/l702.exe)
 L702 exits ... SP integral derivatives will be done elsewhere.
 Leave Link  702 at Tue Jan  3 09:03:42 2023, MaxMem=   536870912 cpu:               0.1 elap:               0.1
 (Enter /opt/software/gaussian/g16.c01/l703.exe)
 Integral derivatives from FoFJK, PRISM(SPDF).
 Compute integral first derivatives, UseDBF=F ICtDFT=           0.
 Calling FoFJK, ICntrl=      2127 FMM=F ISym2X=0 I1Cent= 0 IOpClX= 1 NMat=1 NMatS=1 NMatT=0.
 FoFJK:  IHMeth= 1 ICntrl=    2127 DoSepK=F KAlg= 0 I1Cent=           0 FoldK=F
 IRaf=         0 NMat=       1 IRICut=       1 DoRegI=T DoRafI=F ISym2E= 0 IDoP0=0 IntGTp=1.
 FoFCou: FMM=F IPFlag=           0 FMFlag=      100000 FMFlg1=         800
         NFxFlg=           0 DoJE=F BraDBF=F KetDBF=F FulRan=T
         wScrn=  0.000000 ICntrl=      2127 IOpCl=  1 I1Cent=           0 NGrid=           0
         NMat0=    1 NMatS0=      1 NMatT0=    0 NMatD0=    1 NMtDS0=    0 NMtDT0=    0
 Symmetry not used in FoFCou.
 Leave Link  703 at Tue Jan  3 09:03:44 2023, MaxMem=   536870912 cpu:               2.6 elap:               1.3
 (Enter /opt/software/gaussian/g16.c01/l716.exe)
 Dipole        = 2.54864039D-01 3.15335534D-01 1.16994590D+00
 -------------------------------------------------------------------
 Center     Atomic                   Forces (Hartrees/Bohr)
 Number     Number              X              Y              Z
 -------------------------------------------------------------------
      1        6          -0.009897909    0.000852339    0.003404453
      2        7           0.011088735   -0.001665122   -0.006451265
      3        7          -0.003916950   -0.001520707   -0.005584561
      4        1           0.003977503    0.000953194    0.003464807
      5        1          -0.001240610    0.000307480    0.001168167
      6        1          -0.000951747   -0.000322333   -0.001184457
      7        1           0.000940977    0.001395149    0.005182856
 -------------------------------------------------------------------
 Cartesian Forces:  Max     0.011088735 RMS     0.004311215
 Z-matrix is all fixed cartesians, so copy forces.
 Force constants in Cartesian coordinates: 
                1             2             3             4             5 
      1  0.979681D+00
      2 -0.379301D-03  0.213865D+00
      3 -0.190645D-01  0.142607D+00  0.707620D+00
      4 -0.643805D+00  0.579070D-02  0.334547D-01  0.112567D+01
      5  0.632347D-02 -0.106234D+00 -0.223587D-01 -0.331382D-01  0.255501D+00
      6  0.354270D-01 -0.223469D-01 -0.184344D+00 -0.143773D+00  0.210309D+00
      7  0.271848D-02  0.887848D-02  0.332925D-01 -0.285848D+00  0.632473D-01
      8  0.405863D-03  0.125485D-01  0.280651D-02  0.556667D-01 -0.952295D-01
      9  0.171151D-02  0.262289D-02  0.215325D-01  0.212339D+00 -0.116800D+00
     10  0.000000D+00 -0.399533D-04  0.107186D-04 -0.760156D-02 -0.133499D-02
     11 -0.399096D-04  0.681015D-02 -0.182702D-02  0.704590D-02  0.450257D-02
     12  0.107071D-04 -0.182705D-02  0.490159D-03  0.265068D-01  0.370720D-02
     13 -0.151899D+00  0.232181D-01  0.887550D-01  0.227506D-02  0.740187D-02
     14  0.222321D-01 -0.700228D-01 -0.649731D-01  0.189247D-03  0.144423D-01
     15  0.850866D-01 -0.649992D-01 -0.296927D+00  0.973426D-03 -0.504849D-03
     16 -0.184388D+00 -0.297881D-01 -0.108208D+00 -0.207961D-02 -0.693893D-02
     17 -0.287722D-01 -0.722180D-01 -0.562752D-01  0.243717D-03  0.170004D-01
     18 -0.104411D+00 -0.562483D-01 -0.264302D+00  0.132579D-02  0.166311D-04
     19 -0.230818D-02 -0.767988D-02 -0.282404D-01 -0.188615D+00 -0.355605D-01
     20  0.229955D-03  0.152509D-01  0.203553D-04 -0.357981D-01 -0.899827D-01
     21  0.124008D-02  0.191593D-03  0.159310D-01 -0.130826D+00 -0.743693D-01
                6             7             8             9            10 
      6  0.986309D+00
      7  0.240594D+00  0.668956D+00
      8 -0.116633D+00 -0.324380D-01  0.846813D-01
      9 -0.504269D+00 -0.134507D+00  0.140554D+00  0.574006D+00
     10 -0.473293D-02 -0.410677D+00 -0.278084D-01 -0.950666D-01  0.418278D+00
     11  0.352379D-02 -0.361895D-01 -0.231711D-01 -0.184397D-01  0.291372D-01
     12  0.167545D-01 -0.126306D+00 -0.186231D-01 -0.846654D-01  0.998012D-01
     13  0.278675D-01  0.000000D+00 -0.447309D-04  0.120004D-04  0.000000D+00
     14 -0.347895D-03 -0.447767D-04  0.764067D-02 -0.204983D-02  0.000000D+00
     15  0.126317D-01  0.120092D-04 -0.204924D-02  0.549768D-03  0.000000D+00
     16 -0.254401D-01  0.000000D+00  0.448748D-04 -0.120390D-04  0.000000D+00
     17 -0.139769D-03  0.448434D-04 -0.765204D-02  0.205288D-02  0.000000D+00
     18  0.170683D-01 -0.120329D-04  0.205329D-02 -0.550853D-03  0.000000D+00
     19 -0.129942D+00  0.248506D-01  0.417370D-02  0.155231D-01  0.000000D+00
     20 -0.743652D-01 -0.349835D-02  0.211822D-01 -0.794026D-02  0.462088D-04
     21 -0.344150D+00 -0.130734D-01 -0.810855D-02 -0.660326D-02 -0.123974D-04
               11            12            13            14            15 
     11  0.197348D-01
     12  0.146298D-01  0.679877D-01
     13  0.000000D+00  0.000000D+00  0.120347D+00
     14  0.000000D+00  0.000000D+00 -0.258292D-01  0.469624D-01
     15  0.000000D+00  0.000000D+00 -0.983283D-01  0.699484D-01  0.291298D+00
     16  0.000000D+00  0.000000D+00  0.292766D-01  0.340314D-02  0.122695D-01
     17  0.000000D+00  0.000000D+00 -0.479540D-02  0.941143D-02 -0.465711D-02
     18  0.000000D+00  0.000000D+00 -0.182930D-01 -0.484049D-02 -0.694563D-02
     19  0.463037D-04 -0.124225D-04  0.000000D+00  0.494397D-04 -0.132598D-04
     20 -0.787642D-02  0.211311D-02  0.493749D-04 -0.843392D-02  0.226199D-02
     21  0.211317D-02 -0.566929D-03 -0.132473D-04  0.226283D-02 -0.606894D-03
               16            17            18            19            20 
     16  0.157191D+00
     17  0.333285D-01  0.450118D-01
     18  0.121377D+00  0.612854D-01  0.254122D+00
     19  0.000000D+00 -0.495133D-04  0.132860D-04  0.166072D+00
     20 -0.495337D-04  0.844647D-02 -0.226646D-02  0.390205D-01  0.614135D-01
     21  0.132899D-04 -0.226619D-02  0.608092D-03  0.142672D+00  0.801764D-01
               21 
     21  0.335388D+00
 Leave Link  716 at Tue Jan  3 09:03:44 2023, MaxMem=   536870912 cpu:               0.1 elap:               0.1
 (Enter /opt/software/gaussian/g16.c01/l103.exe)

 GradGradGradGradGradGradGradGradGradGradGradGradGradGradGradGradGradGrad
 Berny optimization.
 Search for a local minimum.
 Step number   1 out of a maximum of    2
 All quantities printed in internal units (Hartrees-Bohrs-Radians)
 Second derivative matrix not updated -- first step.
 ITU=  0
     Eigenvalues ---    0.02409   0.03062   0.03370   0.05977   0.08903
     Eigenvalues ---    0.11483   0.14278   0.19866   0.30111   0.35087
     Eigenvalues ---    0.61127   0.81664   1.00827   1.49337   1.92763
 Angle between quadratic step and forces=  61.59 degrees.
 Linear search not attempted -- first point.
 B after Tr=     0.002724   -0.000798   -0.003008
         Rot=    1.000000    0.000002   -0.000383    0.000103 Ang=   0.05 deg.
 Variable       Old X    -DE/DX   Delta X   Delta X   Delta X     New X
                                 (Linear)    (Quad)   (Total)
    X1        2.02695  -0.00990   0.00000  -0.01052  -0.00804   2.01891
    Y1       -0.13266   0.00085   0.00000   0.00176   0.00054  -0.13211
    Z1       -0.28915   0.00340   0.00000   0.00682   0.00227  -0.28688
    X2        4.49366   0.01109   0.00000   0.00676   0.00906   4.50273
    Y2       -0.16959  -0.00167   0.00000  -0.00421  -0.00593  -0.17553
    Z2       -0.48072  -0.00645   0.00000  -0.01580  -0.02226  -0.50298
    X3        5.82670  -0.00392   0.00000   0.01183   0.01250   5.83920
    Y3       -0.69631  -0.00152   0.00000  -0.00418  -0.00618  -0.70249
    Z3       -2.47314  -0.00558   0.00000  -0.01584  -0.02332  -2.49646
    X4        7.67994   0.00398   0.00000   0.00645   0.00758   7.68752
    Y4       -0.55307   0.00095   0.00000   0.01124   0.00886  -0.54421
    Z4       -1.97975   0.00346   0.00000   0.04168   0.03278  -1.94697
    X5        1.20935  -0.00124   0.00000  -0.00510  -0.00112   1.20823
    Y5        0.34989   0.00031   0.00000   0.00372   0.00268   0.35257
    Z5        1.52789   0.00117   0.00000   0.01385   0.00991   1.53781
    X6        0.91282  -0.00095   0.00000  -0.02536  -0.02424   0.88858
    Y6       -0.58578  -0.00032   0.00000   0.00282   0.00183  -0.58395
    Z6       -1.95346  -0.00118   0.00000   0.01104   0.00735  -1.94610
    X7        5.41879   0.00094   0.00000   0.00060   0.00427   5.42305
    Y7        0.27567   0.00140   0.00000   0.00010  -0.00180   0.27387
    Z7        1.15865   0.00518   0.00000   0.00043  -0.00674   1.15191
         Item               Value     Threshold  Converged?
 Maximum Force            0.011089     0.000450     NO 
 RMS     Force            0.004311     0.000300     NO 
 Maximum Displacement     0.032777     0.001800     NO 
 RMS     Displacement     0.012817     0.001200     NO 
 Predicted change in Energy=-2.893522D-04
 GradGradGradGradGradGradGradGradGradGradGradGradGradGradGradGradGradGrad

 Leave Link  103 at Tue Jan  3 09:03:44 2023, MaxMem=   536870912 cpu:               0.0 elap:               0.0
 (Enter /opt/software/gaussian/g16.c01/l9999.exe)
 Unable to Open any file for archive entry.
 1\1\GINC-GRA704\Force\UB3LYP\Gen\C1H4N2\BHAVUK\03-Jan-2023\0\\#p ub3ly
 p/chkbasis force guess=read geom=check scf=(maxcycle=900,verytightline
 q,xqc) integral=grid=ultrafine symmetry=None density=current pop=(cm5,
 hlygat,mbs,npa) output=wfx\\0001_q000_m01_k00_opt_uwb97xd_def2svpd/000
 1_q000_m01_k00_force_ub3lyp_def2svp stable-force\\0,1\C,1.0726168695,-
 0.0701991232,-0.153012633\N,2.3779437514,-0.0897456927,-0.2543854931\N
 ,3.0833554789,-0.3684697824,-1.3087287982\H,4.0640493508,-0.2926697434
 ,-1.0476368317\H,0.6399628731,0.1851542916,0.8085260928\H,0.4830438364
 ,-0.3099796861,-1.0337247999\H,2.8674978397,0.1458797364,0.6131324666\
 \Version=ES64L-G16RevC.01\HF=-149.8134126\S2=0.\S2-1=0.\S2A=0.\RMSD=2.
 191e-09\RMSF=4.311e-03\Dipole=0.254864,0.3153355,1.1699459\Quadrupole=
 4.3948621,-1.5348681,-2.859994,1.6614147,6.129511,-0.4320875\PG=Unknow
 n\\@
 The archive entry for this job was punched.

 Writing a WFNX file to "0001_q000_m01_k00_force_ub3lyp_def2svp.wfx"


 A SCIENTIST IS SOMEONE WHOSE CURIOSITY SURVIVES
 EDUCATION'S ASSAULTS ON IT.
                          - SIR HERMANN BONDI
 Job cpu time:       0 days  0 hours  0 minutes 11.2 seconds.
 Elapsed time:       0 days  0 hours  0 minutes  5.5 seconds.
 File lengths (MBytes):  RWF=      6 Int=      0 D2E=      0 Chk=      2 Scr=      1
 Normal termination of Gaussian 16 at Tue Jan  3 09:03:44 2023.
