 Entering Gaussian System, Link 0=g16
 Input=0001_q000_m01_k00_force_ub3lyp_def2qzvpd.com
 Output=0001_q000_m01_k00_force_ub3lyp_def2qzvpd.log
 Initial command:
 /opt/software/gaussian/g16.c01/l1.exe "/localscratch/bhavuk.2151331.0/Gau-16404.inp" -scrdir="/localscratch/bhavuk.2151331.0/"
 Entering Link 1 = /opt/software/gaussian/g16.c01/l1.exe PID=     16405.
  
 Copyright (c) 1988-2019, Gaussian, Inc.  All Rights Reserved.
  
 This is part of the Gaussian(R) 16 program.  It is based on
 the Gaussian(R) 09 system (copyright 2009, Gaussian, Inc.),
 the Gaussian(R) 03 system (copyright 2003, Gaussian, Inc.),
 the Gaussian(R) 98 system (copyright 1998, Gaussian, Inc.),
 the Gaussian(R) 94 system (copyright 1995, Gaussian, Inc.),
 the Gaussian 92(TM) system (copyright 1992, Gaussian, Inc.),
 the Gaussian 90(TM) system (copyright 1990, Gaussian, Inc.),
 the Gaussian 88(TM) system (copyright 1988, Gaussian, Inc.),
 the Gaussian 86(TM) system (copyright 1986, Carnegie Mellon
 University), and the Gaussian 82(TM) system (copyright 1983,
 Carnegie Mellon University). Gaussian is a federally registered
 trademark of Gaussian, Inc.
  
 This software contains proprietary and confidential information,
 including trade secrets, belonging to Gaussian, Inc.
  
 This software is provided under written license and may be
 used, copied, transmitted, or stored only in accord with that
 written license.
  
 The following legend is applicable only to US Government
 contracts under FAR:
  
                    RESTRICTED RIGHTS LEGEND
  
 Use, reproduction and disclosure by the US Government is
 subject to restrictions as set forth in subparagraphs (a)
 and (c) of the Commercial Computer Software - Restricted
 Rights clause in FAR 52.227-19.
  
 Gaussian, Inc.
 340 Quinnipiac St., Bldg. 40, Wallingford CT 06492
  
  
 ---------------------------------------------------------------
 Warning -- This program may not be used in any manner that
 competes with the business of Gaussian, Inc. or will provide
 assistance to any competitor of Gaussian, Inc.  The licensee
 of this program is prohibited from giving any competitor of
 Gaussian, Inc. access to this program.  By using this program,
 the user acknowledges that Gaussian, Inc. is engaged in the
 business of creating and licensing software in the field of
 computational chemistry and represents and warrants to the
 licensee that it is not a competitor of Gaussian, Inc. and that
 it will not use this program in any manner prohibited above.
 ---------------------------------------------------------------
  

 Cite this work as:
 Gaussian 16, Revision C.01,
 M. J. Frisch, G. W. Trucks, H. B. Schlegel, G. E. Scuseria, 
 M. A. Robb, J. R. Cheeseman, G. Scalmani, V. Barone, 
 G. A. Petersson, H. Nakatsuji, X. Li, M. Caricato, A. V. Marenich, 
 J. Bloino, B. G. Janesko, R. Gomperts, B. Mennucci, H. P. Hratchian, 
 J. V. Ortiz, A. F. Izmaylov, J. L. Sonnenberg, D. Williams-Young, 
 F. Ding, F. Lipparini, F. Egidi, J. Goings, B. Peng, A. Petrone, 
 T. Henderson, D. Ranasinghe, V. G. Zakrzewski, J. Gao, N. Rega, 
 G. Zheng, W. Liang, M. Hada, M. Ehara, K. Toyota, R. Fukuda, 
 J. Hasegawa, M. Ishida, T. Nakajima, Y. Honda, O. Kitao, H. Nakai, 
 T. Vreven, K. Throssell, J. A. Montgomery, Jr., J. E. Peralta, 
 F. Ogliaro, M. J. Bearpark, J. J. Heyd, E. N. Brothers, K. N. Kudin, 
 V. N. Staroverov, T. A. Keith, R. Kobayashi, J. Normand, 
 K. Raghavachari, A. P. Rendell, J. C. Burant, S. S. Iyengar, 
 J. Tomasi, M. Cossi, J. M. Millam, M. Klene, C. Adamo, R. Cammi, 
 J. W. Ochterski, R. L. Martin, K. Morokuma, O. Farkas, 
 J. B. Foresman, and D. J. Fox, Gaussian, Inc., Wallingford CT, 2019.
 
 ******************************************
 Gaussian 16:  ES64L-G16RevC.01  3-Jul-2019
                 3-Jan-2023 
 ******************************************
 %chk=0001_q000_m01_k00_force_ub3lyp_def2qzvpd.chk
 %nprocshared=2
 Will use up to    2 processors via shared memory.
 %mem=4GB
 ----------------------------------------------------------------------
 #p ub3lyp/gen stable=opt scf=(maxcycle=900,verytightlineq,xqc) integra
 l=grid=ultrafine symmetry=None density=current iop(99/18=-1) output=wf
 n
 ----------------------------------------------------------------------
 1/38=1,172=1/1;
 2/12=2,15=3,17=6,18=5,40=1/2;
 3/5=7,11=2,25=1,30=1,74=-5,75=-5,116=2/1,2,3;
 4//1;
 5/5=2,7=900,8=3,13=1,17=3,38=5/2,8;
 6/7=2,8=2,9=2,10=2,22=-1,28=1/1;
 8/6=1,10=90,11=11/1;
 9/8=-3,42=1,46=1/14;
 5/5=2,7=900,8=3,17=43,38=5/8(-2);
 6/7=2,8=2,9=2,10=2,22=-1,28=1/1;
 99/5=1,6=100,9=1,18=-1/99;
 Leave Link    1 at Tue Jan  3 09:03:10 2023, MaxMem=   536870912 cpu:               0.1 elap:               0.1
 (Enter /opt/software/gaussian/g16.c01/l101.exe)
 ----------------------------------------------------------------------
 0001_q000_m01_k00_opt_uwb97xd_def2svpd/0001_q000_m01_k00_force_ub3lyp_
 def2qzvpd stable-force
 ----------------------------------------------------------------------
 Symbolic Z-matrix:
 Charge =  0 Multiplicity = 1
 C                     1.07262  -0.0702   -0.15301 
 N                     2.37794  -0.08975  -0.25439 
 N                     3.08336  -0.36847  -1.30873 
 H                     4.06405  -0.29267  -1.04764 
 H                     0.63996   0.18515   0.80853 
 H                     0.48304  -0.30998  -1.03372 
 H                     2.8675    0.14588   0.61313 
 
 ITRead=  0  0  0  0  0  0  0
 MicOpt= -1 -1 -1 -1 -1 -1 -1
 NAtoms=      7 NQM=        7 NQMF=       0 NMMI=      0 NMMIF=      0
                NMic=       0 NMicF=      0.
                    Isotopes and Nuclear Properties:
 (Nuclear quadrupole moments (NQMom) in fm**2, nuclear magnetic moments (NMagM)
  in nuclear magnetons)

  Atom         1           2           3           4           5           6           7
 IAtWgt=          12          14          14           1           1           1           1
 AtmWgt=  12.0000000  14.0030740  14.0030740   1.0078250   1.0078250   1.0078250   1.0078250
 NucSpn=           0           2           2           1           1           1           1
 AtZEff=  -0.0000000  -0.0000000  -0.0000000  -0.0000000  -0.0000000  -0.0000000  -0.0000000
 NQMom=    0.0000000   2.0440000   2.0440000   0.0000000   0.0000000   0.0000000   0.0000000
 NMagM=    0.0000000   0.4037610   0.4037610   2.7928460   2.7928460   2.7928460   2.7928460
 AtZNuc=   6.0000000   7.0000000   7.0000000   1.0000000   1.0000000   1.0000000   1.0000000
 Leave Link  101 at Tue Jan  3 09:03:10 2023, MaxMem=   536870912 cpu:               0.2 elap:               0.1
 (Enter /opt/software/gaussian/g16.c01/l202.exe)
                          Input orientation:                          
 ---------------------------------------------------------------------
 Center     Atomic      Atomic             Coordinates (Angstroms)
 Number     Number       Type             X           Y           Z
 ---------------------------------------------------------------------
      1          6           0        1.072617   -0.070199   -0.153013
      2          7           0        2.377944   -0.089746   -0.254385
      3          7           0        3.083355   -0.368470   -1.308729
      4          1           0        4.064049   -0.292670   -1.047637
      5          1           0        0.639963    0.185154    0.808526
      6          1           0        0.483044   -0.309980   -1.033725
      7          1           0        2.867498    0.145880    0.613132
 ---------------------------------------------------------------------
                    Distance matrix (angstroms):
                    1          2          3          4          5
     1  C    0.000000
     2  N    1.309403   0.000000
     3  N    2.338315   1.298820   0.000000
     4  H    3.130258   1.874401   1.017681   0.000000
     5  H    1.084874   2.055706   3.280158   3.924032   0.000000
     6  H    1.086621   2.060708   2.615467   3.581074   1.914071
     7  H    1.963483   1.023606   2.001175   2.093374   2.236433
                    6          7
     6  H    0.000000
     7  H    2.933525   0.000000
 Symmetry turned off by external request.
 Stoichiometry    CH4N2
 Rotational constants (GHZ):          71.2642239          11.2793619           9.7380671
 Leave Link  202 at Tue Jan  3 09:03:10 2023, MaxMem=   536870912 cpu:               0.0 elap:               0.0
 (Enter /opt/software/gaussian/g16.c01/l301.exe)
 General basis read from cards:  (5D, 7F)
 Centers:       4      5      6      7
 S 4 1.00
     Exponent=  1.9069169000D+02 Coefficients=  7.0815167000D-04
     Exponent=  2.8605532000D+01 Coefficients=  5.4678827000D-03
     Exponent=  6.5095943000D+00 Coefficients=  2.7966605000D-02
     Exponent=  1.8412455000D+00 Coefficients=  1.0764538000D-01
 S 1 1.00
     Exponent=  5.9853725000D-01 Coefficients=  1.0000000000D+00
 S 1 1.00
     Exponent=  2.1397624000D-01 Coefficients=  1.0000000000D+00
 S 1 1.00
     Exponent=  8.0316286000D-02 Coefficients=  1.0000000000D+00
 P 1 1.00
     Exponent=  2.2920000000D+00 Coefficients=  1.0000000000D+00
 P 1 1.00
     Exponent=  8.3800000000D-01 Coefficients=  1.0000000000D+00
 P 1 1.00
     Exponent=  2.9200000000D-01 Coefficients=  1.0000000000D+00
 P 1 1.00
     Exponent=  8.4063199228D-02 Coefficients=  1.0000000000D+00
 D 1 1.00
     Exponent=  2.0620000000D+00 Coefficients=  1.0000000000D+00
 D 1 1.00
     Exponent=  6.6200000000D-01 Coefficients=  1.0000000000D+00
 F 1 1.00
     Exponent=  1.3970000000D+00 Coefficients=  1.0000000000D+00
 ****
 Centers:       1
 S 8 1.00
     Exponent=  6.7025071029D+04 Coefficients=  3.8736308501D-05
     Exponent=  1.0039986538D+04 Coefficients=  3.0107917575D-04
     Exponent=  2.2849316911D+03 Coefficients=  1.5787918095D-03
     Exponent=  6.4714122130D+02 Coefficients=  6.6087087195D-03
     Exponent=  2.1109472335D+02 Coefficients=  2.3367123250D-02
     Exponent=  7.6177643862D+01 Coefficients=  7.0420716898D-02
     Exponent=  2.9633839163D+01 Coefficients=  1.7360344953D-01
     Exponent=  1.2187785081D+01 Coefficients=  3.2292305648D-01
 S 2 1.00
     Exponent=  5.3026006299D+01 Coefficients=  7.4897404492D-02
     Exponent=  1.5258502776D+01 Coefficients=  7.6136220983D-01
 S 1 1.00
     Exponent=  5.2403957464D+00 Coefficients=  1.0000000000D+00
 S 1 1.00
     Exponent=  2.2905022379D+00 Coefficients=  1.0000000000D+00
 S 1 1.00
     Exponent=  6.9673283006D-01 Coefficients=  1.0000000000D+00
 S 1 1.00
     Exponent=  2.7599337363D-01 Coefficients=  1.0000000000D+00
 S 1 1.00
     Exponent=  1.0739884389D-01 Coefficients=  1.0000000000D+00
 S 1 1.00
     Exponent=  4.4981404899D-02 Coefficients=  1.0000000000D+00
 P 5 1.00
     Exponent=  1.0512555082D+02 Coefficients=  8.4647553844D-04
     Exponent=  2.4884461066D+01 Coefficients=  6.6274038534D-03
     Exponent=  7.8637230826D+00 Coefficients=  3.0120390419D-02
     Exponent=  2.8407001835D+00 Coefficients=  9.9951435476D-02
     Exponent=  1.1227137335D+00 Coefficients=  2.3826299282D-01
 P 1 1.00
     Exponent=  4.6050725555D-01 Coefficients=  1.0000000000D+00
 P 1 1.00
     Exponent=  1.8937530913D-01 Coefficients=  1.0000000000D+00
 P 1 1.00
     Exponent=  7.5983791611D-02 Coefficients=  1.0000000000D+00
 D 1 1.00
     Exponent=  1.8480000000D+00 Coefficients=  1.0000000000D+00
 D 1 1.00
     Exponent=  6.4900000000D-01 Coefficients=  1.0000000000D+00
 D 1 1.00
     Exponent=  2.2800000000D-01 Coefficients=  1.0000000000D+00
 D 1 1.00
     Exponent=  7.6889830417D-02 Coefficients=  1.0000000000D+00
 F 1 1.00
     Exponent=  1.4190000000D+00 Coefficients=  1.0000000000D+00
 F 1 1.00
     Exponent=  4.8500000000D-01 Coefficients=  1.0000000000D+00
 G 1 1.00
     Exponent=  1.0110000000D+00 Coefficients=  1.0000000000D+00
 ****
 Centers:       2      3
 S 8 1.00
     Exponent=  9.0726889210D+04 Coefficients=  3.9257887368D-05
     Exponent=  1.3590528801D+04 Coefficients=  3.0513316455D-04
     Exponent=  3.0929883781D+03 Coefficients=  1.6000560446D-03
     Exponent=  8.7599876362D+02 Coefficients=  6.6982937306D-03
     Exponent=  2.8574469982D+02 Coefficients=  2.3690078765D-02
     Exponent=  1.0311913417D+02 Coefficients=  7.1455405268D-02
     Exponent=  4.0128556777D+01 Coefficients=  1.7632774876D-01
     Exponent=  1.6528095704D+01 Coefficients=  3.2677592815D-01
 S 2 1.00
     Exponent=  6.9390960983D+01 Coefficients=  8.0052094386D-02
     Exponent=  2.0428200596D+01 Coefficients=  7.8268063538D-01
 S 1 1.00
     Exponent=  7.1292587972D+00 Coefficients=  1.0000000000D+00
 S 1 1.00
     Exponent=  3.1324304893D+00 Coefficients=  1.0000000000D+00
 S 1 1.00
     Exponent=  9.8755778723D-01 Coefficients=  1.0000000000D+00
 S 1 1.00
     Exponent=  3.8765721307D-01 Coefficients=  1.0000000000D+00
 S 1 1.00
     Exponent=  1.4909883075D-01 Coefficients=  1.0000000000D+00
 S 1 1.00
     Exponent=  6.2151630318D-02 Coefficients=  1.0000000000D+00
 P 5 1.00
     Exponent=  1.5005742670D+02 Coefficients= -8.6216165986D-04
     Exponent=  3.5491599483D+01 Coefficients= -6.8571273236D-03
     Exponent=  1.1247864223D+01 Coefficients= -3.1795688855D-02
     Exponent=  4.0900305195D+00 Coefficients= -1.0537396822D-01
     Exponent=  1.6220573146D+00 Coefficients= -2.4519708041D-01
 P 1 1.00
     Exponent=  6.6442261530D-01 Coefficients=  1.0000000000D+00
 P 1 1.00
     Exponent=  2.7099770070D-01 Coefficients=  1.0000000000D+00
 P 1 1.00
     Exponent=  1.0688749984D-01 Coefficients=  1.0000000000D+00
 D 1 1.00
     Exponent=  2.8370000000D+00 Coefficients=  1.0000000000D+00
 D 1 1.00
     Exponent=  9.6800000000D-01 Coefficients=  1.0000000000D+00
 D 1 1.00
     Exponent=  3.3500000000D-01 Coefficients=  1.0000000000D+00
 D 1 1.00
     Exponent=  1.0825280010D-01 Coefficients=  1.0000000000D+00
 F 1 1.00
     Exponent=  2.0270000000D+00 Coefficients=  1.0000000000D+00
 F 1 1.00
     Exponent=  6.8500000000D-01 Coefficients=  1.0000000000D+00
 G 1 1.00
     Exponent=  1.4270000000D+00 Coefficients=  1.0000000000D+00
 ****
 Ernie: Thresh=  0.10000D-02 Tol=  0.10000D-05 Strict=F.
   321 basis functions,   461 primitive gaussians,   389 cartesian basis functions
    12 alpha electrons       12 beta electrons
       nuclear repulsion energy        73.3825490640 Hartrees.
 IExCor=  402 DFT=T Ex+Corr=B3LYP ExCW=0 ScaHFX=  0.200000
 ScaDFX=  0.800000  0.720000  1.000000  0.810000 ScalE2=  1.000000  1.000000
 IRadAn=      5 IRanWt=     -1 IRanGd=            0 ICorTp=0 IEmpDi=  4
 NAtoms=    7 NActive=    7 NUniq=    7 SFac= 1.00D+00 NAtFMM=   60 NAOKFM=F Big=F
 Integral buffers will be    131072 words long.
 Raffenetti 2 integral format.
 Two-electron integral symmetry is turned off.
 Leave Link  301 at Tue Jan  3 09:03:10 2023, MaxMem=   536870912 cpu:               0.2 elap:               0.1
 (Enter /opt/software/gaussian/g16.c01/l302.exe)
 NPDir=0 NMtPBC=     1 NCelOv=     1 NCel=       1 NClECP=     1 NCelD=      1
         NCelK=      1 NCelE2=     1 NClLst=     1 CellRange=     0.0.
 One-electron integrals computed using PRISM.
 NBasis=   321 RedAO= T EigKep=  4.00D-06  NBF=   321
 NBsUse=   321 1.00D-06 EigRej= -1.00D+00 NBFU=   321
 Precomputing XC quadrature grid using
 IXCGrd= 4 IRadAn=           5 IRanWt=          -1 IRanGd=           0 AccXCQ= 0.00D+00.
 Generated NRdTot=       0 NPtTot=           0 NUsed=           0 NTot=          32
 NSgBfM=   389   389   389   389   389 MxSgAt=     7 MxSgA2=     7.
 Leave Link  302 at Tue Jan  3 09:03:11 2023, MaxMem=   536870912 cpu:               0.6 elap:               0.3
 (Enter /opt/software/gaussian/g16.c01/l303.exe)
 DipDrv:  MaxL=1.
 Leave Link  303 at Tue Jan  3 09:03:11 2023, MaxMem=   536870912 cpu:               0.1 elap:               0.1
 (Enter /opt/software/gaussian/g16.c01/l401.exe)
 ExpMin= 4.50D-02 ExpMax= 9.07D+04 ExpMxC= 8.76D+02 IAcc=3 IRadAn=         5 AccDes= 0.00D+00
 Harris functional with IExCor=  402 and IRadAn=       5 diagonalized for initial guess.
 HarFok:  IExCor=  402 AccDes= 0.00D+00 IRadAn=         5 IDoV= 1 UseB2=F ITyADJ=14
 ICtDFT=  3500011 ScaDFX=  1.000000  1.000000  1.000000  1.000000
 FoFCou: FMM=F IPFlag=           0 FMFlag=      100000 FMFlg1=           0
         NFxFlg=           0 DoJE=T BraDBF=F KetDBF=T FulRan=T
         wScrn=  0.000000 ICntrl=       500 IOpCl=  0 I1Cent=   200000004 NGrid=           0
         NMat0=    1 NMatS0=      1 NMatT0=    0 NMatD0=    1 NMtDS0=    0 NMtDT0=    0
 Symmetry not used in FoFCou.
 Harris En= -150.021716988889    
 JPrj=0 DoOrth=F DoCkMO=F.
 Initial guess <Sx>= 0.0000 <Sy>= 0.0000 <Sz>= 0.0000 <S**2>= 0.0000 S= 0.0000
 Leave Link  401 at Tue Jan  3 09:03:13 2023, MaxMem=   536870912 cpu:               4.4 elap:               2.2
 (Enter /opt/software/gaussian/g16.c01/l502.exe)
 Two-electron integral symmetry not used.
 UHF open shell SCF:
 Using DIIS extrapolation, IDIIS=  1040.
 NGot=   536870912 LenX=   536563461 LenY=   536411699
 Requested convergence on RMS density matrix=1.00D-08 within 128 cycles.
 Requested convergence on MAX density matrix=1.00D-06.
 Requested convergence on             energy=1.00D-06.
 No special actions if energy rises.
 Fock matrices will be formed incrementally for  20 cycles.

 Cycle   1  Pass 1  IDiag  1:
 FoFJK:  IHMeth= 1 ICntrl=       0 DoSepK=F KAlg= 0 I1Cent=           0 FoldK=F
 IRaf= 990000000 NMat=       1 IRICut=       1 DoRegI=T DoRafI=F ISym2E= 0 IDoP0=0 IntGTp=1.
 FoFCou: FMM=F IPFlag=           0 FMFlag=      100000 FMFlg1=           0
         NFxFlg=           0 DoJE=F BraDBF=F KetDBF=F FulRan=T
         wScrn=  0.000000 ICntrl=         0 IOpCl=  1 I1Cent=           0 NGrid=           0
         NMat0=    1 NMatS0=      1 NMatT0=    0 NMatD0=    1 NMtDS0=    0 NMtDT0=    0
 Symmetry not used in FoFCou.
 E= -149.906283913436    
 DIIS: error= 1.89D-02 at cycle   1 NSaved=   1.
 NSaved= 1 IEnMin= 1 EnMin= -149.906283913436     IErMin= 1 ErrMin= 1.89D-02
 ErrMax= 1.89D-02  0.00D+00 EMaxC= 1.00D-01 BMatC= 5.10D-01 BMatP= 5.10D-01
 IDIUse=3 WtCom= 8.11D-01 WtEn= 1.89D-01
 Coeff-Com:  0.100D+01
 Coeff-En:   0.100D+01
 Coeff:      0.100D+01
 Gap=     0.130 Goal=   None    Shift=    0.000
 Gap=     0.130 Goal=   None    Shift=    0.000
 GapD=    0.130 DampG=1.000 DampE=0.500 DampFc=0.5000 IDamp=-1.
 Damping current iteration by 5.00D-01
 RMSDP=3.44D-03 MaxDP=2.05D-01              OVMax= 2.28D-01

 Cycle   2  Pass 1  IDiag  1:
 RMSU=  1.72D-03    CP:  1.01D+00
 E= -149.938233258338     Delta-E=       -0.031949344902 Rises=F Damp=T
 DIIS: error= 6.74D-03 at cycle   2 NSaved=   2.
 NSaved= 2 IEnMin= 2 EnMin= -149.938233258338     IErMin= 2 ErrMin= 6.74D-03
 ErrMax= 6.74D-03  0.00D+00 EMaxC= 1.00D-01 BMatC= 6.57D-02 BMatP= 5.10D-01
 IDIUse=3 WtCom= 9.33D-01 WtEn= 6.74D-02
 Coeff-Com:  0.152D+00 0.848D+00
 Coeff-En:   0.303D+00 0.697D+00
 Coeff:      0.162D+00 0.838D+00
 Gap=     0.185 Goal=   None    Shift=    0.000
 Gap=     0.185 Goal=   None    Shift=    0.000
 RMSDP=1.10D-03 MaxDP=7.42D-02 DE=-3.19D-02 OVMax= 2.00D-01

 Cycle   3  Pass 1  IDiag  1:
 RMSU=  4.94D-04    CP:  9.89D-01  4.32D-01
 E= -149.986443102341     Delta-E=       -0.048209844003 Rises=F Damp=F
 DIIS: error= 1.44D-02 at cycle   3 NSaved=   3.
 NSaved= 3 IEnMin= 3 EnMin= -149.986443102341     IErMin= 2 ErrMin= 6.74D-03
 ErrMax= 1.44D-02  0.00D+00 EMaxC= 1.00D-01 BMatC= 8.27D-02 BMatP= 6.57D-02
 IDIUse=2 WtCom= 0.00D+00 WtEn= 1.00D+00
 Coeff-En:   0.000D+00 0.000D+00 0.100D+01
 Coeff:      0.000D+00 0.000D+00 0.100D+01
 Gap=     0.143 Goal=   None    Shift=    0.000
 Gap=     0.143 Goal=   None    Shift=    0.000
 RMSDP=1.48D-03 MaxDP=7.97D-02 DE=-4.82D-02 OVMax= 3.60D-01

 Cycle   4  Pass 1  IDiag  1:
 RMSU=  6.82D-04    CP:  9.99D-01  1.14D+00  3.12D-02
 E= -149.819144705597     Delta-E=        0.167298396744 Rises=F Damp=F
 DIIS: error= 4.88D-02 at cycle   4 NSaved=   4.
 NSaved= 4 IEnMin= 3 EnMin= -149.986443102341     IErMin= 2 ErrMin= 6.74D-03
 ErrMax= 4.88D-02  0.00D+00 EMaxC= 1.00D-01 BMatC= 7.35D-01 BMatP= 6.57D-02
 IDIUse=2 WtCom= 0.00D+00 WtEn= 1.00D+00
 Coeff-En:   0.000D+00 0.000D+00 0.839D+00 0.161D+00
 Coeff:      0.000D+00 0.000D+00 0.839D+00 0.161D+00
 Gap=     0.159 Goal=   None    Shift=    0.000
 Gap=     0.159 Goal=   None    Shift=    0.000
 RMSDP=8.88D-04 MaxDP=5.19D-02 DE= 1.67D-01 OVMax= 1.85D-01

 Cycle   5  Pass 1  IDiag  1:
 RMSU=  1.01D-04    CP:  9.94D-01  6.97D-01  6.03D-01  5.25D-01
 E= -149.986201305818     Delta-E=       -0.167056600221 Rises=F Damp=F
 DIIS: error= 1.58D-02 at cycle   5 NSaved=   5.
 NSaved= 5 IEnMin= 3 EnMin= -149.986443102341     IErMin= 2 ErrMin= 6.74D-03
 ErrMax= 1.58D-02  0.00D+00 EMaxC= 1.00D-01 BMatC= 8.26D-02 BMatP= 6.57D-02
 IDIUse=2 WtCom= 0.00D+00 WtEn= 1.00D+00
 Coeff-En:   0.000D+00 0.000D+00 0.502D+00 0.000D+00 0.498D+00
 Coeff:      0.000D+00 0.000D+00 0.502D+00 0.000D+00 0.498D+00
 Gap=     0.171 Goal=   None    Shift=    0.000
 Gap=     0.171 Goal=   None    Shift=    0.000
 RMSDP=3.53D-04 MaxDP=1.75D-02 DE=-1.67D-01 OVMax= 9.44D-02

 Cycle   6  Pass 1  IDiag  1:
 RMSU=  2.46D-05    CP:  9.91D-01  5.35D-01  8.23D-01  2.56D-01  7.41D-01
 E= -150.006544869824     Delta-E=       -0.020343564007 Rises=F Damp=F
 DIIS: error= 6.78D-04 at cycle   6 NSaved=   6.
 NSaved= 6 IEnMin= 6 EnMin= -150.006544869824     IErMin= 6 ErrMin= 6.78D-04
 ErrMax= 6.78D-04  0.00D+00 EMaxC= 1.00D-01 BMatC= 3.14D-04 BMatP= 6.57D-02
 IDIUse=3 WtCom= 9.93D-01 WtEn= 6.78D-03
 Coeff-Com:  0.579D-03-0.211D-02 0.171D+00-0.625D-01 0.365D+00 0.528D+00
 Coeff-En:   0.000D+00 0.000D+00 0.000D+00 0.000D+00 0.000D+00 0.100D+01
 Coeff:      0.575D-03-0.210D-02 0.170D+00-0.620D-01 0.363D+00 0.531D+00
 Gap=     0.174 Goal=   None    Shift=    0.000
 Gap=     0.174 Goal=   None    Shift=    0.000
 RMSDP=2.43D-05 MaxDP=1.07D-03 DE=-2.03D-02 OVMax= 5.86D-03

 Cycle   7  Pass 1  IDiag  1:
 RMSU=  8.90D-06    CP:  9.91D-01  5.45D-01  8.16D-01  2.71D-01  7.59D-01
                    CP:  6.71D-01
 E= -150.006599252340     Delta-E=       -0.000054382516 Rises=F Damp=F
 DIIS: error= 3.91D-04 at cycle   7 NSaved=   7.
 NSaved= 7 IEnMin= 7 EnMin= -150.006599252340     IErMin= 7 ErrMin= 3.91D-04
 ErrMax= 3.91D-04  0.00D+00 EMaxC= 1.00D-01 BMatC= 4.66D-05 BMatP= 3.14D-04
 IDIUse=3 WtCom= 9.96D-01 WtEn= 3.91D-03
 Coeff-Com:  0.313D-03-0.251D-02 0.267D-01-0.676D-02 0.378D-01 0.225D+00
 Coeff-Com:  0.720D+00
 Coeff-En:   0.000D+00 0.000D+00 0.000D+00 0.000D+00 0.000D+00 0.172D+00
 Coeff-En:   0.828D+00
 Coeff:      0.312D-03-0.250D-02 0.266D-01-0.674D-02 0.377D-01 0.225D+00
 Coeff:      0.720D+00
 Gap=     0.174 Goal=   None    Shift=    0.000
 Gap=     0.174 Goal=   None    Shift=    0.000
 RMSDP=8.93D-06 MaxDP=4.38D-04 DE=-5.44D-05 OVMax= 2.30D-03

 Cycle   8  Pass 1  IDiag  1:
 RMSU=  2.03D-06    CP:  9.91D-01  5.41D-01  8.21D-01  2.65D-01  7.48D-01
                    CP:  7.51D-01  8.46D-01
 E= -150.006611697687     Delta-E=       -0.000012445346 Rises=F Damp=F
 DIIS: error= 1.86D-05 at cycle   8 NSaved=   8.
 NSaved= 8 IEnMin= 8 EnMin= -150.006611697687     IErMin= 8 ErrMin= 1.86D-05
 ErrMax= 1.86D-05  0.00D+00 EMaxC= 1.00D-01 BMatC= 2.57D-07 BMatP= 4.66D-05
 IDIUse=1 WtCom= 1.00D+00 WtEn= 0.00D+00
 Coeff-Com:  0.462D-04-0.153D-03-0.489D-03 0.289D-03-0.511D-02 0.345D-01
 Coeff-Com:  0.192D+00 0.779D+00
 Coeff:      0.462D-04-0.153D-03-0.489D-03 0.289D-03-0.511D-02 0.345D-01
 Coeff:      0.192D+00 0.779D+00
 Gap=     0.174 Goal=   None    Shift=    0.000
 Gap=     0.174 Goal=   None    Shift=    0.000
 RMSDP=6.64D-07 MaxDP=2.36D-05 DE=-1.24D-05 OVMax= 1.69D-04

 Cycle   9  Pass 1  IDiag  1:
 RMSU=  3.60D-07    CP:  9.91D-01  5.41D-01  8.21D-01  2.65D-01  7.48D-01
                    CP:  7.58D-01  8.67D-01  8.87D-01
 E= -150.006611748809     Delta-E=       -0.000000051122 Rises=F Damp=F
 DIIS: error= 1.05D-05 at cycle   9 NSaved=   9.
 NSaved= 9 IEnMin= 9 EnMin= -150.006611748809     IErMin= 9 ErrMin= 1.05D-05
 ErrMax= 1.05D-05  0.00D+00 EMaxC= 1.00D-01 BMatC= 2.93D-08 BMatP= 2.57D-07
 IDIUse=1 WtCom= 1.00D+00 WtEn= 0.00D+00
 Coeff-Com: -0.760D-05 0.257D-04-0.100D-02 0.330D-03-0.231D-02 0.217D-02
 Coeff-Com:  0.298D-01 0.207D+00 0.764D+00
 Coeff:     -0.760D-05 0.257D-04-0.100D-02 0.330D-03-0.231D-02 0.217D-02
 Coeff:      0.298D-01 0.207D+00 0.764D+00
 Gap=     0.174 Goal=   None    Shift=    0.000
 Gap=     0.174 Goal=   None    Shift=    0.000
 RMSDP=2.05D-07 MaxDP=7.58D-06 DE=-5.11D-08 OVMax= 4.11D-05

 Cycle  10  Pass 1  IDiag  1:
 RMSU=  7.71D-08    CP:  9.91D-01  5.41D-01  8.21D-01  2.65D-01  7.48D-01
                    CP:  7.59D-01  8.72D-01  9.09D-01  9.19D-01
 E= -150.006611756150     Delta-E=       -0.000000007341 Rises=F Damp=F
 DIIS: error= 2.15D-06 at cycle  10 NSaved=  10.
 NSaved=10 IEnMin=10 EnMin= -150.006611756150     IErMin=10 ErrMin= 2.15D-06
 ErrMax= 2.15D-06  0.00D+00 EMaxC= 1.00D-01 BMatC= 2.07D-09 BMatP= 2.93D-08
 IDIUse=1 WtCom= 1.00D+00 WtEn= 0.00D+00
 Coeff-Com: -0.110D-04 0.233D-04-0.228D-03 0.440D-04-0.111D-03-0.170D-02
 Coeff-Com: -0.489D-02-0.732D-02 0.982D-01 0.916D+00
 Coeff:     -0.110D-04 0.233D-04-0.228D-03 0.440D-04-0.111D-03-0.170D-02
 Coeff:     -0.489D-02-0.732D-02 0.982D-01 0.916D+00
 Gap=     0.174 Goal=   None    Shift=    0.000
 Gap=     0.174 Goal=   None    Shift=    0.000
 RMSDP=6.61D-08 MaxDP=3.03D-06 DE=-7.34D-09 OVMax= 7.27D-06

 Cycle  11  Pass 1  IDiag  1:
 RMSU=  1.76D-08    CP:  9.91D-01  5.41D-01  8.21D-01  2.65D-01  7.49D-01
                    CP:  7.59D-01  8.73D-01  9.13D-01  9.65D-01  1.04D+00
 E= -150.006611756603     Delta-E=       -0.000000000453 Rises=F Damp=F
 DIIS: error= 4.39D-07 at cycle  11 NSaved=  11.
 NSaved=11 IEnMin=11 EnMin= -150.006611756603     IErMin=11 ErrMin= 4.39D-07
 ErrMax= 4.39D-07  0.00D+00 EMaxC= 1.00D-01 BMatC= 5.46D-11 BMatP= 2.07D-09
 IDIUse=1 WtCom= 1.00D+00 WtEn= 0.00D+00
 Coeff-Com: -0.132D-05 0.356D-05-0.266D-04-0.113D-06 0.369D-04-0.389D-03
 Coeff-Com: -0.130D-02-0.590D-02-0.601D-02 0.159D+00 0.855D+00
 Coeff:     -0.132D-05 0.356D-05-0.266D-04-0.113D-06 0.369D-04-0.389D-03
 Coeff:     -0.130D-02-0.590D-02-0.601D-02 0.159D+00 0.855D+00
 Gap=     0.174 Goal=   None    Shift=    0.000
 Gap=     0.174 Goal=   None    Shift=    0.000
 RMSDP=1.07D-08 MaxDP=5.40D-07 DE=-4.53D-10 OVMax= 1.92D-06

 Cycle  12  Pass 1  IDiag  1:
 RMSU=  2.99D-09    CP:  9.91D-01  5.41D-01  8.21D-01  2.65D-01  7.49D-01
                    CP:  7.59D-01  8.73D-01  9.13D-01  9.69D-01  1.06D+00
                    CP:  9.77D-01
 E= -150.006611756616     Delta-E=       -0.000000000013 Rises=F Damp=F
 DIIS: error= 4.25D-08 at cycle  12 NSaved=  12.
 NSaved=12 IEnMin=12 EnMin= -150.006611756616     IErMin=12 ErrMin= 4.25D-08
 ErrMax= 4.25D-08  0.00D+00 EMaxC= 1.00D-01 BMatC= 5.73D-13 BMatP= 5.46D-11
 IDIUse=1 WtCom= 1.00D+00 WtEn= 0.00D+00
 Coeff-Com:  0.128D-06-0.132D-06-0.197D-05 0.285D-06 0.324D-05-0.313D-04
 Coeff-Com: -0.112D-03-0.753D-03-0.352D-02 0.514D-02 0.101D+00 0.898D+00
 Coeff:      0.128D-06-0.132D-06-0.197D-05 0.285D-06 0.324D-05-0.313D-04
 Coeff:     -0.112D-03-0.753D-03-0.352D-02 0.514D-02 0.101D+00 0.898D+00
 Gap=     0.174 Goal=   None    Shift=    0.000
 Gap=     0.174 Goal=   None    Shift=    0.000
 RMSDP=1.44D-09 MaxDP=7.22D-08 DE=-1.33D-11 OVMax= 1.99D-07

 SCF Done:  E(UB3LYP) =  -150.006611757     A.U. after   12 cycles
            NFock= 12  Conv=0.14D-08     -V/T= 2.0049
 <Sx>= 0.0000 <Sy>= 0.0000 <Sz>= 0.0000 <S**2>=-0.0000 S=-0.0000
 <L.S>=  0.00000000000    
 KE= 1.492690277823D+02 PE=-4.962746282389D+02 EE= 1.236164396359D+02
 Annihilation of the first spin contaminant:
 S**2 before annihilation    -0.0000,   after     0.0000
 Leave Link  502 at Tue Jan  3 09:09:16 2023, MaxMem=   536870912 cpu:             726.3 elap:             363.3
 (Enter /opt/software/gaussian/g16.c01/l508.exe)
 QCSCF skips out because SCF is already converged.
 Leave Link  508 at Tue Jan  3 09:09:16 2023, MaxMem=   536870912 cpu:               0.0 elap:               0.0
 (Enter /opt/software/gaussian/g16.c01/l601.exe)
 Copying SCF densities to generalized density rwf, IOpCl= 1 IROHF=0.

 **********************************************************************

            Population analysis using the SCF Density.

 **********************************************************************

 Alpha  occ. eigenvalues --  -14.44200 -14.30653 -10.20174  -1.04363  -0.81245
 Alpha  occ. eigenvalues --   -0.64898  -0.57026  -0.48886  -0.43493  -0.42348
 Alpha  occ. eigenvalues --   -0.28827  -0.20569
 Alpha virt. eigenvalues --   -0.03124  -0.01794   0.01906   0.04126   0.07767
 Alpha virt. eigenvalues --    0.08017   0.09138   0.09583   0.13670   0.14034
 Alpha virt. eigenvalues --    0.14473   0.15425   0.16457   0.17826   0.19112
 Alpha virt. eigenvalues --    0.21605   0.21782   0.23310   0.23564   0.25428
 Alpha virt. eigenvalues --    0.25927   0.26217   0.27798   0.28030   0.31220
 Alpha virt. eigenvalues --    0.31542   0.31555   0.32830   0.34306   0.34745
 Alpha virt. eigenvalues --    0.35777   0.37380   0.37827   0.38595   0.40833
 Alpha virt. eigenvalues --    0.43203   0.43931   0.45152   0.47083   0.47147
 Alpha virt. eigenvalues --    0.49113   0.49473   0.51805   0.53031   0.53109
 Alpha virt. eigenvalues --    0.59798   0.60156   0.62638   0.64108   0.64756
 Alpha virt. eigenvalues --    0.65775   0.66057   0.68298   0.76817   0.78498
 Alpha virt. eigenvalues --    0.80727   0.82873   0.85248   0.85741   0.88820
 Alpha virt. eigenvalues --    0.89660   0.91551   0.92539   0.95475   0.96379
 Alpha virt. eigenvalues --    0.98099   0.99152   1.01476   1.05942   1.09501
 Alpha virt. eigenvalues --    1.14258   1.14779   1.16319   1.17859   1.23445
 Alpha virt. eigenvalues --    1.24290   1.28419   1.31008   1.31523   1.32271
 Alpha virt. eigenvalues --    1.32656   1.38353   1.38829   1.46338   1.49478
 Alpha virt. eigenvalues --    1.51700   1.57310   1.59455   1.63432   1.71427
 Alpha virt. eigenvalues --    1.81383   1.85917   1.87170   1.88741   1.89264
 Alpha virt. eigenvalues --    1.93371   1.96250   1.97140   2.00634   2.02990
 Alpha virt. eigenvalues --    2.11429   2.15677   2.18853   2.20116   2.21506
 Alpha virt. eigenvalues --    2.29393   2.31367   2.32896   2.35631   2.37958
 Alpha virt. eigenvalues --    2.40415   2.44160   2.45915   2.47334   2.50179
 Alpha virt. eigenvalues --    2.52209   2.55009   2.58663   2.58918   2.60861
 Alpha virt. eigenvalues --    2.67665   2.69235   2.69715   2.72805   2.74476
 Alpha virt. eigenvalues --    2.80551   2.81524   2.82342   2.84575   2.92238
 Alpha virt. eigenvalues --    2.92573   2.96799   2.97990   3.05095   3.05893
 Alpha virt. eigenvalues --    3.06032   3.10655   3.14829   3.22051   3.28951
 Alpha virt. eigenvalues --    3.31954   3.35594   3.38526   3.38984   3.44682
 Alpha virt. eigenvalues --    3.47724   3.48024   3.55801   3.55892   3.60755
 Alpha virt. eigenvalues --    3.62937   3.64250   3.72580   3.76528   3.81044
 Alpha virt. eigenvalues --    3.87238   3.91401   3.99318   4.07039   4.09509
 Alpha virt. eigenvalues --    4.18353   4.19297   4.29506   4.29836   4.38836
 Alpha virt. eigenvalues --    4.48087   4.62849   4.67699   4.88944   5.02216
 Alpha virt. eigenvalues --    5.07739   5.18308   5.28587   5.33107   5.40075
 Alpha virt. eigenvalues --    5.46999   5.47694   5.56020   5.58663   5.63007
 Alpha virt. eigenvalues --    5.73096   5.76060   5.80447   5.82588   5.88985
 Alpha virt. eigenvalues --    5.90765   5.95472   5.99555   6.03061   6.10850
 Alpha virt. eigenvalues --    6.11828   6.16845   6.25885   6.27127   6.35159
 Alpha virt. eigenvalues --    6.37009   6.39356   6.43125   6.54658   6.55747
 Alpha virt. eigenvalues --    6.56271   6.60135   6.71031   6.73272   6.78995
 Alpha virt. eigenvalues --    6.84666   6.89605   6.91585   6.94418   7.06760
 Alpha virt. eigenvalues --    7.09892   7.10820   7.17337   7.23890   7.25324
 Alpha virt. eigenvalues --    7.31347   7.34427   7.37958   7.41888   7.45116
 Alpha virt. eigenvalues --    7.46536   7.52586   7.52709   7.53191   7.63343
 Alpha virt. eigenvalues --    7.63565   7.71232   7.71640   7.79032   7.82032
 Alpha virt. eigenvalues --    7.83810   7.90187   7.91698   7.94175   7.97347
 Alpha virt. eigenvalues --    8.03129   8.03188   8.07865   8.09032   8.10392
 Alpha virt. eigenvalues --    8.11047   8.14873   8.20581   8.22657   8.24650
 Alpha virt. eigenvalues --    8.28665   8.30337   8.35527   8.39087   8.45238
 Alpha virt. eigenvalues --    8.48794   8.52974   8.60764   8.61915   8.63478
 Alpha virt. eigenvalues --    8.66880   8.69515   8.70114   8.83296   8.88270
 Alpha virt. eigenvalues --    8.91663   8.96955   9.00024   9.00177   9.11618
 Alpha virt. eigenvalues --    9.14234   9.18081   9.25503   9.26184   9.32708
 Alpha virt. eigenvalues --    9.33181   9.40120   9.49876   9.49987   9.60104
 Alpha virt. eigenvalues --    9.69060   9.75795   9.80488   9.84477   9.84639
 Alpha virt. eigenvalues --    9.95589   9.96232  10.17343  10.29849  10.44691
 Alpha virt. eigenvalues --   10.66805  10.75866  10.92683  10.97791  11.20324
 Alpha virt. eigenvalues --   11.29006  11.45856  11.61650  11.62157  11.64466
 Alpha virt. eigenvalues --   11.82169  11.94102  12.12202  12.30603  13.07874
 Alpha virt. eigenvalues --   13.19309  14.80647  14.80979  28.72337  37.68207
 Alpha virt. eigenvalues --   38.11921 147.73782 196.96398 197.42052
  Beta  occ. eigenvalues --  -14.44200 -14.30653 -10.20174  -1.04363  -0.81245
  Beta  occ. eigenvalues --   -0.64898  -0.57026  -0.48886  -0.43493  -0.42348
  Beta  occ. eigenvalues --   -0.28827  -0.20569
  Beta virt. eigenvalues --   -0.03124  -0.01794   0.01906   0.04126   0.07767
  Beta virt. eigenvalues --    0.08017   0.09138   0.09583   0.13670   0.14034
  Beta virt. eigenvalues --    0.14473   0.15425   0.16457   0.17826   0.19112
  Beta virt. eigenvalues --    0.21605   0.21782   0.23310   0.23564   0.25428
  Beta virt. eigenvalues --    0.25927   0.26217   0.27798   0.28030   0.31220
  Beta virt. eigenvalues --    0.31542   0.31555   0.32830   0.34306   0.34745
  Beta virt. eigenvalues --    0.35777   0.37380   0.37827   0.38595   0.40833
  Beta virt. eigenvalues --    0.43203   0.43931   0.45152   0.47083   0.47147
  Beta virt. eigenvalues --    0.49113   0.49473   0.51805   0.53031   0.53109
  Beta virt. eigenvalues --    0.59798   0.60156   0.62638   0.64108   0.64756
  Beta virt. eigenvalues --    0.65775   0.66057   0.68298   0.76817   0.78498
  Beta virt. eigenvalues --    0.80727   0.82873   0.85248   0.85741   0.88820
  Beta virt. eigenvalues --    0.89660   0.91551   0.92539   0.95475   0.96379
  Beta virt. eigenvalues --    0.98099   0.99152   1.01476   1.05942   1.09501
  Beta virt. eigenvalues --    1.14258   1.14779   1.16319   1.17859   1.23445
  Beta virt. eigenvalues --    1.24290   1.28419   1.31008   1.31523   1.32271
  Beta virt. eigenvalues --    1.32656   1.38353   1.38829   1.46338   1.49478
  Beta virt. eigenvalues --    1.51700   1.57310   1.59455   1.63432   1.71427
  Beta virt. eigenvalues --    1.81383   1.85917   1.87170   1.88741   1.89264
  Beta virt. eigenvalues --    1.93371   1.96250   1.97140   2.00634   2.02990
  Beta virt. eigenvalues --    2.11429   2.15677   2.18853   2.20116   2.21506
  Beta virt. eigenvalues --    2.29393   2.31367   2.32896   2.35631   2.37958
  Beta virt. eigenvalues --    2.40415   2.44160   2.45915   2.47334   2.50179
  Beta virt. eigenvalues --    2.52209   2.55009   2.58663   2.58918   2.60861
  Beta virt. eigenvalues --    2.67665   2.69235   2.69715   2.72805   2.74476
  Beta virt. eigenvalues --    2.80551   2.81524   2.82342   2.84575   2.92238
  Beta virt. eigenvalues --    2.92573   2.96799   2.97990   3.05095   3.05893
  Beta virt. eigenvalues --    3.06032   3.10655   3.14829   3.22051   3.28951
  Beta virt. eigenvalues --    3.31954   3.35594   3.38526   3.38984   3.44682
  Beta virt. eigenvalues --    3.47724   3.48024   3.55801   3.55892   3.60755
  Beta virt. eigenvalues --    3.62937   3.64250   3.72580   3.76528   3.81044
  Beta virt. eigenvalues --    3.87238   3.91401   3.99318   4.07039   4.09509
  Beta virt. eigenvalues --    4.18353   4.19297   4.29506   4.29836   4.38836
  Beta virt. eigenvalues --    4.48087   4.62849   4.67699   4.88944   5.02216
  Beta virt. eigenvalues --    5.07739   5.18308   5.28587   5.33107   5.40075
  Beta virt. eigenvalues --    5.46999   5.47694   5.56020   5.58663   5.63007
  Beta virt. eigenvalues --    5.73096   5.76060   5.80447   5.82588   5.88985
  Beta virt. eigenvalues --    5.90765   5.95472   5.99555   6.03061   6.10850
  Beta virt. eigenvalues --    6.11828   6.16845   6.25885   6.27127   6.35159
  Beta virt. eigenvalues --    6.37009   6.39356   6.43125   6.54658   6.55747
  Beta virt. eigenvalues --    6.56271   6.60135   6.71031   6.73272   6.78995
  Beta virt. eigenvalues --    6.84666   6.89605   6.91585   6.94418   7.06760
  Beta virt. eigenvalues --    7.09892   7.10820   7.17337   7.23890   7.25324
  Beta virt. eigenvalues --    7.31347   7.34427   7.37958   7.41888   7.45116
  Beta virt. eigenvalues --    7.46536   7.52586   7.52709   7.53191   7.63343
  Beta virt. eigenvalues --    7.63565   7.71232   7.71640   7.79032   7.82032
  Beta virt. eigenvalues --    7.83810   7.90187   7.91698   7.94175   7.97347
  Beta virt. eigenvalues --    8.03129   8.03188   8.07865   8.09032   8.10392
  Beta virt. eigenvalues --    8.11047   8.14873   8.20581   8.22657   8.24650
  Beta virt. eigenvalues --    8.28665   8.30337   8.35527   8.39087   8.45238
  Beta virt. eigenvalues --    8.48794   8.52974   8.60764   8.61915   8.63478
  Beta virt. eigenvalues --    8.66880   8.69515   8.70114   8.83296   8.88270
  Beta virt. eigenvalues --    8.91663   8.96955   9.00024   9.00177   9.11618
  Beta virt. eigenvalues --    9.14234   9.18081   9.25503   9.26184   9.32708
  Beta virt. eigenvalues --    9.33181   9.40120   9.49876   9.49987   9.60104
  Beta virt. eigenvalues --    9.69060   9.75795   9.80488   9.84477   9.84639
  Beta virt. eigenvalues --    9.95589   9.96232  10.17343  10.29849  10.44691
  Beta virt. eigenvalues --   10.66805  10.75866  10.92683  10.97791  11.20324
  Beta virt. eigenvalues --   11.29006  11.45856  11.61650  11.62157  11.64466
  Beta virt. eigenvalues --   11.82169  11.94102  12.12202  12.30603  13.07874
  Beta virt. eigenvalues --   13.19309  14.80647  14.80979  28.72337  37.68207
  Beta virt. eigenvalues --   38.11921 147.73782 196.96398 197.42052
          Condensed to atoms (all electrons):
               1          2          3          4          5          6
     1  C    4.968819   0.392528  -0.030426  -0.021603   0.422170   0.453463
     2  N    0.392528   6.225235   0.074424   0.091798  -0.056776  -0.025320
     3  N   -0.030426   0.074424   7.379574  -0.009005   0.011078  -0.005142
     4  H   -0.021603   0.091798  -0.009005   0.879495  -0.004060   0.001898
     5  H    0.422170  -0.056776   0.011078  -0.004060   0.518032  -0.015166
     6  H    0.453463  -0.025320  -0.005142   0.001898  -0.015166   0.466347
     7  H    0.015299   0.211455   0.036183  -0.066237   0.013668  -0.006011
               7
     1  C    0.015299
     2  N    0.211455
     3  N    0.036183
     4  H   -0.066237
     5  H    0.013668
     6  H   -0.006011
     7  H    0.594061
          Atomic-Atomic Spin Densities.
               1          2          3          4          5          6
     1  C    0.000000  -0.000000   0.000000   0.000000  -0.000000   0.000000
     2  N   -0.000000  -0.000000   0.000000  -0.000000  -0.000000   0.000000
     3  N    0.000000   0.000000   0.000000  -0.000000   0.000000  -0.000000
     4  H    0.000000  -0.000000  -0.000000   0.000000  -0.000000   0.000000
     5  H   -0.000000  -0.000000   0.000000  -0.000000  -0.000000  -0.000000
     6  H    0.000000   0.000000  -0.000000   0.000000  -0.000000   0.000000
     7  H   -0.000000   0.000000   0.000000   0.000000   0.000000  -0.000000
               7
     1  C   -0.000000
     2  N    0.000000
     3  N    0.000000
     4  H    0.000000
     5  H    0.000000
     6  H   -0.000000
     7  H   -0.000000
 Mulliken charges and spin densities:
               1          2
     1  C   -0.200251  -0.000000
     2  N    0.086656  -0.000000
     3  N   -0.456686   0.000000
     4  H    0.127715   0.000000
     5  H    0.111055  -0.000000
     6  H    0.129930   0.000000
     7  H    0.201582   0.000000
 Sum of Mulliken charges =  -0.00000   0.00000
 Mulliken charges and spin densities with hydrogens summed into heavy atoms:
               1          2
     1  C    0.040734  -0.000000
     2  N    0.288238  -0.000000
     3  N   -0.328971   0.000000
 Electronic spatial extent (au):  <R**2>=            599.1955
 Charge=             -0.0000 electrons
 Dipole moment (field-independent basis, Debye):
    X=              0.2349    Y=              0.7868    Z=              2.9280  Tot=              3.0409
 Quadrupole moment (field-independent basis, Debye-Ang):
   XX=            -14.7243   YY=            -21.5716   ZZ=            -22.8926
   XY=              2.3028   XZ=              8.4679   YZ=             -0.4444
 Traceless Quadrupole moment (field-independent basis, Debye-Ang):
   XX=              5.0052   YY=             -1.8421   ZZ=             -3.1631
   XY=              2.3028   XZ=              8.4679   YZ=             -0.4444
 Octapole moment (field-independent basis, Debye-Ang**2):
  XXX=            -94.2052  YYY=             10.9552  ZZZ=             41.6537  XYY=            -46.2947
  XXY=              9.0547  XXZ=             31.8687  XZZ=            -53.4473  YZZ=              5.4429
  YYZ=             12.1057  XYZ=             -2.2775
 Hexadecapole moment (field-independent basis, Debye-Ang**3):
 XXXX=           -503.0080 YYYY=            -31.3989 ZZZZ=           -118.4807 XXXY=             38.9686
 XXXZ=            135.5438 YYYX=             30.4746 YYYZ=            -12.6046 ZZZX=            119.4323
 ZZZY=            -14.2340 XXYY=           -128.6204 XXZZ=           -158.0517 YYZZ=            -24.4682
 XXYZ=             -9.3584 YYXZ=             35.3027 ZZXY=             14.9328
 N-N= 7.338254906404D+01 E-N=-4.962746285273D+02  KE= 1.492690277823D+02
                          Isotropic Fermi Contact Couplings
        Atom                 a.u.       MegaHertz       Gauss      10(-4) cm-1
     1  C(13)             -0.00000      -0.00000      -0.00000      -0.00000
     2  N(14)              0.00000       0.00000       0.00000       0.00000
     3  N(14)              0.00000       0.00000       0.00000       0.00000
     4  H(1)              -0.00000      -0.00000      -0.00000      -0.00000
     5  H(1)               0.00000       0.00000       0.00000       0.00000
     6  H(1)               0.00000       0.00000       0.00000       0.00000
     7  H(1)               0.00000       0.00000       0.00000       0.00000
 --------------------------------------------------------
       Center         ----  Spin Dipole Couplings  ----
                      3XX-RR        3YY-RR        3ZZ-RR
 --------------------------------------------------------
     1   Atom        0.000000      0.000000     -0.000000
     2   Atom        0.000000      0.000000     -0.000000
     3   Atom        0.000000     -0.000000      0.000000
     4   Atom        0.000000     -0.000000     -0.000000
     5   Atom       -0.000000     -0.000000      0.000000
     6   Atom       -0.000000     -0.000000      0.000000
     7   Atom        0.000000     -0.000000     -0.000000
 --------------------------------------------------------
                        XY            XZ            YZ
 --------------------------------------------------------
     1   Atom       -0.000000     -0.000000     -0.000000
     2   Atom        0.000000     -0.000000     -0.000000
     3   Atom       -0.000000      0.000000      0.000000
     4   Atom       -0.000000      0.000000     -0.000000
     5   Atom        0.000000      0.000000      0.000000
     6   Atom       -0.000000     -0.000000      0.000000
     7   Atom        0.000000      0.000000      0.000000
 --------------------------------------------------------


 ---------------------------------------------------------------------------------
              Anisotropic Spin Dipole Couplings in Principal Axis System
 ---------------------------------------------------------------------------------

       Atom             a.u.   MegaHertz   Gauss  10(-4) cm-1        Axes

              Baa    -0.0000    -0.000    -0.000    -0.000  0.1436  0.2116  0.9667
     1 C(13)  Bbb     0.0000     0.000     0.000     0.000 -0.0247  0.9773 -0.2103
              Bcc     0.0000     0.000     0.000     0.000  0.9893 -0.0063 -0.1456
 
              Baa    -0.0000    -0.000    -0.000    -0.000  0.0073  0.2441  0.9697
     2 N(14)  Bbb     0.0000     0.000     0.000     0.000  0.9849 -0.1695  0.0352
              Bcc     0.0000     0.000     0.000     0.000  0.1729  0.9548 -0.2416
 
              Baa    -0.0000    -0.000    -0.000    -0.000  0.1461  0.8402 -0.5223
     3 N(14)  Bbb     0.0000     0.000     0.000     0.000  0.9893 -0.1253  0.0752
              Bcc     0.0000     0.000     0.000     0.000  0.0023  0.5276  0.8495
 
              Baa    -0.0000    -0.000    -0.000    -0.000 -0.4795 -0.0378  0.8768
     4 H(1)   Bbb    -0.0000    -0.000    -0.000    -0.000  0.2808  0.9399  0.1941
              Bcc     0.0000     0.000     0.000     0.000  0.8314 -0.3392  0.4400
 
              Baa    -0.0000    -0.000    -0.000    -0.000  0.9163 -0.3999  0.0224
     5 H(1)   Bbb    -0.0000    -0.000    -0.000    -0.000  0.3949  0.8928 -0.2167
              Bcc     0.0000     0.000     0.000     0.000  0.0667  0.2074  0.9760
 
              Baa    -0.0000    -0.000    -0.000    -0.000  0.9595 -0.0491  0.2775
     6 H(1)   Bbb    -0.0000    -0.000    -0.000    -0.000  0.1128  0.9693 -0.2184
              Bcc     0.0000     0.000     0.000     0.000 -0.2583  0.2408  0.9356
 
              Baa    -0.0000    -0.000    -0.000    -0.000 -0.5170  0.2304  0.8244
     7 H(1)   Bbb    -0.0000    -0.000    -0.000    -0.000 -0.1309  0.9305 -0.3422
              Bcc     0.0000     0.000     0.000     0.000  0.8459  0.2849  0.4509
 

 ---------------------------------------------------------------------------------

 No NMR shielding tensors so no spin-rotation constants.
 Leave Link  601 at Tue Jan  3 09:09:17 2023, MaxMem=   536870912 cpu:               0.9 elap:               0.5
 (Enter /opt/software/gaussian/g16.c01/l801.exe)
 DoSCS=F DFT=T ScalE2(SS,OS)=  1.000000  1.000000
 Range of M.O.s used for correlation:     1   321
 NBasis=   321 NAE=    12 NBE=    12 NFC=     0 NFV=     0
 NROrb=    321 NOA=    12 NOB=    12 NVA=   309 NVB=   309

 **** Warning!!: The largest alpha MO coefficient is  0.12183427D+03


 **** Warning!!: The largest beta MO coefficient is  0.12183427D+03

 Leave Link  801 at Tue Jan  3 09:09:17 2023, MaxMem=   536870912 cpu:               0.1 elap:               0.0
 (Enter /opt/software/gaussian/g16.c01/l914.exe)
 UHF ground state
 Doing stability rather than CIS.
 Two-electron integral symmetry not used.
 MDV=   536870912 DFT=T DoStab=T Mixed=T DoRPA=F DoScal=F NonHer=F
 Making orbital integer symmetry assigments:
    12 initial guesses have been made.
 Convergence on wavefunction:    0.001000000000000
 Davidson Disk Diagonalization:  ConvIn= 1.00D-03 SkipCon=T Conv= 1.00D-03.
 Max sub-space:  2000 roots to seek:    12 dimension of matrix:         7416
 Iteration     1 Dimension    12 NMult     0 NNew     12
 CISAX will form    12 AO SS matrices at one time.
 NMat=    12 NSing=    12 JSym2X= 0.
 FoFJK:  IHMeth= 1 ICntrl=       0 DoSepK=F KAlg= 0 I1Cent=           0 FoldK=F
 IRaf= 990000000 NMat=      12 IRICut=      30 DoRegI=T DoRafI=T ISym2E= 0 IDoP0=3 IntGTp=3.
 FoFCou: FMM=F IPFlag=           0 FMFlag=      100000 FMFlg1=           0
         NFxFlg=           0 DoJE=F BraDBF=F KetDBF=F FulRan=T
         wScrn=  0.000000 ICntrl=         0 IOpCl=  1 I1Cent=           0 NGrid=           0
         NMat0=   12 NMatS0=     12 NMatT0=    0 NMatD0=   12 NMtDS0=    0 NMtDT0=    0
 Symmetry not used in FoFCou.
 Raff kept on since  98.41% of shell-pairs survive, threshold=   0.20 IRatSp=98.
 Excitation Energies [eV] at current iteration:
 Root      1 :     1.344379347235289
 Root      2 :     3.959271377900281
 Root      3 :     4.056788315872257
 Root      4 :     4.784995426385417
 Root      5 :     5.171963557169753
 Root      6 :     5.238526326010819
 Root      7 :     5.586224196949274
 Root      8 :     5.722059776046708
 Root      9 :     6.090587098217726
 Root     10 :     6.134041177141100
 Root     11 :     6.495481614022165
 Root     12 :    12.308866627260803
 Iteration     2 Dimension    24 NMult    12 NNew     12
 CISAX will form    12 AO SS matrices at one time.
 NMat=    12 NSing=    12 JSym2X= 0.
 Root      1 not converged, maximum delta is    0.103708647815080
 Excitation Energies [eV] at current iteration:
 Root      1 :     0.865198834897132   Change is   -0.479180512338157
 Root      2 :     3.872066793357460   Change is   -0.087204584542822
 Root      3 :     4.035717896978934   Change is   -0.021070418893323
 Root      4 :     4.521185629216415   Change is   -0.263809797169002
 Root      5 :     5.079329948571345   Change is   -0.092633608598408
 Root      6 :     5.216804220903399   Change is   -0.021722105107420
 Root      7 :     5.465456404327504   Change is   -0.120767792621770
 Root      8 :     5.688573373294091   Change is   -0.033486402752618
 Root      9 :     5.808416221502601   Change is   -0.282170876715125
 Root     10 :     5.875728543030752   Change is   -0.258312634110347
 Root     11 :     6.285875544964042   Change is   -0.209606069058124
 Root     12 :     9.035811563729016   Change is   -3.273055063531788
 Iteration     3 Dimension    27 NMult    24 NNew      3
 CISAX will form     3 AO SS matrices at one time.
 NMat=     3 NSing=     3 JSym2X= 0.
 Root      1 not converged, maximum delta is    0.004825345187495
 Excitation Energies [eV] at current iteration:
 Root      1 :     0.858181412781314   Change is   -0.007017422115818
 Root      2 :     3.870456984700328   Change is   -0.001609808657131
 Root      3 :     4.035372510001745   Change is   -0.000345386977188
 Iteration     4 Dimension    30 NMult    27 NNew      3
 CISAX will form     3 AO SS matrices at one time.
 NMat=     3 NSing=     3 JSym2X= 0.
 Root      1 not converged, maximum delta is    0.001847443766905
 Excitation Energies [eV] at current iteration:
 Root      1 :     0.857950247384342   Change is   -0.000231165396971
 Root      2 :     3.870420227468297   Change is   -0.000036757232031
 Root      3 :     4.035359966606839   Change is   -0.000012543394906
 Iteration     5 Dimension    33 NMult    30 NNew      3
 CISAX will form     3 AO SS matrices at one time.
 NMat=     3 NSing=     3 JSym2X= 0.
 Root      1 has converged.
 Excitation Energies [eV] at current iteration:
 Root      1 :     0.857942258844552   Change is   -0.000007988539790
 Root      2 :     3.870419395642779   Change is   -0.000000831825518
 Root      3 :     4.035359209632774   Change is   -0.000000756974064
 Convergence achieved on expansion vectors.
 ***********************************************************************
 Stability analysis using <AA,BB:AA,BB> singles matrix:
 ***********************************************************************
 1PDM for each excited state written to RWF  633
 Ground to excited state transition densities written to RWF  633

 Eigenvectors of the stability matrix:
 
 Excited state symmetry could not be determined.
 Eigenvector   1:  3.000-?Sym  Eigenvalue= 0.0315288  <S**2>=2.000
     12A -> 13A        0.68837
     12A -> 24A       -0.10291
     12B -> 13B       -0.68837
     12B -> 24B        0.10291
 The wavefunction is stable under the perturbations considered.
 Leave Link  914 at Tue Jan  3 09:23:35 2023, MaxMem=   536870912 cpu:            1717.0 elap:             858.7
 (Enter /opt/software/gaussian/g16.c01/l508.exe)
 The wavefunction is already stable.
 Leave Link  508 at Tue Jan  3 09:23:36 2023, MaxMem=   536870912 cpu:               0.0 elap:               0.0
 (Enter /opt/software/gaussian/g16.c01/l601.exe)
 Copying SCF densities to generalized density rwf, IOpCl= 1 IROHF=0.

 **********************************************************************

            Population analysis using the SCF Density.

 **********************************************************************

 Alpha  occ. eigenvalues --  -14.44200 -14.30653 -10.20174  -1.04363  -0.81245
 Alpha  occ. eigenvalues --   -0.64898  -0.57026  -0.48886  -0.43493  -0.42348
 Alpha  occ. eigenvalues --   -0.28827  -0.20569
 Alpha virt. eigenvalues --   -0.03124  -0.01794   0.01906   0.04126   0.07767
 Alpha virt. eigenvalues --    0.08017   0.09138   0.09583   0.13670   0.14034
 Alpha virt. eigenvalues --    0.14473   0.15425   0.16457   0.17826   0.19112
 Alpha virt. eigenvalues --    0.21605   0.21782   0.23310   0.23564   0.25428
 Alpha virt. eigenvalues --    0.25927   0.26217   0.27798   0.28030   0.31220
 Alpha virt. eigenvalues --    0.31542   0.31555   0.32830   0.34306   0.34745
 Alpha virt. eigenvalues --    0.35777   0.37380   0.37827   0.38595   0.40833
 Alpha virt. eigenvalues --    0.43203   0.43931   0.45152   0.47083   0.47147
 Alpha virt. eigenvalues --    0.49113   0.49473   0.51805   0.53031   0.53109
 Alpha virt. eigenvalues --    0.59798   0.60156   0.62638   0.64108   0.64756
 Alpha virt. eigenvalues --    0.65775   0.66057   0.68298   0.76817   0.78498
 Alpha virt. eigenvalues --    0.80727   0.82873   0.85248   0.85741   0.88820
 Alpha virt. eigenvalues --    0.89660   0.91551   0.92539   0.95475   0.96379
 Alpha virt. eigenvalues --    0.98099   0.99152   1.01476   1.05942   1.09501
 Alpha virt. eigenvalues --    1.14258   1.14779   1.16319   1.17859   1.23445
 Alpha virt. eigenvalues --    1.24290   1.28419   1.31008   1.31523   1.32271
 Alpha virt. eigenvalues --    1.32656   1.38353   1.38829   1.46338   1.49478
 Alpha virt. eigenvalues --    1.51700   1.57310   1.59455   1.63432   1.71427
 Alpha virt. eigenvalues --    1.81383   1.85917   1.87170   1.88741   1.89264
 Alpha virt. eigenvalues --    1.93371   1.96250   1.97140   2.00634   2.02990
 Alpha virt. eigenvalues --    2.11429   2.15677   2.18853   2.20116   2.21506
 Alpha virt. eigenvalues --    2.29393   2.31367   2.32896   2.35631   2.37958
 Alpha virt. eigenvalues --    2.40415   2.44160   2.45915   2.47334   2.50179
 Alpha virt. eigenvalues --    2.52209   2.55009   2.58663   2.58918   2.60861
 Alpha virt. eigenvalues --    2.67665   2.69235   2.69715   2.72805   2.74476
 Alpha virt. eigenvalues --    2.80551   2.81524   2.82342   2.84575   2.92238
 Alpha virt. eigenvalues --    2.92573   2.96799   2.97990   3.05095   3.05893
 Alpha virt. eigenvalues --    3.06032   3.10655   3.14829   3.22051   3.28951
 Alpha virt. eigenvalues --    3.31954   3.35594   3.38526   3.38984   3.44682
 Alpha virt. eigenvalues --    3.47724   3.48024   3.55801   3.55892   3.60755
 Alpha virt. eigenvalues --    3.62937   3.64250   3.72580   3.76528   3.81044
 Alpha virt. eigenvalues --    3.87238   3.91401   3.99318   4.07039   4.09509
 Alpha virt. eigenvalues --    4.18353   4.19297   4.29506   4.29836   4.38836
 Alpha virt. eigenvalues --    4.48087   4.62849   4.67699   4.88944   5.02216
 Alpha virt. eigenvalues --    5.07739   5.18308   5.28587   5.33107   5.40075
 Alpha virt. eigenvalues --    5.46999   5.47694   5.56020   5.58663   5.63007
 Alpha virt. eigenvalues --    5.73096   5.76060   5.80447   5.82588   5.88985
 Alpha virt. eigenvalues --    5.90765   5.95472   5.99555   6.03061   6.10850
 Alpha virt. eigenvalues --    6.11828   6.16845   6.25885   6.27127   6.35159
 Alpha virt. eigenvalues --    6.37009   6.39356   6.43125   6.54658   6.55747
 Alpha virt. eigenvalues --    6.56271   6.60135   6.71031   6.73272   6.78995
 Alpha virt. eigenvalues --    6.84666   6.89605   6.91585   6.94418   7.06760
 Alpha virt. eigenvalues --    7.09892   7.10820   7.17337   7.23890   7.25324
 Alpha virt. eigenvalues --    7.31347   7.34427   7.37958   7.41888   7.45116
 Alpha virt. eigenvalues --    7.46536   7.52586   7.52709   7.53191   7.63343
 Alpha virt. eigenvalues --    7.63565   7.71232   7.71640   7.79032   7.82032
 Alpha virt. eigenvalues --    7.83810   7.90187   7.91698   7.94175   7.97347
 Alpha virt. eigenvalues --    8.03129   8.03188   8.07865   8.09032   8.10392
 Alpha virt. eigenvalues --    8.11047   8.14873   8.20581   8.22657   8.24650
 Alpha virt. eigenvalues --    8.28665   8.30337   8.35527   8.39087   8.45238
 Alpha virt. eigenvalues --    8.48794   8.52974   8.60764   8.61915   8.63478
 Alpha virt. eigenvalues --    8.66880   8.69515   8.70114   8.83296   8.88270
 Alpha virt. eigenvalues --    8.91663   8.96955   9.00024   9.00177   9.11618
 Alpha virt. eigenvalues --    9.14234   9.18081   9.25503   9.26184   9.32708
 Alpha virt. eigenvalues --    9.33181   9.40120   9.49876   9.49987   9.60104
 Alpha virt. eigenvalues --    9.69060   9.75795   9.80488   9.84477   9.84639
 Alpha virt. eigenvalues --    9.95589   9.96232  10.17343  10.29849  10.44691
 Alpha virt. eigenvalues --   10.66805  10.75866  10.92683  10.97791  11.20324
 Alpha virt. eigenvalues --   11.29006  11.45856  11.61650  11.62157  11.64466
 Alpha virt. eigenvalues --   11.82169  11.94102  12.12202  12.30603  13.07874
 Alpha virt. eigenvalues --   13.19309  14.80647  14.80979  28.72337  37.68207
 Alpha virt. eigenvalues --   38.11921 147.73782 196.96398 197.42052
  Beta  occ. eigenvalues --  -14.44200 -14.30653 -10.20174  -1.04363  -0.81245
  Beta  occ. eigenvalues --   -0.64898  -0.57026  -0.48886  -0.43493  -0.42348
  Beta  occ. eigenvalues --   -0.28827  -0.20569
  Beta virt. eigenvalues --   -0.03124  -0.01794   0.01906   0.04126   0.07767
  Beta virt. eigenvalues --    0.08017   0.09138   0.09583   0.13670   0.14034
  Beta virt. eigenvalues --    0.14473   0.15425   0.16457   0.17826   0.19112
  Beta virt. eigenvalues --    0.21605   0.21782   0.23310   0.23564   0.25428
  Beta virt. eigenvalues --    0.25927   0.26217   0.27798   0.28030   0.31220
  Beta virt. eigenvalues --    0.31542   0.31555   0.32830   0.34306   0.34745
  Beta virt. eigenvalues --    0.35777   0.37380   0.37827   0.38595   0.40833
  Beta virt. eigenvalues --    0.43203   0.43931   0.45152   0.47083   0.47147
  Beta virt. eigenvalues --    0.49113   0.49473   0.51805   0.53031   0.53109
  Beta virt. eigenvalues --    0.59798   0.60156   0.62638   0.64108   0.64756
  Beta virt. eigenvalues --    0.65775   0.66057   0.68298   0.76817   0.78498
  Beta virt. eigenvalues --    0.80727   0.82873   0.85248   0.85741   0.88820
  Beta virt. eigenvalues --    0.89660   0.91551   0.92539   0.95475   0.96379
  Beta virt. eigenvalues --    0.98099   0.99152   1.01476   1.05942   1.09501
  Beta virt. eigenvalues --    1.14258   1.14779   1.16319   1.17859   1.23445
  Beta virt. eigenvalues --    1.24290   1.28419   1.31008   1.31523   1.32271
  Beta virt. eigenvalues --    1.32656   1.38353   1.38829   1.46338   1.49478
  Beta virt. eigenvalues --    1.51700   1.57310   1.59455   1.63432   1.71427
  Beta virt. eigenvalues --    1.81383   1.85917   1.87170   1.88741   1.89264
  Beta virt. eigenvalues --    1.93371   1.96250   1.97140   2.00634   2.02990
  Beta virt. eigenvalues --    2.11429   2.15677   2.18853   2.20116   2.21506
  Beta virt. eigenvalues --    2.29393   2.31367   2.32896   2.35631   2.37958
  Beta virt. eigenvalues --    2.40415   2.44160   2.45915   2.47334   2.50179
  Beta virt. eigenvalues --    2.52209   2.55009   2.58663   2.58918   2.60861
  Beta virt. eigenvalues --    2.67665   2.69235   2.69715   2.72805   2.74476
  Beta virt. eigenvalues --    2.80551   2.81524   2.82342   2.84575   2.92238
  Beta virt. eigenvalues --    2.92573   2.96799   2.97990   3.05095   3.05893
  Beta virt. eigenvalues --    3.06032   3.10655   3.14829   3.22051   3.28951
  Beta virt. eigenvalues --    3.31954   3.35594   3.38526   3.38984   3.44682
  Beta virt. eigenvalues --    3.47724   3.48024   3.55801   3.55892   3.60755
  Beta virt. eigenvalues --    3.62937   3.64250   3.72580   3.76528   3.81044
  Beta virt. eigenvalues --    3.87238   3.91401   3.99318   4.07039   4.09509
  Beta virt. eigenvalues --    4.18353   4.19297   4.29506   4.29836   4.38836
  Beta virt. eigenvalues --    4.48087   4.62849   4.67699   4.88944   5.02216
  Beta virt. eigenvalues --    5.07739   5.18308   5.28587   5.33107   5.40075
  Beta virt. eigenvalues --    5.46999   5.47694   5.56020   5.58663   5.63007
  Beta virt. eigenvalues --    5.73096   5.76060   5.80447   5.82588   5.88985
  Beta virt. eigenvalues --    5.90765   5.95472   5.99555   6.03061   6.10850
  Beta virt. eigenvalues --    6.11828   6.16845   6.25885   6.27127   6.35159
  Beta virt. eigenvalues --    6.37009   6.39356   6.43125   6.54658   6.55747
  Beta virt. eigenvalues --    6.56271   6.60135   6.71031   6.73272   6.78995
  Beta virt. eigenvalues --    6.84666   6.89605   6.91585   6.94418   7.06760
  Beta virt. eigenvalues --    7.09892   7.10820   7.17337   7.23890   7.25324
  Beta virt. eigenvalues --    7.31347   7.34427   7.37958   7.41888   7.45116
  Beta virt. eigenvalues --    7.46536   7.52586   7.52709   7.53191   7.63343
  Beta virt. eigenvalues --    7.63565   7.71232   7.71640   7.79032   7.82032
  Beta virt. eigenvalues --    7.83810   7.90187   7.91698   7.94175   7.97347
  Beta virt. eigenvalues --    8.03129   8.03188   8.07865   8.09032   8.10392
  Beta virt. eigenvalues --    8.11047   8.14873   8.20581   8.22657   8.24650
  Beta virt. eigenvalues --    8.28665   8.30337   8.35527   8.39087   8.45238
  Beta virt. eigenvalues --    8.48794   8.52974   8.60764   8.61915   8.63478
  Beta virt. eigenvalues --    8.66880   8.69515   8.70114   8.83296   8.88270
  Beta virt. eigenvalues --    8.91663   8.96955   9.00024   9.00177   9.11618
  Beta virt. eigenvalues --    9.14234   9.18081   9.25503   9.26184   9.32708
  Beta virt. eigenvalues --    9.33181   9.40120   9.49876   9.49987   9.60104
  Beta virt. eigenvalues --    9.69060   9.75795   9.80488   9.84477   9.84639
  Beta virt. eigenvalues --    9.95589   9.96232  10.17343  10.29849  10.44691
  Beta virt. eigenvalues --   10.66805  10.75866  10.92683  10.97791  11.20324
  Beta virt. eigenvalues --   11.29006  11.45856  11.61650  11.62157  11.64466
  Beta virt. eigenvalues --   11.82169  11.94102  12.12202  12.30603  13.07874
  Beta virt. eigenvalues --   13.19309  14.80647  14.80979  28.72337  37.68207
  Beta virt. eigenvalues --   38.11921 147.73782 196.96398 197.42052
          Condensed to atoms (all electrons):
               1          2          3          4          5          6
     1  C    4.968819   0.392528  -0.030426  -0.021603   0.422170   0.453463
     2  N    0.392528   6.225235   0.074424   0.091798  -0.056776  -0.025320
     3  N   -0.030426   0.074424   7.379574  -0.009005   0.011078  -0.005142
     4  H   -0.021603   0.091798  -0.009005   0.879495  -0.004060   0.001898
     5  H    0.422170  -0.056776   0.011078  -0.004060   0.518032  -0.015166
     6  H    0.453463  -0.025320  -0.005142   0.001898  -0.015166   0.466347
     7  H    0.015299   0.211455   0.036183  -0.066237   0.013668  -0.006011
               7
     1  C    0.015299
     2  N    0.211455
     3  N    0.036183
     4  H   -0.066237
     5  H    0.013668
     6  H   -0.006011
     7  H    0.594061
          Atomic-Atomic Spin Densities.
               1          2          3          4          5          6
     1  C    0.000000  -0.000000   0.000000   0.000000  -0.000000   0.000000
     2  N   -0.000000  -0.000000   0.000000  -0.000000  -0.000000   0.000000
     3  N    0.000000   0.000000   0.000000  -0.000000   0.000000  -0.000000
     4  H    0.000000  -0.000000  -0.000000   0.000000  -0.000000   0.000000
     5  H   -0.000000  -0.000000   0.000000  -0.000000  -0.000000  -0.000000
     6  H    0.000000   0.000000  -0.000000   0.000000  -0.000000   0.000000
     7  H   -0.000000   0.000000   0.000000   0.000000   0.000000  -0.000000
               7
     1  C   -0.000000
     2  N    0.000000
     3  N    0.000000
     4  H    0.000000
     5  H    0.000000
     6  H   -0.000000
     7  H   -0.000000
 Mulliken charges and spin densities:
               1          2
     1  C   -0.200251  -0.000000
     2  N    0.086656  -0.000000
     3  N   -0.456686   0.000000
     4  H    0.127715   0.000000
     5  H    0.111055  -0.000000
     6  H    0.129930   0.000000
     7  H    0.201582   0.000000
 Sum of Mulliken charges =  -0.00000   0.00000
 Mulliken charges and spin densities with hydrogens summed into heavy atoms:
               1          2
     1  C    0.040734  -0.000000
     2  N    0.288238  -0.000000
     3  N   -0.328971   0.000000
 Electronic spatial extent (au):  <R**2>=            599.1955
 Charge=             -0.0000 electrons
 Dipole moment (field-independent basis, Debye):
    X=              0.2349    Y=              0.7868    Z=              2.9280  Tot=              3.0409
 Quadrupole moment (field-independent basis, Debye-Ang):
   XX=            -14.7243   YY=            -21.5716   ZZ=            -22.8926
   XY=              2.3028   XZ=              8.4679   YZ=             -0.4444
 Traceless Quadrupole moment (field-independent basis, Debye-Ang):
   XX=              5.0052   YY=             -1.8421   ZZ=             -3.1631
   XY=              2.3028   XZ=              8.4679   YZ=             -0.4444
 Octapole moment (field-independent basis, Debye-Ang**2):
  XXX=            -94.2052  YYY=             10.9552  ZZZ=             41.6537  XYY=            -46.2947
  XXY=              9.0547  XXZ=             31.8687  XZZ=            -53.4473  YZZ=              5.4429
  YYZ=             12.1057  XYZ=             -2.2775
 Hexadecapole moment (field-independent basis, Debye-Ang**3):
 XXXX=           -503.0080 YYYY=            -31.3989 ZZZZ=           -118.4807 XXXY=             38.9686
 XXXZ=            135.5438 YYYX=             30.4746 YYYZ=            -12.6046 ZZZX=            119.4323
 ZZZY=            -14.2340 XXYY=           -128.6204 XXZZ=           -158.0517 YYZZ=            -24.4682
 XXYZ=             -9.3584 YYXZ=             35.3027 ZZXY=             14.9328
 N-N= 7.338254906404D+01 E-N=-4.962746285273D+02  KE= 1.492690277823D+02
                          Isotropic Fermi Contact Couplings
        Atom                 a.u.       MegaHertz       Gauss      10(-4) cm-1
     1  C(13)             -0.00000      -0.00000      -0.00000      -0.00000
     2  N(14)              0.00000       0.00000       0.00000       0.00000
     3  N(14)              0.00000       0.00000       0.00000       0.00000
     4  H(1)              -0.00000      -0.00000      -0.00000      -0.00000
     5  H(1)               0.00000       0.00000       0.00000       0.00000
     6  H(1)               0.00000       0.00000       0.00000       0.00000
     7  H(1)               0.00000       0.00000       0.00000       0.00000
 --------------------------------------------------------
       Center         ----  Spin Dipole Couplings  ----
                      3XX-RR        3YY-RR        3ZZ-RR
 --------------------------------------------------------
     1   Atom        0.000000      0.000000     -0.000000
     2   Atom        0.000000      0.000000     -0.000000
     3   Atom        0.000000     -0.000000      0.000000
     4   Atom        0.000000     -0.000000     -0.000000
     5   Atom       -0.000000     -0.000000      0.000000
     6   Atom       -0.000000     -0.000000      0.000000
     7   Atom        0.000000     -0.000000     -0.000000
 --------------------------------------------------------
                        XY            XZ            YZ
 --------------------------------------------------------
     1   Atom       -0.000000     -0.000000     -0.000000
     2   Atom        0.000000     -0.000000     -0.000000
     3   Atom       -0.000000      0.000000      0.000000
     4   Atom       -0.000000      0.000000     -0.000000
     5   Atom        0.000000      0.000000      0.000000
     6   Atom       -0.000000     -0.000000      0.000000
     7   Atom        0.000000      0.000000      0.000000
 --------------------------------------------------------


 ---------------------------------------------------------------------------------
              Anisotropic Spin Dipole Couplings in Principal Axis System
 ---------------------------------------------------------------------------------

       Atom             a.u.   MegaHertz   Gauss  10(-4) cm-1        Axes

              Baa    -0.0000    -0.000    -0.000    -0.000  0.1436  0.2116  0.9667
     1 C(13)  Bbb     0.0000     0.000     0.000     0.000 -0.0247  0.9773 -0.2103
              Bcc     0.0000     0.000     0.000     0.000  0.9893 -0.0063 -0.1456
 
              Baa    -0.0000    -0.000    -0.000    -0.000  0.0073  0.2441  0.9697
     2 N(14)  Bbb     0.0000     0.000     0.000     0.000  0.9849 -0.1695  0.0352
              Bcc     0.0000     0.000     0.000     0.000  0.1729  0.9548 -0.2416
 
              Baa    -0.0000    -0.000    -0.000    -0.000  0.1461  0.8402 -0.5223
     3 N(14)  Bbb     0.0000     0.000     0.000     0.000  0.9893 -0.1253  0.0752
              Bcc     0.0000     0.000     0.000     0.000  0.0023  0.5276  0.8495
 
              Baa    -0.0000    -0.000    -0.000    -0.000 -0.4795 -0.0378  0.8768
     4 H(1)   Bbb    -0.0000    -0.000    -0.000    -0.000  0.2808  0.9399  0.1941
              Bcc     0.0000     0.000     0.000     0.000  0.8314 -0.3392  0.4400
 
              Baa    -0.0000    -0.000    -0.000    -0.000  0.9163 -0.3999  0.0224
     5 H(1)   Bbb    -0.0000    -0.000    -0.000    -0.000  0.3949  0.8928 -0.2167
              Bcc     0.0000     0.000     0.000     0.000  0.0667  0.2074  0.9760
 
              Baa    -0.0000    -0.000    -0.000    -0.000  0.9595 -0.0491  0.2775
     6 H(1)   Bbb    -0.0000    -0.000    -0.000    -0.000  0.1128  0.9693 -0.2184
              Bcc     0.0000     0.000     0.000     0.000 -0.2583  0.2408  0.9356
 
              Baa    -0.0000    -0.000    -0.000    -0.000 -0.5170  0.2304  0.8244
     7 H(1)   Bbb    -0.0000    -0.000    -0.000    -0.000 -0.1309  0.9305 -0.3422
              Bcc     0.0000     0.000     0.000     0.000  0.8459  0.2849  0.4509
 

 ---------------------------------------------------------------------------------

 No NMR shielding tensors so no spin-rotation constants.
 Leave Link  601 at Tue Jan  3 09:23:36 2023, MaxMem=   536870912 cpu:               0.9 elap:               0.5
 (Enter /opt/software/gaussian/g16.c01/l9999.exe)

 Test job not archived.
 1\1\GINC-GRA704\Stability\UB3LYP\Gen\C1H4N2\BHAVUK\03-Jan-2023\0\\#p u
 b3lyp/gen stable=opt scf=(maxcycle=900,verytightlineq,xqc) integral=gr
 id=ultrafine symmetry=None density=current iop(99/18=-1) output=wfn\\0
 001_q000_m01_k00_opt_uwb97xd_def2svpd/0001_q000_m01_k00_force_ub3lyp_d
 ef2qzvpd stable-force\\0,1\C,0,1.0726168695,-0.0701991232,-0.153012633
 \N,0,2.3779437514,-0.0897456927,-0.2543854931\N,0,3.0833554789,-0.3684
 697824,-1.3087287982\H,0,4.0640493508,-0.2926697434,-1.0476368317\H,0,
 0.6399628731,0.1851542916,0.8085260928\H,0,0.4830438364,-0.3099796861,
 -1.0337247999\H,0,2.8674978397,0.1458797364,0.6131324666\\Version=ES64
 L-G16RevC.01\HF=-150.0066118\S2=0.\S2-1=0.\S2A=0.\RMSD=1.444e-09\Dipol
 e=0.0924264,0.3095496,1.1519491\Quadrupole=3.7212555,-1.3695701,-2.351
 6854,1.7121018,6.295648,-0.330379\PG=Unknown\\@

 Writing a WFN file to "0001_q000_m01_k00_force_ub3lyp_def2qzvpd.wfn"


 YOU CANNOT THROW TO THE GROUND THE LETTERS OF
 THE GREEK ALPHABET AND PICK UP THE ILIAD.
        - RUFUS CHOATE, 1799-1859
 Job cpu time:       0 days  0 hours 40 minutes 51.4 seconds.
 Elapsed time:       0 days  0 hours 20 minutes 26.1 seconds.
 File lengths (MBytes):  RWF=    202 Int=      0 D2E=      0 Chk=     13 Scr=      1
 Normal termination of Gaussian 16 at Tue Jan  3 09:23:36 2023.
 Initial command:
 /opt/software/gaussian/g16.c01/l1.exe "/localscratch/bhavuk.2151331.0/Gau-16404.inp" -scrdir="/localscratch/bhavuk.2151331.0/"
 Entering Link 1 = /opt/software/gaussian/g16.c01/l1.exe PID=     13577.
  
 Copyright (c) 1988-2019, Gaussian, Inc.  All Rights Reserved.
  
 This is part of the Gaussian(R) 16 program.  It is based on
 the Gaussian(R) 09 system (copyright 2009, Gaussian, Inc.),
 the Gaussian(R) 03 system (copyright 2003, Gaussian, Inc.),
 the Gaussian(R) 98 system (copyright 1998, Gaussian, Inc.),
 the Gaussian(R) 94 system (copyright 1995, Gaussian, Inc.),
 the Gaussian 92(TM) system (copyright 1992, Gaussian, Inc.),
 the Gaussian 90(TM) system (copyright 1990, Gaussian, Inc.),
 the Gaussian 88(TM) system (copyright 1988, Gaussian, Inc.),
 the Gaussian 86(TM) system (copyright 1986, Carnegie Mellon
 University), and the Gaussian 82(TM) system (copyright 1983,
 Carnegie Mellon University). Gaussian is a federally registered
 trademark of Gaussian, Inc.
  
 This software contains proprietary and confidential information,
 including trade secrets, belonging to Gaussian, Inc.
  
 This software is provided under written license and may be
 used, copied, transmitted, or stored only in accord with that
 written license.
  
 The following legend is applicable only to US Government
 contracts under FAR:
  
                    RESTRICTED RIGHTS LEGEND
  
 Use, reproduction and disclosure by the US Government is
 subject to restrictions as set forth in subparagraphs (a)
 and (c) of the Commercial Computer Software - Restricted
 Rights clause in FAR 52.227-19.
  
 Gaussian, Inc.
 340 Quinnipiac St., Bldg. 40, Wallingford CT 06492
  
  
 ---------------------------------------------------------------
 Warning -- This program may not be used in any manner that
 competes with the business of Gaussian, Inc. or will provide
 assistance to any competitor of Gaussian, Inc.  The licensee
 of this program is prohibited from giving any competitor of
 Gaussian, Inc. access to this program.  By using this program,
 the user acknowledges that Gaussian, Inc. is engaged in the
 business of creating and licensing software in the field of
 computational chemistry and represents and warrants to the
 licensee that it is not a competitor of Gaussian, Inc. and that
 it will not use this program in any manner prohibited above.
 ---------------------------------------------------------------
  

 Cite this work as:
 Gaussian 16, Revision C.01,
 M. J. Frisch, G. W. Trucks, H. B. Schlegel, G. E. Scuseria, 
 M. A. Robb, J. R. Cheeseman, G. Scalmani, V. Barone, 
 G. A. Petersson, H. Nakatsuji, X. Li, M. Caricato, A. V. Marenich, 
 J. Bloino, B. G. Janesko, R. Gomperts, B. Mennucci, H. P. Hratchian, 
 J. V. Ortiz, A. F. Izmaylov, J. L. Sonnenberg, D. Williams-Young, 
 F. Ding, F. Lipparini, F. Egidi, J. Goings, B. Peng, A. Petrone, 
 T. Henderson, D. Ranasinghe, V. G. Zakrzewski, J. Gao, N. Rega, 
 G. Zheng, W. Liang, M. Hada, M. Ehara, K. Toyota, R. Fukuda, 
 J. Hasegawa, M. Ishida, T. Nakajima, Y. Honda, O. Kitao, H. Nakai, 
 T. Vreven, K. Throssell, J. A. Montgomery, Jr., J. E. Peralta, 
 F. Ogliaro, M. J. Bearpark, J. J. Heyd, E. N. Brothers, K. N. Kudin, 
 V. N. Staroverov, T. A. Keith, R. Kobayashi, J. Normand, 
 K. Raghavachari, A. P. Rendell, J. C. Burant, S. S. Iyengar, 
 J. Tomasi, M. Cossi, J. M. Millam, M. Klene, C. Adamo, R. Cammi, 
 J. W. Ochterski, R. L. Martin, K. Morokuma, O. Farkas, 
 J. B. Foresman, and D. J. Fox, Gaussian, Inc., Wallingford CT, 2019.
 
 ******************************************
 Gaussian 16:  ES64L-G16RevC.01  3-Jul-2019
                 3-Jan-2023 
 ******************************************
 %chk=0001_q000_m01_k00_force_ub3lyp_def2qzvpd.chk
 %nprocshared=2
 Will use up to    2 processors via shared memory.
 %mem=4GB
 ----------------------------------------------------------------------
 #p ub3lyp/chkbasis force guess=read geom=check scf=(maxcycle=900,veryt
 ightlineq,xqc) integral=grid=ultrafine symmetry=None density=current p
 op=(cm5,hlygat,mbs,npa) output=wfx
 ----------------------------------------------------------------------
 1/10=7,29=2,30=1,38=1/1,3;
 2/12=2,15=3,40=1/2;
 3/5=7,6=2,11=2,14=-4,25=1,30=1,67=1,71=1,74=-5,75=-5,116=2/1,2,3;
 4/5=1/1;
 5/5=2,7=900,8=3,13=1,17=3,38=6/2,8;
 6/7=2,8=2,9=2,10=2,15=8,20=15,22=-1,27=100,28=1,40=-1,79=1/1,2,7;
 7/29=1,30=1/1,2,3,16;
 1/10=7,30=1/3;
 99/6=200/99;
 Leave Link    1 at Tue Jan  3 09:23:36 2023, MaxMem=   536870912 cpu:               0.1 elap:               0.1
 (Enter /opt/software/gaussian/g16.c01/l101.exe)
 ----------------------------------------------------------------------
 0001_q000_m01_k00_opt_uwb97xd_def2svpd/0001_q000_m01_k00_force_ub3lyp_
 def2qzvpd stable-force
 ----------------------------------------------------------------------
 Structure from the checkpoint file:  "0001_q000_m01_k00_force_ub3lyp_def2qzvpd.chk"
 Charge =  0 Multiplicity = 1
 Z-Matrix found in chk file.
 C,0,1.0726168695,-0.0701991232,-0.153012633
 N,0,2.3779437514,-0.0897456927,-0.2543854931
 N,0,3.0833554789,-0.3684697824,-1.3087287982
 H,0,4.0640493508,-0.2926697434,-1.0476368317
 H,0,0.6399628731,0.1851542916,0.8085260928
 H,0,0.4830438364,-0.3099796861,-1.0337247999
 H,0,2.8674978397,0.1458797364,0.6131324666
 Recover connectivity data from disk.
 ITRead=  0  0  0  0  0  0  0
 MicOpt= -1 -1 -1 -1 -1 -1 -1
 NAtoms=      7 NQM=        7 NQMF=       0 NMMI=      0 NMMIF=      0
                NMic=       0 NMicF=      0.
                    Isotopes and Nuclear Properties:
 (Nuclear quadrupole moments (NQMom) in fm**2, nuclear magnetic moments (NMagM)
  in nuclear magnetons)

  Atom         1           2           3           4           5           6           7
 IAtWgt=          12          14          14           1           1           1           1
 AtmWgt=  12.0000000  14.0030740  14.0030740   1.0078250   1.0078250   1.0078250   1.0078250
 NucSpn=           0           2           2           1           1           1           1
 AtZEff=   3.6000000   4.5500000   4.5500000   1.0000000   1.0000000   1.0000000   1.0000000
 NQMom=    0.0000000   2.0440000   2.0440000   0.0000000   0.0000000   0.0000000   0.0000000
 NMagM=    0.0000000   0.4037610   0.4037610   2.7928460   2.7928460   2.7928460   2.7928460
 AtZNuc=   6.0000000   7.0000000   7.0000000   1.0000000   1.0000000   1.0000000   1.0000000
 Leave Link  101 at Tue Jan  3 09:23:36 2023, MaxMem=   536870912 cpu:               0.2 elap:               0.1
 (Enter /opt/software/gaussian/g16.c01/l103.exe)

 GradGradGradGradGradGradGradGradGradGradGradGradGradGradGradGradGradGrad
 Berny optimization.
 Initialization pass.
 Trust Radius=3.00D-01 FncErr=1.00D-07 GrdErr=1.00D-07 EigMax=2.50D+02 EigMin=1.00D-04
 Number of steps in this run=      2 maximum allowed number of steps=      2.
 GradGradGradGradGradGradGradGradGradGradGradGradGradGradGradGradGradGrad

 Leave Link  103 at Tue Jan  3 09:23:36 2023, MaxMem=   536870912 cpu:               0.1 elap:               0.0
 (Enter /opt/software/gaussian/g16.c01/l202.exe)
                          Input orientation:                          
 ---------------------------------------------------------------------
 Center     Atomic      Atomic             Coordinates (Angstroms)
 Number     Number       Type             X           Y           Z
 ---------------------------------------------------------------------
      1          6           0        1.072617   -0.070199   -0.153013
      2          7           0        2.377944   -0.089746   -0.254385
      3          7           0        3.083355   -0.368470   -1.308729
      4          1           0        4.064049   -0.292670   -1.047637
      5          1           0        0.639963    0.185154    0.808526
      6          1           0        0.483044   -0.309980   -1.033725
      7          1           0        2.867498    0.145880    0.613132
[...]
   211    H    4  dyz    Ryd( 4d)     0.00000       7.65208
   212    H    4  dx2y2  Ryd( 3d)     0.00002       3.99254
   213    H    4  dx2y2  Ryd( 4d)     0.00001       8.64786
   214    H    4  dz2    Ryd( 3d)     0.00002       3.19725
   215    H    4  dz2    Ryd( 4d)     0.00000       8.04406
   216    H    4  f(0)   Ryd( 4f)     0.00000       6.33616
   217    H    4  f(C1)  Ryd( 4f)     0.00001       6.79257
   218    H    4  f(S1)  Ryd( 4f)     0.00000       6.05654
   219    H    4  f(C2)  Ryd( 4f)     0.00001       6.54438
   220    H    4  f(S2)  Ryd( 4f)     0.00000       6.59228
   221    H    4  f(C3)  Ryd( 4f)     0.00002       6.75263
   222    H    4  f(S3)  Ryd( 4f)     0.00000       6.78546
 
   223    H    5  S      Val( 1S)     0.40100       0.00055
   224    H    5  S      Ryd( 3S)     0.00013       1.68111
   225    H    5  S      Ryd( 2S)     0.00002       1.22489
   226    H    5  S      Ryd( 4S)     0.00000       5.00972
   227    H    5  px     Ryd( 2p)     0.00003       1.23472
   228    H    5  px     Ryd( 4p)     0.00003       3.27452
   229    H    5  px     Ryd( 3p)     0.00004       2.65778
   230    H    5  px     Ryd( 5p)     0.00000       7.91401
   231    H    5  py     Ryd( 2p)     0.00073       0.96713
   232    H    5  py     Ryd( 4p)     0.00001       2.94204
   233    H    5  py     Ryd( 3p)     0.00000       2.02586
   234    H    5  py     Ryd( 5p)     0.00000       7.52776
   235    H    5  pz     Ryd( 2p)     0.00012       1.10658
   236    H    5  pz     Ryd( 4p)     0.00013       4.11033
   237    H    5  pz     Ryd( 3p)     0.00001       3.47127
   238    H    5  pz     Ryd( 5p)     0.00000       8.19770
   239    H    5  dxy    Ryd( 3d)     0.00000       3.02614
   240    H    5  dxy    Ryd( 4d)     0.00000       7.79548
   241    H    5  dxz    Ryd( 3d)     0.00003       3.86514
   242    H    5  dxz    Ryd( 4d)     0.00000       8.41030
   243    H    5  dyz    Ryd( 3d)     0.00015       3.47566
   244    H    5  dyz    Ryd( 4d)     0.00000       8.17995
   245    H    5  dx2y2  Ryd( 3d)     0.00002       3.18764
   246    H    5  dx2y2  Ryd( 4d)     0.00000       7.84094
   247    H    5  dz2    Ryd( 3d)     0.00005       3.93063
   248    H    5  dz2    Ryd( 4d)     0.00000       8.48319
   249    H    5  f(0)   Ryd( 4f)     0.00001       6.79548
   250    H    5  f(C1)  Ryd( 4f)     0.00001       6.76372
   251    H    5  f(S1)  Ryd( 4f)     0.00001       6.68502
   252    H    5  f(C2)  Ryd( 4f)     0.00001       6.54091
   253    H    5  f(S2)  Ryd( 4f)     0.00000       6.51428
   254    H    5  f(C3)  Ryd( 4f)     0.00000       6.15413
   255    H    5  f(S3)  Ryd( 4f)     0.00000       6.13538
 
   256    H    6  S      Val( 1S)     0.39512       0.01536
   257    H    6  S      Ryd( 2S)     0.00050       1.23980
   258    H    6  S      Ryd( 3S)     0.00004       1.40690
   259    H    6  S      Ryd( 4S)     0.00001       5.35464
   260    H    6  px     Ryd( 2p)     0.00003       1.47132
   261    H    6  px     Ryd( 4p)     0.00006       3.41670
   262    H    6  px     Ryd( 3p)     0.00003       2.70567
   263    H    6  px     Ryd( 5p)     0.00000       8.00169
   264    H    6  py     Ryd( 2p)     0.00057       1.08522
   265    H    6  py     Ryd( 4p)     0.00001       2.87359
   266    H    6  py     Ryd( 3p)     0.00000       1.97193
   267    H    6  py     Ryd( 5p)     0.00000       7.53508
   268    H    6  pz     Ryd( 2p)     0.00016       1.31867
   269    H    6  pz     Ryd( 4p)     0.00011       3.86189
   270    H    6  pz     Ryd( 3p)     0.00001       3.22742
   271    H    6  pz     Ryd( 5p)     0.00000       8.15732
   272    H    6  dxy    Ryd( 3d)     0.00001       3.15422
   273    H    6  dxy    Ryd( 4d)     0.00000       7.85523
   274    H    6  dxz    Ryd( 3d)     0.00002       3.99286
   275    H    6  dxz    Ryd( 4d)     0.00000       8.37774
   276    H    6  dyz    Ryd( 3d)     0.00010       3.40155
   277    H    6  dyz    Ryd( 4d)     0.00000       8.07960
   278    H    6  dx2y2  Ryd( 3d)     0.00002       3.29208
   279    H    6  dx2y2  Ryd( 4d)     0.00000       7.92789
   280    H    6  dz2    Ryd( 3d)     0.00004       3.75037
   281    H    6  dz2    Ryd( 4d)     0.00000       8.39566
   282    H    6  f(0)   Ryd( 4f)     0.00001       6.79070
   283    H    6  f(C1)  Ryd( 4f)     0.00001       6.71528
   284    H    6  f(S1)  Ryd( 4f)     0.00001       6.62358
   285    H    6  f(C2)  Ryd( 4f)     0.00001       6.49750
   286    H    6  f(S2)  Ryd( 4f)     0.00000       6.47797
   287    H    6  f(C3)  Ryd( 4f)     0.00000       6.28713
   288    H    6  f(S3)  Ryd( 4f)     0.00000       6.26230
 
   289    H    7  S      Val( 1S)     0.30822       0.01576
   290    H    7  S      Ryd( 3S)     0.00034       2.05206
   291    H    7  S      Ryd( 2S)     0.00001       1.37079
   292    H    7  S      Ryd( 4S)     0.00001       4.31502
   293    H    7  px     Ryd( 2p)     0.00042       0.64164
   294    H    7  px     Ryd( 3p)     0.00010       2.67030
   295    H    7  px     Ryd( 4p)     0.00004       3.60434
   296    H    7  px     Ryd( 5p)     0.00000       7.73129
   297    H    7  py     Ryd( 2p)     0.00042       0.54253
   298    H    7  py     Ryd( 3p)     0.00007       2.30427
   299    H    7  py     Ryd( 4p)     0.00003       2.74876
   300    H    7  py     Ryd( 5p)     0.00000       7.05744
   301    H    7  pz     Ryd( 2p)     0.00085       0.57177
   302    H    7  pz     Ryd( 3p)     0.00021       3.18137
   303    H    7  pz     Ryd( 4p)     0.00001       5.08995
   304    H    7  pz     Ryd( 5p)     0.00000       7.97745
   305    H    7  dxy    Ryd( 3d)     0.00002       3.05988
   306    H    7  dxy    Ryd( 4d)     0.00000       8.03880
   307    H    7  dxz    Ryd( 3d)     0.00001       3.99657
   308    H    7  dxz    Ryd( 4d)     0.00001       8.88165
   309    H    7  dyz    Ryd( 3d)     0.00000       3.67398
   310    H    7  dyz    Ryd( 4d)     0.00000       8.49389
   311    H    7  dx2y2  Ryd( 3d)     0.00000       3.32562
   312    H    7  dx2y2  Ryd( 4d)     0.00000       8.11581
   313    H    7  dz2    Ryd( 3d)     0.00001       4.26411
   314    H    7  dz2    Ryd( 4d)     0.00001       8.92703
   315    H    7  f(0)   Ryd( 4f)     0.00001       6.95469
   316    H    7  f(C1)  Ryd( 4f)     0.00002       6.92907
   317    H    7  f(S1)  Ryd( 4f)     0.00001       6.74078
   318    H    7  f(C2)  Ryd( 4f)     0.00001       6.57317
   319    H    7  f(S2)  Ryd( 4f)     0.00001       6.54960
   320    H    7  f(C3)  Ryd( 4f)     0.00000       6.21281
   321    H    7  f(S3)  Ryd( 4f)     0.00000       6.15524

 WARNING:  Population inversion found on atom  C    1
           Population inversion found on atom  N    3
           Population inversion found on atom  H    4
           Population inversion found on atom  H    5
           Population inversion found on atom  H    6
           Population inversion found on atom  H    7


 Summary of Natural Population Analysis:                  
                                                          
                                       Natural Population 
                Natural  -----------------------------------------------
    Atom  No    Charge         Core      Valence    Rydberg      Total
 -----------------------------------------------------------------------
      C    1   -0.14139      0.99974     2.12724    0.01441     3.14139
      N    2   -0.11425      0.99977     2.59649    0.01800     3.61425
      N    3   -0.29194      0.99982     2.77390    0.01822     3.79194
      H    4    0.15790      0.00000     0.33949    0.00261     0.34210
      H    5    0.09743      0.00000     0.40100    0.00157     0.40257
      H    6    0.10313      0.00000     0.39512    0.00176     0.39687
      H    7    0.18913      0.00000     0.30822    0.00265     0.31087
 =======================================================================
   * Total *    0.00000      2.99932     8.94145    0.05922    12.00000

                                 Natural Population      
 --------------------------------------------------------
   Core                       2.99932 ( 99.9775% of   3)
   Valence                    8.94145 ( 99.3495% of   9)
   Natural Minimal Basis     11.94078 ( 99.5065% of  12)
   Natural Rydberg Basis      0.05922 (  0.4935% of  12)
 --------------------------------------------------------

    Atom  No          Natural Electron Configuration
 ----------------------------------------------------------------------------
      C    1      [core]2S( 0.52)2p( 1.61)3p( 0.01)
      N    2      [core]2S( 0.61)2p( 1.99)3d( 0.01)
      N    3      [core]2S( 0.77)2p( 2.01)3p( 0.01)4d( 0.01)
      H    4            1S( 0.34)
      H    5            1S( 0.40)
      H    6            1S( 0.40)
      H    7            1S( 0.31)


 NBO analysis skipped by request.
 Leave Link  607 at Tue Jan  3 09:24:12 2023, MaxMem=   536870912 cpu:               3.9 elap:               2.0
 (Enter /opt/software/gaussian/g16.c01/l701.exe)
 ... and contract with generalized density number  0.
 Compute integral first derivatives.
 Leave Link  701 at Tue Jan  3 09:24:13 2023, MaxMem=   536870912 cpu:               0.5 elap:               0.3
 (Enter /opt/software/gaussian/g16.c01/l702.exe)
 L702 exits ... SP integral derivatives will be done elsewhere.
 Leave Link  702 at Tue Jan  3 09:24:13 2023, MaxMem=   536870912 cpu:               0.0 elap:               0.0
 (Enter /opt/software/gaussian/g16.c01/l703.exe)
 Integral derivatives from FoFJK, PRISM(SPDF).
 Compute integral first derivatives, UseDBF=F ICtDFT=           0.
 Calling FoFJK, ICntrl=      2127 FMM=F ISym2X=0 I1Cent= 0 IOpClX= 1 NMat=1 NMatS=1 NMatT=0.
 FoFJK:  IHMeth= 1 ICntrl=    2127 DoSepK=F KAlg= 0 I1Cent=           0 FoldK=F
 IRaf=         0 NMat=       1 IRICut=       1 DoRegI=T DoRafI=F ISym2E= 0 IDoP0=0 IntGTp=1.
 FoFCou: FMM=F IPFlag=           0 FMFlag=      100000 FMFlg1=         800
         NFxFlg=           0 DoJE=F BraDBF=F KetDBF=F FulRan=T
         wScrn=  0.000000 ICntrl=      2127 IOpCl=  1 I1Cent=           0 NGrid=           0
         NMat0=    1 NMatS0=      1 NMatT0=    0 NMatD0=    1 NMtDS0=    0 NMtDT0=    0
 Symmetry not used in FoFCou.
 Leave Link  703 at Tue Jan  3 09:26:23 2023, MaxMem=   536870912 cpu:             260.5 elap:             130.3
 (Enter /opt/software/gaussian/g16.c01/l716.exe)
 Dipole        = 9.24266572D-02 3.09549570D-01 1.15194905D+00
 -------------------------------------------------------------------
 Center     Atomic                   Forces (Hartrees/Bohr)
 Number     Number              X              Y              Z
 -------------------------------------------------------------------
      1        6          -0.007246653    0.000207929    0.000946086
      2        7          -0.000639056    0.001885105    0.007033720
      3        7           0.005732545   -0.001263278   -0.004831888
      4        1          -0.002334948   -0.000050031   -0.000134825
      5        1           0.002708216   -0.001799970   -0.006776230
      6        1           0.003390580    0.001690173    0.006221700
      7        1          -0.001610685   -0.000669928   -0.002458562
 -------------------------------------------------------------------
 Cartesian Forces:  Max     0.007246653 RMS     0.003708464
 Z-matrix is all fixed cartesians, so copy forces.
 Force constants in Cartesian coordinates: 
                1             2             3             4             5 
      1  0.979681D+00
      2 -0.379301D-03  0.213865D+00
      3 -0.190645D-01  0.142607D+00  0.707620D+00
      4 -0.643805D+00  0.579070D-02  0.334547D-01  0.112567D+01
      5  0.632347D-02 -0.106234D+00 -0.223587D-01 -0.331382D-01  0.255501D+00
      6  0.354270D-01 -0.223469D-01 -0.184344D+00 -0.143773D+00  0.210309D+00
      7  0.271848D-02  0.887848D-02  0.332925D-01 -0.285848D+00  0.632473D-01
      8  0.405863D-03  0.125485D-01  0.280651D-02  0.556667D-01 -0.952295D-01
      9  0.171151D-02  0.262289D-02  0.215325D-01  0.212339D+00 -0.116800D+00
     10  0.000000D+00 -0.399533D-04  0.107186D-04 -0.760156D-02 -0.133499D-02
     11 -0.399096D-04  0.681015D-02 -0.182702D-02  0.704590D-02  0.450257D-02
     12  0.107071D-04 -0.182705D-02  0.490159D-03  0.265068D-01  0.370720D-02
     13 -0.151899D+00  0.232181D-01  0.887550D-01  0.227506D-02  0.740187D-02
     14  0.222321D-01 -0.700228D-01 -0.649731D-01  0.189247D-03  0.144423D-01
     15  0.850866D-01 -0.649992D-01 -0.296927D+00  0.973426D-03 -0.504849D-03
     16 -0.184388D+00 -0.297881D-01 -0.108208D+00 -0.207961D-02 -0.693893D-02
     17 -0.287722D-01 -0.722180D-01 -0.562752D-01  0.243717D-03  0.170004D-01
     18 -0.104411D+00 -0.562483D-01 -0.264302D+00  0.132579D-02  0.166311D-04
     19 -0.230818D-02 -0.767988D-02 -0.282404D-01 -0.188615D+00 -0.355605D-01
     20  0.229955D-03  0.152509D-01  0.203553D-04 -0.357981D-01 -0.899827D-01
     21  0.124008D-02  0.191593D-03  0.159310D-01 -0.130826D+00 -0.743693D-01
                6             7             8             9            10 
      6  0.986309D+00
      7  0.240594D+00  0.668956D+00
      8 -0.116633D+00 -0.324380D-01  0.846813D-01
      9 -0.504269D+00 -0.134507D+00  0.140554D+00  0.574006D+00
     10 -0.473293D-02 -0.410677D+00 -0.278084D-01 -0.950666D-01  0.418278D+00
     11  0.352379D-02 -0.361895D-01 -0.231711D-01 -0.184397D-01  0.291372D-01
     12  0.167545D-01 -0.126306D+00 -0.186231D-01 -0.846654D-01  0.998012D-01
     13  0.278675D-01  0.000000D+00 -0.447309D-04  0.120004D-04  0.000000D+00
     14 -0.347895D-03 -0.447767D-04  0.764067D-02 -0.204983D-02  0.000000D+00
     15  0.126317D-01  0.120092D-04 -0.204924D-02  0.549768D-03  0.000000D+00
     16 -0.254401D-01  0.000000D+00  0.448748D-04 -0.120390D-04  0.000000D+00
     17 -0.139769D-03  0.448434D-04 -0.765204D-02  0.205288D-02  0.000000D+00
     18  0.170683D-01 -0.120329D-04  0.205329D-02 -0.550853D-03  0.000000D+00
     19 -0.129942D+00  0.248506D-01  0.417370D-02  0.155231D-01  0.000000D+00
     20 -0.743652D-01 -0.349835D-02  0.211822D-01 -0.794026D-02  0.462088D-04
     21 -0.344150D+00 -0.130734D-01 -0.810855D-02 -0.660326D-02 -0.123974D-04
               11            12            13            14            15 
     11  0.197348D-01
     12  0.146298D-01  0.679877D-01
     13  0.000000D+00  0.000000D+00  0.120347D+00
     14  0.000000D+00  0.000000D+00 -0.258292D-01  0.469624D-01
     15  0.000000D+00  0.000000D+00 -0.983283D-01  0.699484D-01  0.291298D+00
     16  0.000000D+00  0.000000D+00  0.292766D-01  0.340314D-02  0.122695D-01
     17  0.000000D+00  0.000000D+00 -0.479540D-02  0.941143D-02 -0.465711D-02
     18  0.000000D+00  0.000000D+00 -0.182930D-01 -0.484049D-02 -0.694563D-02
     19  0.463037D-04 -0.124225D-04  0.000000D+00  0.494397D-04 -0.132598D-04
     20 -0.787642D-02  0.211311D-02  0.493749D-04 -0.843392D-02  0.226199D-02
     21  0.211317D-02 -0.566929D-03 -0.132473D-04  0.226283D-02 -0.606894D-03
               16            17            18            19            20 
     16  0.157191D+00
     17  0.333285D-01  0.450118D-01
     18  0.121377D+00  0.612854D-01  0.254122D+00
     19  0.000000D+00 -0.495133D-04  0.132860D-04  0.166072D+00
     20 -0.495337D-04  0.844647D-02 -0.226646D-02  0.390205D-01  0.614135D-01
     21  0.132899D-04 -0.226619D-02  0.608092D-03  0.142672D+00  0.801764D-01
               21 
     21  0.335388D+00
 Leave Link  716 at Tue Jan  3 09:26:23 2023, MaxMem=   536870912 cpu:               0.1 elap:               0.1
 (Enter /opt/software/gaussian/g16.c01/l103.exe)

 GradGradGradGradGradGradGradGradGradGradGradGradGradGradGradGradGradGrad
 Berny optimization.
 Search for a local minimum.
 Step number   1 out of a maximum of    2
 All quantities printed in internal units (Hartrees-Bohrs-Radians)
 Second derivative matrix not updated -- first step.
 ITU=  0
     Eigenvalues ---    0.02409   0.03062   0.03370   0.05977   0.08903
     Eigenvalues ---    0.11483   0.14278   0.19866   0.30111   0.35087
     Eigenvalues ---    0.61127   0.81664   1.00827   1.49337   1.92763
 Angle between quadratic step and forces=  46.75 degrees.
 Linear search not attempted -- first point.
 B after Tr=     0.000456   -0.000391   -0.001448
         Rot=    1.000000   -0.000000    0.000046   -0.000013 Ang=  -0.01 deg.
 Variable       Old X    -DE/DX   Delta X   Delta X   Delta X     New X
                                 (Linear)    (Quad)   (Total)
    X1        2.02695  -0.00725   0.00000  -0.00397  -0.00349   2.02347
    Y1       -0.13266   0.00021   0.00000   0.00046   0.00012  -0.13254
    Z1       -0.28915   0.00095   0.00000   0.00182   0.00056  -0.28859
    X2        4.49366  -0.00064   0.00000  -0.00239  -0.00188   4.49178
    Y2       -0.16959   0.00189   0.00000  -0.00032  -0.00060  -0.17019
    Z2       -0.48072   0.00703   0.00000  -0.00114  -0.00218  -0.48289
    X3        5.82670   0.00573   0.00000   0.00810   0.00880   5.83550
    Y3       -0.69631  -0.00126   0.00000  -0.00132  -0.00156  -0.69786
    Z3       -2.47314  -0.00483   0.00000  -0.00509  -0.00601  -2.47915
    X4        7.67994  -0.00233   0.00000  -0.00121  -0.00056   7.67938
    Y4       -0.55307  -0.00005   0.00000   0.00238   0.00218  -0.55088
    Z4       -1.97975  -0.00013   0.00000   0.00885   0.00811  -1.97164
    X5        1.20935   0.00271   0.00000   0.00692   0.00723   1.21658
    Y5        0.34989  -0.00180   0.00000  -0.00422  -0.00458   0.34531
    Z5        1.52789  -0.00678   0.00000  -0.01596  -0.01730   1.51059
    X6        0.91282   0.00339   0.00000  -0.00212  -0.00147   0.91135
    Y6       -0.58578   0.00169   0.00000   0.00652   0.00616  -0.57962
    Z6       -1.95346   0.00622   0.00000   0.02436   0.02299  -1.93046
    X7        5.41879  -0.00161   0.00000  -0.00896  -0.00862   5.41017
    Y7        0.27567  -0.00067   0.00000  -0.00147  -0.00172   0.27395
    Z7        1.15865  -0.00246   0.00000  -0.00523  -0.00618   1.15247
         Item               Value     Threshold  Converged?
 Maximum Force            0.007247     0.000450     NO 
 RMS     Force            0.003708     0.000300     NO 
 Maximum Displacement     0.022995     0.001800     NO 
 RMS     Displacement     0.007760     0.001200     NO 
 Predicted change in Energy=-2.079445D-04
 GradGradGradGradGradGradGradGradGradGradGradGradGradGradGradGradGradGrad

 Leave Link  103 at Tue Jan  3 09:26:24 2023, MaxMem=   536870912 cpu:               0.1 elap:               0.1
 (Enter /opt/software/gaussian/g16.c01/l9999.exe)
 Unable to Open any file for archive entry.
 1\1\GINC-GRA704\Force\UB3LYP\Gen\C1H4N2\BHAVUK\03-Jan-2023\0\\#p ub3ly
 p/chkbasis force guess=read geom=check scf=(maxcycle=900,verytightline
 q,xqc) integral=grid=ultrafine symmetry=None density=current pop=(cm5,
 hlygat,mbs,npa) output=wfx\\0001_q000_m01_k00_opt_uwb97xd_def2svpd/000
 1_q000_m01_k00_force_ub3lyp_def2qzvpd stable-force\\0,1\C,1.0726168695
 ,-0.0701991232,-0.153012633\N,2.3779437514,-0.0897456927,-0.2543854931
 \N,3.0833554789,-0.3684697824,-1.3087287982\H,4.0640493508,-0.29266974
 34,-1.0476368317\H,0.6399628731,0.1851542916,0.8085260928\H,0.48304383
 64,-0.3099796861,-1.0337247999\H,2.8674978397,0.1458797364,0.613132466
 6\\Version=ES64L-G16RevC.01\HF=-150.0066118\S2=0.\S2-1=0.\S2A=0.\RMSD=
 3.221e-10\RMSF=3.708e-03\Dipole=0.0924267,0.3095496,1.151949\Quadrupol
 e=3.7212567,-1.3695707,-2.351686,1.7121016,6.2956475,-0.330379\PG=Unkn
 own\\@
 The archive entry for this job was punched.

 Writing a WFNX file to "0001_q000_m01_k00_force_ub3lyp_def2qzvpd.wfx"


 Change starts when someone sees the next step.
                            -- William Drayton
 Job cpu time:       0 days  0 hours  5 minutes 33.6 seconds.
 Elapsed time:       0 days  0 hours  2 minutes 46.8 seconds.
 File lengths (MBytes):  RWF=    100 Int=      0 D2E=      0 Chk=     14 Scr=      1
 Normal termination of Gaussian 16 at Tue Jan  3 09:26:24 2023.
