 Entering Gaussian System, Link 0=g16
 Input=0001_q000_m01_k00_force_uhf_def2tzvp.com
 Output=0001_q000_m01_k00_force_uhf_def2tzvp.log
 Initial command:
 /opt/software/gaussian/g16.c01/l1.exe "/localscratch/bhavuk.2151342.0/Gau-16119.inp" -scrdir="/localscratch/bhavuk.2151342.0/"
 Entering Link 1 = /opt/software/gaussian/g16.c01/l1.exe PID=     16132.
  
 Copyright (c) 1988-2019, Gaussian, Inc.  All Rights Reserved.
  
 This is part of the Gaussian(R) 16 program.  It is based on
 the Gaussian(R) 09 system (copyright 2009, Gaussian, Inc.),
 the Gaussian(R) 03 system (copyright 2003, Gaussian, Inc.),
 the Gaussian(R) 98 system (copyright 1998, Gaussian, Inc.),
 the Gaussian(R) 94 system (copyright 1995, Gaussian, Inc.),
 the Gaussian 92(TM) system (copyright 1992, Gaussian, Inc.),
 the Gaussian 90(TM) system (copyright 1990, Gaussian, Inc.),
 the Gaussian 88(TM) system (copyright 1988, Gaussian, Inc.),
 the Gaussian 86(TM) system (copyright 1986, Carnegie Mellon
 University), and the Gaussian 82(TM) system (copyright 1983,
 Carnegie Mellon University). Gaussian is a federally registered
 trademark of Gaussian, Inc.
  
 This software contains proprietary and confidential information,
 including trade secrets, belonging to Gaussian, Inc.
  
 This software is provided under written license and may be
 used, copied, transmitted, or stored only in accord with that
 written license.
  
 The following legend is applicable only to US Government
 contracts under FAR:
  
                    RESTRICTED RIGHTS LEGEND
  
 Use, reproduction and disclosure by the US Government is
 subject to restrictions as set forth in subparagraphs (a)
 and (c) of the Commercial Computer Software - Restricted
 Rights clause in FAR 52.227-19.
  
 Gaussian, Inc.
 340 Quinnipiac St., Bldg. 40, Wallingford CT 06492
  
  
 ---------------------------------------------------------------
 Warning -- This program may not be used in any manner that
 competes with the business of Gaussian, Inc. or will provide
 assistance to any competitor of Gaussian, Inc.  The licensee
 of this program is prohibited from giving any competitor of
 Gaussian, Inc. access to this program.  By using this program,
 the user acknowledges that Gaussian, Inc. is engaged in the
 business of creating and licensing software in the field of
 computational chemistry and represents and warrants to the
 licensee that it is not a competitor of Gaussian, Inc. and that
 it will not use this program in any manner prohibited above.
 ---------------------------------------------------------------
  

 Cite this work as:
 Gaussian 16, Revision C.01,
 M. J. Frisch, G. W. Trucks, H. B. Schlegel, G. E. Scuseria, 
 M. A. Robb, J. R. Cheeseman, G. Scalmani, V. Barone, 
 G. A. Petersson, H. Nakatsuji, X. Li, M. Caricato, A. V. Marenich, 
 J. Bloino, B. G. Janesko, R. Gomperts, B. Mennucci, H. P. Hratchian, 
 J. V. Ortiz, A. F. Izmaylov, J. L. Sonnenberg, D. Williams-Young, 
 F. Ding, F. Lipparini, F. Egidi, J. Goings, B. Peng, A. Petrone, 
 T. Henderson, D. Ranasinghe, V. G. Zakrzewski, J. Gao, N. Rega, 
 G. Zheng, W. Liang, M. Hada, M. Ehara, K. Toyota, R. Fukuda, 
 J. Hasegawa, M. Ishida, T. Nakajima, Y. Honda, O. Kitao, H. Nakai, 
 T. Vreven, K. Throssell, J. A. Montgomery, Jr., J. E. Peralta, 
 F. Ogliaro, M. J. Bearpark, J. J. Heyd, E. N. Brothers, K. N. Kudin, 
 V. N. Staroverov, T. A. Keith, R. Kobayashi, J. Normand, 
 K. Raghavachari, A. P. Rendell, J. C. Burant, S. S. Iyengar, 
 J. Tomasi, M. Cossi, J. M. Millam, M. Klene, C. Adamo, R. Cammi, 
 J. W. Ochterski, R. L. Martin, K. Morokuma, O. Farkas, 
 J. B. Foresman, and D. J. Fox, Gaussian, Inc., Wallingford CT, 2019.
 
 ******************************************
 Gaussian 16:  ES64L-G16RevC.01  3-Jul-2019
                 3-Jan-2023 
 ******************************************
 %chk=0001_q000_m01_k00_force_uhf_def2tzvp.chk
 %nprocshared=2
 Will use up to    2 processors via shared memory.
 %mem=4GB
 ----------------------------------------------------------------------
 #p uhf/gen stable=opt scf=(maxcycle=900,verytightlineq,xqc) integral=g
 rid=ultrafine symmetry=None density=current iop(99/18=-1) output=wfn
 ----------------------------------------------------------------------
 1/38=1,172=1/1;
 2/12=2,15=3,17=6,18=5,40=1/2;
 3/5=7,11=2,25=1,30=1,75=-5,116=2/1,2,3;
 4//1;
 5/5=2,7=900,8=3,13=1,17=3,38=5/2,8;
 6/7=2,8=2,9=2,10=2,22=-1,28=1/1;
 8/6=1,10=90,11=11/1;
 9/8=-3,42=1,46=1/14;
 5/5=2,7=900,8=3,17=43,38=5/8(-2);
 6/7=2,8=2,9=2,10=2,22=-1,28=1/1;
 99/5=1,6=100,9=1,18=-1/99;
 Leave Link    1 at Tue Jan  3 09:03:40 2023, MaxMem=   536870912 cpu:               0.1 elap:               0.0
 (Enter /opt/software/gaussian/g16.c01/l101.exe)
 ----------------------------------------------------------------------
 0001_q000_m01_k00_opt_uwb97xd_def2svpd/0001_q000_m01_k00_force_uhf_def
 2tzvp stable-force
 ----------------------------------------------------------------------
 Symbolic Z-matrix:
 Charge =  0 Multiplicity = 1
 C                     1.07262  -0.0702   -0.15301 
 N                     2.37794  -0.08975  -0.25439 
 N                     3.08336  -0.36847  -1.30873 
 H                     4.06405  -0.29267  -1.04764 
 H                     0.63996   0.18515   0.80853 
 H                     0.48304  -0.30998  -1.03372 
 H                     2.8675    0.14588   0.61313 
 
 ITRead=  0  0  0  0  0  0  0
 MicOpt= -1 -1 -1 -1 -1 -1 -1
 NAtoms=      7 NQM=        7 NQMF=       0 NMMI=      0 NMMIF=      0
                NMic=       0 NMicF=      0.
                    Isotopes and Nuclear Properties:
 (Nuclear quadrupole moments (NQMom) in fm**2, nuclear magnetic moments (NMagM)
  in nuclear magnetons)

  Atom         1           2           3           4           5           6           7
 IAtWgt=          12          14          14           1           1           1           1
 AtmWgt=  12.0000000  14.0030740  14.0030740   1.0078250   1.0078250   1.0078250   1.0078250
 NucSpn=           0           2           2           1           1           1           1
 AtZEff=  -0.0000000  -0.0000000  -0.0000000  -0.0000000  -0.0000000  -0.0000000  -0.0000000
 NQMom=    0.0000000   2.0440000   2.0440000   0.0000000   0.0000000   0.0000000   0.0000000
 NMagM=    0.0000000   0.4037610   0.4037610   2.7928460   2.7928460   2.7928460   2.7928460
 AtZNuc=   6.0000000   7.0000000   7.0000000   1.0000000   1.0000000   1.0000000   1.0000000
 Leave Link  101 at Tue Jan  3 09:03:41 2023, MaxMem=   536870912 cpu:               0.4 elap:               0.2
 (Enter /opt/software/gaussian/g16.c01/l202.exe)
                          Input orientation:                          
 ---------------------------------------------------------------------
 Center     Atomic      Atomic             Coordinates (Angstroms)
 Number     Number       Type             X           Y           Z
 ---------------------------------------------------------------------
      1          6           0        1.072617   -0.070199   -0.153013
      2          7           0        2.377944   -0.089746   -0.254385
      3          7           0        3.083355   -0.368470   -1.308729
      4          1           0        4.064049   -0.292670   -1.047637
      5          1           0        0.639963    0.185154    0.808526
      6          1           0        0.483044   -0.309980   -1.033725
      7          1           0        2.867498    0.145880    0.613132
 ---------------------------------------------------------------------
                    Distance matrix (angstroms):
                    1          2          3          4          5
     1  C    0.000000
     2  N    1.309403   0.000000
     3  N    2.338315   1.298820   0.000000
     4  H    3.130258   1.874401   1.017681   0.000000
     5  H    1.084874   2.055706   3.280158   3.924032   0.000000
     6  H    1.086621   2.060708   2.615467   3.581074   1.914071
     7  H    1.963483   1.023606   2.001175   2.093374   2.236433
                    6          7
     6  H    0.000000
     7  H    2.933525   0.000000
 Symmetry turned off by external request.
 Stoichiometry    CH4N2
 Rotational constants (GHZ):          71.2642239          11.2793619           9.7380671
 Leave Link  202 at Tue Jan  3 09:03:41 2023, MaxMem=   536870912 cpu:               0.0 elap:               0.0
 (Enter /opt/software/gaussian/g16.c01/l301.exe)
 General basis read from cards:  (5D, 7F)
 Centers:       4      5      6      7
 S 3 1.00
     Exponent=  3.4061341000D+01 Coefficients=  6.0251978000D-03
     Exponent=  5.1235746000D+00 Coefficients=  4.5021094000D-02
     Exponent=  1.1646626000D+00 Coefficients=  2.0189726000D-01
 S 1 1.00
     Exponent=  3.2723041000D-01 Coefficients=  1.0000000000D+00
 S 1 1.00
     Exponent=  1.0307241000D-01 Coefficients=  1.0000000000D+00
 P 1 1.00
     Exponent=  8.0000000000D-01 Coefficients=  1.0000000000D+00
 ****
 Centers:       1
 S 6 1.00
     Exponent=  1.3575349682D+04 Coefficients=  2.2245814352D-04
     Exponent=  2.0352333680D+03 Coefficients=  1.7232738252D-03
     Exponent=  4.6322562359D+02 Coefficients=  8.9255715314D-03
     Exponent=  1.3120019598D+02 Coefficients=  3.5727984502D-02
     Exponent=  4.2853015891D+01 Coefficients=  1.1076259931D-01
     Exponent=  1.5584185766D+01 Coefficients=  2.4295627626D-01
 S 2 1.00
     Exponent=  6.2067138508D+00 Coefficients=  4.1440263448D-01
     Exponent=  2.5764896527D+00 Coefficients=  2.3744968655D-01
 S 1 1.00
     Exponent=  5.7696339419D-01 Coefficients=  1.0000000000D+00
 S 1 1.00
     Exponent=  2.2972831358D-01 Coefficients=  1.0000000000D+00
 S 1 1.00
     Exponent=  9.5164440028D-02 Coefficients=  1.0000000000D+00
 P 4 1.00
     Exponent=  3.4697232244D+01 Coefficients=  5.3333657805D-03
     Exponent=  7.9582622826D+00 Coefficients=  3.5864109092D-02
     Exponent=  2.3780826883D+00 Coefficients=  1.4215873329D-01
     Exponent=  8.1433208183D-01 Coefficients=  3.4270471845D-01
 P 1 1.00
     Exponent=  2.8887547253D-01 Coefficients=  4.6445822433D-01
 P 1 1.00
     Exponent=  1.0056823671D-01 Coefficients=  2.4955789874D-01
 D 1 1.00
     Exponent=  1.0970000000D+00 Coefficients=  1.0000000000D+00
 D 1 1.00
     Exponent=  3.1800000000D-01 Coefficients=  1.0000000000D+00
 F 1 1.00
     Exponent=  7.6100000000D-01 Coefficients=  1.0000000000D+00
 ****
 Centers:       2      3
 S 6 1.00
     Exponent=  1.9730800647D+04 Coefficients=  2.1887984991D-04
     Exponent=  2.9578958745D+03 Coefficients=  1.6960708803D-03
     Exponent=  6.7322133595D+02 Coefficients=  8.7954603538D-03
     Exponent=  1.9068249494D+02 Coefficients=  3.5359382605D-02
     Exponent=  6.2295441898D+01 Coefficients=  1.1095789217D-01
     Exponent=  2.2654161182D+01 Coefficients=  2.4982972552D-01
 S 2 1.00
     Exponent=  8.9791477428D+00 Coefficients=  4.0623896148D-01
     Exponent=  3.6863002370D+00 Coefficients=  2.4338217176D-01
 S 1 1.00
     Exponent=  8.4660076805D-01 Coefficients=  1.0000000000D+00
 S 1 1.00
     Exponent=  3.3647133771D-01 Coefficients=  1.0000000000D+00
 S 1 1.00
     Exponent=  1.3647653675D-01 Coefficients=  1.0000000000D+00
 P 4 1.00
     Exponent=  4.9200380510D+01 Coefficients=  5.5552416751D-03
     Exponent=  1.1346790537D+01 Coefficients=  3.8052379723D-02
     Exponent=  3.4273972411D+00 Coefficients=  1.4953671029D-01
     Exponent=  1.1785525134D+00 Coefficients=  3.4949305230D-01
 P 1 1.00
     Exponent=  4.1642204972D-01 Coefficients=  4.5843153697D-01
 P 1 1.00
     Exponent=  1.4260826011D-01 Coefficients=  2.4428771672D-01
 D 1 1.00
     Exponent=  1.6540000000D+00 Coefficients=  1.0000000000D+00
 D 1 1.00
     Exponent=  4.6900000000D-01 Coefficients=  1.0000000000D+00
 F 1 1.00
     Exponent=  1.0930000000D+00 Coefficients=  1.0000000000D+00
 ****
 Ernie: Thresh=  0.10000D-02 Tol=  0.10000D-05 Strict=F.
   117 basis functions,   185 primitive gaussians,   132 cartesian basis functions
    12 alpha electrons       12 beta electrons
       nuclear repulsion energy        73.3825490640 Hartrees.
 IExCor=    0 DFT=F Ex=HF Corr=None ExCW=0 ScaHFX=  1.000000
 ScaDFX=  1.000000  1.000000  1.000000  1.000000 ScalE2=  1.000000  1.000000
 IRadAn=      5 IRanWt=     -1 IRanGd=            0 ICorTp=0 IEmpDi=  4
 NAtoms=    7 NActive=    7 NUniq=    7 SFac= 1.00D+00 NAtFMM=   60 NAOKFM=F Big=F
 Integral buffers will be    131072 words long.
 Raffenetti 2 integral format.
 Two-electron integral symmetry is turned off.
 Leave Link  301 at Tue Jan  3 09:03:41 2023, MaxMem=   536870912 cpu:               0.1 elap:               0.1
 (Enter /opt/software/gaussian/g16.c01/l302.exe)
 NPDir=0 NMtPBC=     1 NCelOv=     1 NCel=       1 NClECP=     1 NCelD=      1
         NCelK=      1 NCelE2=     1 NClLst=     1 CellRange=     0.0.
 One-electron integrals computed using PRISM.
 NBasis=   117 RedAO= T EigKep=  5.86D-04  NBF=   117
 NBsUse=   117 1.00D-06 EigRej= -1.00D+00 NBFU=   117
 Leave Link  302 at Tue Jan  3 09:03:41 2023, MaxMem=   536870912 cpu:               0.3 elap:               0.1
 (Enter /opt/software/gaussian/g16.c01/l303.exe)
 DipDrv:  MaxL=1.
 Leave Link  303 at Tue Jan  3 09:03:41 2023, MaxMem=   536870912 cpu:               0.1 elap:               0.0
 (Enter /opt/software/gaussian/g16.c01/l401.exe)
 ExpMin= 9.52D-02 ExpMax= 1.97D+04 ExpMxC= 6.73D+02 IAcc=3 IRadAn=         5 AccDes= 0.00D+00
 Harris functional with IExCor=  205 and IRadAn=       5 diagonalized for initial guess.
 HarFok:  IExCor=  205 AccDes= 0.00D+00 IRadAn=         5 IDoV= 1 UseB2=F ITyADJ=14
 ICtDFT=  3500011 ScaDFX=  1.000000  1.000000  1.000000  1.000000
 FoFCou: FMM=F IPFlag=           0 FMFlag=      100000 FMFlg1=           0
         NFxFlg=           0 DoJE=T BraDBF=F KetDBF=T FulRan=T
         wScrn=  0.000000 ICntrl=       500 IOpCl=  0 I1Cent=   200000004 NGrid=           0
         NMat0=    1 NMatS0=      1 NMatT0=    0 NMatD0=    1 NMtDS0=    0 NMtDT0=    0
 Symmetry not used in FoFCou.
 Harris En= -149.269710583475    
 JPrj=0 DoOrth=F DoCkMO=F.
 Initial guess <Sx>= 0.0000 <Sy>= 0.0000 <Sz>= 0.0000 <S**2>=-0.0000 S=-0.0000
 Leave Link  401 at Tue Jan  3 09:03:41 2023, MaxMem=   536870912 cpu:               0.9 elap:               0.5
 (Enter /opt/software/gaussian/g16.c01/l502.exe)
 Keep R1 and R2 ints in memory in canonical form, NReq=49665217.
 FoFCou: FMM=F IPFlag=           0 FMFlag=           0 FMFlg1=           0
         NFxFlg=           0 DoJE=F BraDBF=F KetDBF=F FulRan=T
         wScrn=  0.000000 ICntrl=       600 IOpCl=  0 I1Cent=           0 NGrid=           0
         NMat0=    1 NMatS0=   6903 NMatT0=    0 NMatD0=    1 NMtDS0=    0 NMtDT0=    0
 Symmetry not used in FoFCou.
 Two-electron integral symmetry not used.
 UHF open shell SCF:
 Using DIIS extrapolation, IDIIS=  1040.
 NGot=   536870912 LenX=   489175770 LenY=   489157905
 Requested convergence on RMS density matrix=1.00D-08 within 128 cycles.
 Requested convergence on MAX density matrix=1.00D-06.
 Requested convergence on             energy=1.00D-06.
 No special actions if energy rises.

 Cycle   1  Pass 1  IDiag  1:
 E= -148.886043767205    
 DIIS: error= 4.97D-02 at cycle   1 NSaved=   1.
 NSaved= 1 IEnMin= 1 EnMin= -148.886043767205     IErMin= 1 ErrMin= 4.97D-02
 ErrMax= 4.97D-02  0.00D+00 EMaxC= 1.00D-01 BMatC= 1.31D+00 BMatP= 1.31D+00
 IDIUse=3 WtCom= 5.03D-01 WtEn= 4.97D-01
 Coeff-Com:  0.100D+01
 Coeff-En:   0.100D+01
 Coeff:      0.100D+01
 Gap=     0.389 Goal=   None    Shift=    0.000
 Gap=     0.389 Goal=   None    Shift=    0.000
 GapD=    0.389 DampG=1.000 DampE=0.500 DampFc=0.5000 IDamp=-1.
 Damping current iteration by 5.00D-01
 RMSDP=3.15D-03 MaxDP=7.32D-02              OVMax= 1.41D-01

 Cycle   2  Pass 1  IDiag  1:
 E= -148.966347004884     Delta-E=       -0.080303237679 Rises=F Damp=T
 DIIS: error= 1.62D-02 at cycle   2 NSaved=   2.
 NSaved= 2 IEnMin= 2 EnMin= -148.966347004884     IErMin= 2 ErrMin= 1.62D-02
 ErrMax= 1.62D-02  0.00D+00 EMaxC= 1.00D-01 BMatC= 2.79D-01 BMatP= 1.31D+00
 IDIUse=3 WtCom= 8.38D-01 WtEn= 1.62D-01
 Coeff-Com: -0.663D+00 0.166D+01
 Coeff-En:   0.000D+00 0.100D+01
 Coeff:     -0.555D+00 0.156D+01
 Gap=     0.413 Goal=   None    Shift=    0.000
 Gap=     0.413 Goal=   None    Shift=    0.000
 RMSDP=9.63D-04 MaxDP=2.05D-02 DE=-8.03D-02 OVMax= 4.48D-02

 Cycle   3  Pass 1  IDiag  1:
 E= -149.035987719098     Delta-E=       -0.069640714214 Rises=F Damp=F
 DIIS: error= 3.60D-03 at cycle   3 NSaved=   3.
 NSaved= 3 IEnMin= 3 EnMin= -149.035987719098     IErMin= 3 ErrMin= 3.60D-03
 ErrMax= 3.60D-03  0.00D+00 EMaxC= 1.00D-01 BMatC= 7.73D-03 BMatP= 2.79D-01
 IDIUse=3 WtCom= 9.64D-01 WtEn= 3.60D-02
 Coeff-Com: -0.161D+00 0.292D+00 0.869D+00
 Coeff-En:   0.000D+00 0.000D+00 0.100D+01
 Coeff:     -0.155D+00 0.281D+00 0.874D+00
 Gap=     0.401 Goal=   None    Shift=    0.000
 Gap=     0.401 Goal=   None    Shift=    0.000
 RMSDP=2.72D-04 MaxDP=8.63D-03 DE=-6.96D-02 OVMax= 1.13D-02

 Cycle   4  Pass 1  IDiag  1:
 E= -149.037345598225     Delta-E=       -0.001357879127 Rises=F Damp=F
 DIIS: error= 1.38D-03 at cycle   4 NSaved=   4.
 NSaved= 4 IEnMin= 4 EnMin= -149.037345598225     IErMin= 4 ErrMin= 1.38D-03
 ErrMax= 1.38D-03  0.00D+00 EMaxC= 1.00D-01 BMatC= 7.36D-04 BMatP= 7.73D-03
 IDIUse=3 WtCom= 9.86D-01 WtEn= 1.38D-02
 Coeff-Com: -0.313D-01 0.464D-01 0.269D+00 0.716D+00
 Coeff-En:   0.000D+00 0.000D+00 0.000D+00 0.100D+01
 Coeff:     -0.309D-01 0.457D-01 0.266D+00 0.720D+00
 Gap=     0.399 Goal=   None    Shift=    0.000
 Gap=     0.399 Goal=   None    Shift=    0.000
 RMSDP=9.65D-05 MaxDP=1.96D-03 DE=-1.36D-03 OVMax= 8.49D-03

 Cycle   5  Pass 1  IDiag  1:
 E= -149.037552798929     Delta-E=       -0.000207200705 Rises=F Damp=F
 DIIS: error= 5.03D-04 at cycle   5 NSaved=   5.
 NSaved= 5 IEnMin= 5 EnMin= -149.037552798929     IErMin= 5 ErrMin= 5.03D-04
 ErrMax= 5.03D-04  0.00D+00 EMaxC= 1.00D-01 BMatC= 9.72D-05 BMatP= 7.36D-04
 IDIUse=3 WtCom= 9.95D-01 WtEn= 5.03D-03
 Coeff-Com:  0.174D-01-0.314D-01-0.115D+00 0.842D-01 0.104D+01
 Coeff-En:   0.000D+00 0.000D+00 0.000D+00 0.000D+00 0.100D+01
 Coeff:      0.173D-01-0.312D-01-0.114D+00 0.837D-01 0.104D+01
 Gap=     0.400 Goal=   None    Shift=    0.000
 Gap=     0.400 Goal=   None    Shift=    0.000
 RMSDP=5.93D-05 MaxDP=1.65D-03 DE=-2.07D-04 OVMax= 1.77D-03

 Cycle   6  Pass 1  IDiag  1:
 E= -149.037591891444     Delta-E=       -0.000039092515 Rises=F Damp=F
 DIIS: error= 2.16D-04 at cycle   6 NSaved=   6.
 NSaved= 6 IEnMin= 6 EnMin= -149.037591891444     IErMin= 6 ErrMin= 2.16D-04
 ErrMax= 2.16D-04  0.00D+00 EMaxC= 1.00D-01 BMatC= 1.06D-05 BMatP= 9.72D-05
 IDIUse=3 WtCom= 9.98D-01 WtEn= 2.16D-03
 Coeff-Com:  0.555D-02-0.901D-02-0.467D-01-0.289D-01 0.494D-01 0.103D+01
 Coeff-En:   0.000D+00 0.000D+00 0.000D+00 0.000D+00 0.000D+00 0.100D+01
 Coeff:      0.554D-02-0.899D-02-0.466D-01-0.288D-01 0.493D-01 0.103D+01
 Gap=     0.400 Goal=   None    Shift=    0.000
 Gap=     0.400 Goal=   None    Shift=    0.000
 RMSDP=2.90D-05 MaxDP=8.06D-04 DE=-3.91D-05 OVMax= 1.97D-03

 Cycle   7  Pass 1  IDiag  1:
 E= -149.037599619004     Delta-E=       -0.000007727559 Rises=F Damp=F
 DIIS: error= 1.02D-04 at cycle   7 NSaved=   7.
 NSaved= 7 IEnMin= 7 EnMin= -149.037599619004     IErMin= 7 ErrMin= 1.02D-04
 ErrMax= 1.02D-04  0.00D+00 EMaxC= 1.00D-01 BMatC= 3.97D-06 BMatP= 1.06D-05
 IDIUse=3 WtCom= 9.99D-01 WtEn= 1.02D-03
 Coeff-Com: -0.315D-02 0.589D-02 0.182D-01-0.254D-02-0.287D+00 0.238D+00
 Coeff-Com:  0.103D+01
 Coeff-En:   0.000D+00 0.000D+00 0.000D+00 0.000D+00 0.000D+00 0.000D+00
 Coeff-En:   0.100D+01
 Coeff:     -0.315D-02 0.588D-02 0.182D-01-0.254D-02-0.287D+00 0.238D+00
 Coeff:      0.103D+01
 Gap=     0.400 Goal=   None    Shift=    0.000
 Gap=     0.400 Goal=   None    Shift=    0.000
 RMSDP=2.00D-05 MaxDP=7.45D-04 DE=-7.73D-06 OVMax= 1.02D-03

 Cycle   8  Pass 1  IDiag  1:
 E= -149.037602220731     Delta-E=       -0.000002601727 Rises=F Damp=F
 DIIS: error= 3.65D-05 at cycle   8 NSaved=   8.
 NSaved= 8 IEnMin= 8 EnMin= -149.037602220731     IErMin= 8 ErrMin= 3.65D-05
 ErrMax= 3.65D-05  0.00D+00 EMaxC= 1.00D-01 BMatC= 4.66D-07 BMatP= 3.97D-06
 IDIUse=1 WtCom= 1.00D+00 WtEn= 0.00D+00
 Coeff-Com: -0.106D-02 0.171D-02 0.885D-02 0.165D-01-0.155D-01-0.176D+00
 Coeff-Com: -0.226D+00 0.139D+01
 Coeff:     -0.106D-02 0.171D-02 0.885D-02 0.165D-01-0.155D-01-0.176D+00
 Coeff:     -0.226D+00 0.139D+01
 Gap=     0.400 Goal=   None    Shift=    0.000
 Gap=     0.400 Goal=   None    Shift=    0.000
 RMSDP=1.14D-05 MaxDP=4.08D-04 DE=-2.60D-06 OVMax= 7.23D-04

 Cycle   9  Pass 1  IDiag  1:
 E= -149.037602730028     Delta-E=       -0.000000509297 Rises=F Damp=F
 DIIS: error= 8.76D-06 at cycle   9 NSaved=   9.
 NSaved= 9 IEnMin= 9 EnMin= -149.037602730028     IErMin= 9 ErrMin= 8.76D-06
 ErrMax= 8.76D-06  0.00D+00 EMaxC= 1.00D-01 BMatC= 3.60D-08 BMatP= 4.66D-07
 IDIUse=1 WtCom= 1.00D+00 WtEn= 0.00D+00
 Coeff-Com:  0.508D-03-0.895D-03-0.348D-02-0.213D-02 0.150D-01 0.566D-01
 Coeff-Com: -0.678D-01-0.317D+00 0.132D+01
 Coeff:      0.508D-03-0.895D-03-0.348D-02-0.213D-02 0.150D-01 0.566D-01
 Coeff:     -0.678D-01-0.317D+00 0.132D+01
 Gap=     0.400 Goal=   None    Shift=    0.000
 Gap=     0.400 Goal=   None    Shift=    0.000
 RMSDP=2.22D-06 MaxDP=6.18D-05 DE=-5.09D-07 OVMax= 1.55D-04

 Cycle  10  Pass 1  IDiag  1:
 E= -149.037602758904     Delta-E=       -0.000000028876 Rises=F Damp=F
 DIIS: error= 3.28D-06 at cycle  10 NSaved=  10.
 NSaved=10 IEnMin=10 EnMin= -149.037602758904     IErMin=10 ErrMin= 3.28D-06
 ErrMax= 3.28D-06  0.00D+00 EMaxC= 1.00D-01 BMatC= 3.00D-09 BMatP= 3.60D-08
 IDIUse=1 WtCom= 1.00D+00 WtEn= 0.00D+00
 Coeff-Com: -0.524D-04 0.102D-03 0.459D-03-0.354D-03-0.641D-02 0.774D-02
 Coeff-Com:  0.303D-01-0.213D-01-0.452D+00 0.144D+01
 Coeff:     -0.524D-04 0.102D-03 0.459D-03-0.354D-03-0.641D-02 0.774D-02
 Coeff:      0.303D-01-0.213D-01-0.452D+00 0.144D+01
 Gap=     0.400 Goal=   None    Shift=    0.000
 Gap=     0.400 Goal=   None    Shift=    0.000
 RMSDP=5.76D-07 MaxDP=1.02D-05 DE=-2.89D-08 OVMax= 4.26D-05

 Cycle  11  Pass 1  IDiag  1:
 E= -149.037602761392     Delta-E=       -0.000000002487 Rises=F Damp=F
 DIIS: error= 8.13D-07 at cycle  11 NSaved=  11.
 NSaved=11 IEnMin=11 EnMin= -149.037602761392     IErMin=11 ErrMin= 8.13D-07
 ErrMax= 8.13D-07  0.00D+00 EMaxC= 1.00D-01 BMatC= 1.51D-10 BMatP= 3.00D-09
 IDIUse=1 WtCom= 1.00D+00 WtEn= 0.00D+00
 Coeff-Com: -0.189D-04 0.302D-04 0.175D-03 0.328D-03-0.110D-03-0.488D-02
 Coeff-Com: -0.607D-02 0.357D-01 0.124D-01-0.363D+00 0.133D+01
 Coeff:     -0.189D-04 0.302D-04 0.175D-03 0.328D-03-0.110D-03-0.488D-02
 Coeff:     -0.607D-02 0.357D-01 0.124D-01-0.363D+00 0.133D+01
 Gap=     0.400 Goal=   None    Shift=    0.000
 Gap=     0.400 Goal=   None    Shift=    0.000
 RMSDP=1.14D-07 MaxDP=2.55D-06 DE=-2.49D-09 OVMax= 6.80D-06

 Cycle  12  Pass 1  IDiag  1:
 E= -149.037602761500     Delta-E=       -0.000000000108 Rises=F Damp=F
 DIIS: error= 1.25D-07 at cycle  12 NSaved=  12.
 NSaved=12 IEnMin=12 EnMin= -149.037602761500     IErMin=12 ErrMin= 1.25D-07
 ErrMax= 1.25D-07  0.00D+00 EMaxC= 1.00D-01 BMatC= 7.25D-12 BMatP= 1.51D-10
 IDIUse=1 WtCom= 1.00D+00 WtEn= 0.00D+00
 Coeff-Com:  0.784D-05-0.139D-04-0.618D-04-0.839D-04 0.292D-03 0.141D-02
 Coeff-Com: -0.588D-03-0.839D-02 0.185D-01 0.337D-01-0.412D+00 0.137D+01
 Coeff:      0.784D-05-0.139D-04-0.618D-04-0.839D-04 0.292D-03 0.141D-02
 Coeff:     -0.588D-03-0.839D-02 0.185D-01 0.337D-01-0.412D+00 0.137D+01
 Gap=     0.400 Goal=   None    Shift=    0.000
 Gap=     0.400 Goal=   None    Shift=    0.000
 RMSDP=2.54D-08 MaxDP=6.74D-07 DE=-1.08D-10 OVMax= 1.20D-06

 Cycle  13  Pass 1  IDiag  1:
 E= -149.037602761505     Delta-E=       -0.000000000005 Rises=F Damp=F
 DIIS: error= 1.28D-08 at cycle  13 NSaved=  13.
 NSaved=13 IEnMin=13 EnMin= -149.037602761505     IErMin=13 ErrMin= 1.28D-08
 ErrMax= 1.28D-08  0.00D+00 EMaxC= 1.00D-01 BMatC= 1.01D-13 BMatP= 7.25D-12
 IDIUse=1 WtCom= 1.00D+00 WtEn= 0.00D+00
 Coeff-Com: -0.153D-05 0.281D-05 0.104D-04 0.860D-05-0.718D-04-0.164D-03
 Coeff-Com:  0.355D-03 0.759D-03-0.471D-02 0.512D-02 0.457D-01-0.288D+00
 Coeff-Com:  0.124D+01
 Coeff:     -0.153D-05 0.281D-05 0.104D-04 0.860D-05-0.718D-04-0.164D-03
 Coeff:      0.355D-03 0.759D-03-0.471D-02 0.512D-02 0.457D-01-0.288D+00
 Coeff:      0.124D+01
 Gap=     0.400 Goal=   None    Shift=    0.000
 Gap=     0.400 Goal=   None    Shift=    0.000
 RMSDP=3.30D-09 MaxDP=4.08D-08 DE=-4.95D-12 OVMax= 1.24D-07

 SCF Done:  E(UHF) =  -149.037602762     A.U. after   13 cycles
            NFock= 13  Conv=0.33D-08     -V/T= 2.0016
 <Sx>= 0.0000 <Sy>= 0.0000 <Sz>= 0.0000 <S**2>=-0.0000 S=-0.0000
 <L.S>=  0.00000000000    
 KE= 1.487967594299D+02 PE=-4.953986728466D+02 EE= 1.241817615912D+02
 Annihilation of the first spin contaminant:
 S**2 before annihilation    -0.0000,   after     0.0000
 Leave Link  502 at Tue Jan  3 09:03:43 2023, MaxMem=   536870912 cpu:               3.1 elap:               1.8
 (Enter /opt/software/gaussian/g16.c01/l508.exe)
 QCSCF skips out because SCF is already converged.
 Leave Link  508 at Tue Jan  3 09:03:43 2023, MaxMem=   536870912 cpu:               0.0 elap:               0.0
 (Enter /opt/software/gaussian/g16.c01/l601.exe)
 Copying SCF densities to generalized density rwf, IOpCl= 1 IROHF=0.

 **********************************************************************

            Population analysis using the SCF Density.

 **********************************************************************

 Alpha  occ. eigenvalues --  -15.70827 -15.53339 -11.26436  -1.36532  -1.07668
 Alpha  occ. eigenvalues --   -0.86723  -0.75728  -0.65874  -0.58442  -0.58217
 Alpha  occ. eigenvalues --   -0.43341  -0.28794
 Alpha virt. eigenvalues --    0.11226   0.11611   0.18265   0.19706   0.22085
 Alpha virt. eigenvalues --    0.26487   0.31271   0.36673   0.39625   0.43947
 Alpha virt. eigenvalues --    0.51192   0.52224   0.55348   0.58083   0.58505
 Alpha virt. eigenvalues --    0.60310   0.63203   0.63752   0.69478   0.72184
 Alpha virt. eigenvalues --    0.72913   0.78529   0.83209   0.89334   0.94777
 Alpha virt. eigenvalues --    1.08953   1.18999   1.20639   1.26417   1.30765
 Alpha virt. eigenvalues --    1.42595   1.50206   1.57904   1.58139   1.68477
 Alpha virt. eigenvalues --    1.71818   1.74993   1.76469   1.85090   1.91770
 Alpha virt. eigenvalues --    1.92004   1.99838   2.03599   2.04184   2.11594
 Alpha virt. eigenvalues --    2.22937   2.26523   2.31346   2.36823   2.39832
 Alpha virt. eigenvalues --    2.40770   2.46401   2.47695   2.59410   2.64152
 Alpha virt. eigenvalues --    2.70398   2.77983   2.87951   2.93945   3.03159
 Alpha virt. eigenvalues --    3.08741   3.10184   3.16989   3.22849   3.27108
 Alpha virt. eigenvalues --    3.36575   3.44474   3.48839   3.55591   3.57330
 Alpha virt. eigenvalues --    3.59003   3.78383   3.85230   3.98508   4.04458
 Alpha virt. eigenvalues --    4.09416   4.10889   4.31339   4.32743   4.47834
 Alpha virt. eigenvalues --    4.55833   4.67188   4.84124   4.94775   4.99787
 Alpha virt. eigenvalues --    5.03111   5.09504   5.13011   5.16073   5.19176
 Alpha virt. eigenvalues --    5.31315   5.37454   5.45489   5.55186   5.57692
 Alpha virt. eigenvalues --    5.67001   5.99680   6.00826   6.14253   6.38890
 Alpha virt. eigenvalues --    6.54477   7.31793  23.47798  33.01027  33.46124
  Beta  occ. eigenvalues --  -15.70827 -15.53339 -11.26436  -1.36532  -1.07668
  Beta  occ. eigenvalues --   -0.86723  -0.75728  -0.65874  -0.58442  -0.58217
  Beta  occ. eigenvalues --   -0.43341  -0.28794
  Beta virt. eigenvalues --    0.11226   0.11611   0.18265   0.19706   0.22085
  Beta virt. eigenvalues --    0.26487   0.31271   0.36673   0.39625   0.43947
  Beta virt. eigenvalues --    0.51192   0.52224   0.55348   0.58083   0.58505
  Beta virt. eigenvalues --    0.60310   0.63203   0.63752   0.69478   0.72184
  Beta virt. eigenvalues --    0.72913   0.78529   0.83209   0.89334   0.94777
  Beta virt. eigenvalues --    1.08953   1.18999   1.20639   1.26417   1.30765
  Beta virt. eigenvalues --    1.42595   1.50206   1.57904   1.58139   1.68477
  Beta virt. eigenvalues --    1.71818   1.74993   1.76469   1.85090   1.91770
  Beta virt. eigenvalues --    1.92004   1.99838   2.03599   2.04184   2.11594
  Beta virt. eigenvalues --    2.22937   2.26523   2.31346   2.36823   2.39832
  Beta virt. eigenvalues --    2.40770   2.46401   2.47695   2.59410   2.64152
  Beta virt. eigenvalues --    2.70398   2.77983   2.87951   2.93945   3.03159
  Beta virt. eigenvalues --    3.08741   3.10184   3.16989   3.22849   3.27108
  Beta virt. eigenvalues --    3.36575   3.44474   3.48839   3.55591   3.57330
  Beta virt. eigenvalues --    3.59003   3.78383   3.85230   3.98508   4.04458
  Beta virt. eigenvalues --    4.09416   4.10889   4.31339   4.32743   4.47834
  Beta virt. eigenvalues --    4.55833   4.67188   4.84124   4.94775   4.99787
  Beta virt. eigenvalues --    5.03111   5.09504   5.13011   5.16073   5.19176
  Beta virt. eigenvalues --    5.31315   5.37454   5.45489   5.55186   5.57692
  Beta virt. eigenvalues --    5.67001   5.99680   6.00826   6.14253   6.38890
  Beta virt. eigenvalues --    6.54477   7.31793  23.47798  33.01027  33.46124
          Condensed to atoms (all electrons):
               1          2          3          4          5          6
     1  C    5.069529   0.511325  -0.146756   0.010056   0.417503   0.420980
     2  N    0.511325   5.959130   0.225740  -0.019204  -0.035310  -0.030721
     3  N   -0.146756   0.225740   7.179239   0.301894   0.005258   0.001761
     4  H    0.010056  -0.019204   0.301894   0.537284  -0.000679  -0.000711
     5  H    0.417503  -0.035310   0.005258  -0.000679   0.493392  -0.022409
     6  H    0.420980  -0.030721   0.001761  -0.000711  -0.022409   0.467883
     7  H   -0.060480   0.371140  -0.022183  -0.023574  -0.004625   0.005980
               7
     1  C   -0.060480
     2  N    0.371140
     3  N   -0.022183
     4  H   -0.023574
     5  H   -0.004625
     6  H    0.005980
     7  H    0.483572
          Atomic-Atomic Spin Densities.
               1          2          3          4          5          6
     1  C    0.000000   0.000000   0.000000   0.000000   0.000000   0.000000
     2  N    0.000000   0.000000   0.000000   0.000000   0.000000   0.000000
     3  N    0.000000   0.000000   0.000000   0.000000   0.000000   0.000000
     4  H    0.000000   0.000000   0.000000   0.000000   0.000000   0.000000
     5  H    0.000000   0.000000   0.000000   0.000000   0.000000   0.000000
     6  H    0.000000   0.000000   0.000000   0.000000   0.000000   0.000000
     7  H    0.000000   0.000000   0.000000   0.000000   0.000000   0.000000
               7
     1  C    0.000000
     2  N    0.000000
     3  N    0.000000
     4  H    0.000000
     5  H    0.000000
     6  H    0.000000
     7  H    0.000000
 Mulliken charges and spin densities:
               1          2
     1  C   -0.222157   0.000000
     2  N    0.017900   0.000000
     3  N   -0.544954   0.000000
     4  H    0.194934   0.000000
     5  H    0.146870   0.000000
     6  H    0.157236   0.000000
     7  H    0.250170   0.000000
 Sum of Mulliken charges =  -0.00000   0.00000
 Mulliken charges and spin densities with hydrogens summed into heavy atoms:
               1          2
     1  C    0.081949   0.000000
     2  N    0.268071   0.000000
     3  N   -0.350020   0.000000
 Electronic spatial extent (au):  <R**2>=            600.0542
 Charge=             -0.0000 electrons
 Dipole moment (field-independent basis, Debye):
    X=             -0.0539    Y=              0.9407    Z=              3.5079  Tot=              3.6323
 Quadrupole moment (field-independent basis, Debye-Ang):
   XX=            -15.2808   YY=            -21.7709   ZZ=            -23.2918
   XY=              2.7692   XZ=             10.1762   YZ=             -0.5143
 Traceless Quadrupole moment (field-independent basis, Debye-Ang):
   XX=              4.8337   YY=             -1.6564   ZZ=             -3.1773
   XY=              2.7692   XZ=             10.1762   YZ=             -0.5143
 Octapole moment (field-independent basis, Debye-Ang**2):
  XXX=            -93.9952  YYY=             11.3341  ZZZ=             42.8602  XYY=            -46.7638
  XXY=             10.3788  XXZ=             36.7105  XZZ=            -55.0551  YZZ=              5.5250
  YYZ=             12.5528  XYZ=             -2.6470
 Hexadecapole moment (field-independent basis, Debye-Ang**3):
 XXXX=           -490.9939 YYYY=            -30.8307 ZZZZ=           -117.2021 XXXY=             42.6015
 XXXZ=            148.8669 YYYX=             31.3272 YYYZ=            -12.6614 ZZZX=            122.9149
 ZZZY=            -14.0332 XXYY=           -128.7200 XXZZ=           -162.0598 YYZZ=            -24.2518
 XXYZ=            -10.6100 YYXZ=             36.3427 ZZXY=             15.3673
 N-N= 7.338254906404D+01 E-N=-4.953986730566D+02  KE= 1.487967594299D+02
                          Isotropic Fermi Contact Couplings
        Atom                 a.u.       MegaHertz       Gauss      10(-4) cm-1
     1  C(13)              0.00000       0.00000       0.00000       0.00000
     2  N(14)              0.00000       0.00000       0.00000       0.00000
     3  N(14)              0.00000       0.00000       0.00000       0.00000
     4  H(1)               0.00000       0.00000       0.00000       0.00000
     5  H(1)               0.00000       0.00000       0.00000       0.00000
     6  H(1)               0.00000       0.00000       0.00000       0.00000
     7  H(1)               0.00000       0.00000       0.00000       0.00000
 --------------------------------------------------------
       Center         ----  Spin Dipole Couplings  ----
                      3XX-RR        3YY-RR        3ZZ-RR
 --------------------------------------------------------
     1   Atom        0.000000      0.000000      0.000000
     2   Atom        0.000000      0.000000      0.000000
     3   Atom        0.000000      0.000000      0.000000
     4   Atom        0.000000      0.000000      0.000000
     5   Atom        0.000000      0.000000      0.000000
     6   Atom        0.000000      0.000000      0.000000
     7   Atom        0.000000      0.000000      0.000000
 --------------------------------------------------------
                        XY            XZ            YZ
 --------------------------------------------------------
     1   Atom        0.000000      0.000000      0.000000
     2   Atom        0.000000      0.000000      0.000000
     3   Atom        0.000000      0.000000      0.000000
     4   Atom        0.000000      0.000000      0.000000
     5   Atom        0.000000      0.000000      0.000000
     6   Atom        0.000000      0.000000      0.000000
     7   Atom        0.000000      0.000000      0.000000
 --------------------------------------------------------


 ---------------------------------------------------------------------------------
              Anisotropic Spin Dipole Couplings in Principal Axis System
 ---------------------------------------------------------------------------------

       Atom             a.u.   MegaHertz   Gauss  10(-4) cm-1        Axes

              Baa     0.0000     0.000     0.000     0.000  1.0000  0.0000  0.0000
     1 C(13)  Bbb     0.0000     0.000     0.000     0.000 -0.0000  1.0000  0.0000
              Bcc     0.0000     0.000     0.000     0.000  0.0000  0.0000  1.0000
 
              Baa     0.0000     0.000     0.000     0.000  1.0000  0.0000  0.0000
     2 N(14)  Bbb     0.0000     0.000     0.000     0.000 -0.0000  1.0000  0.0000
              Bcc     0.0000     0.000     0.000     0.000  0.0000  0.0000  1.0000
 
              Baa     0.0000     0.000     0.000     0.000  1.0000  0.0000  0.0000
     3 N(14)  Bbb     0.0000     0.000     0.000     0.000 -0.0000  1.0000  0.0000
              Bcc     0.0000     0.000     0.000     0.000  0.0000  0.0000  1.0000
 
              Baa     0.0000     0.000     0.000     0.000  1.0000  0.0000  0.0000
     4 H(1)   Bbb     0.0000     0.000     0.000     0.000 -0.0000  1.0000  0.0000
              Bcc     0.0000     0.000     0.000     0.000  0.0000  0.0000  1.0000
 
              Baa     0.0000     0.000     0.000     0.000  1.0000  0.0000  0.0000
     5 H(1)   Bbb     0.0000     0.000     0.000     0.000 -0.0000  1.0000  0.0000
              Bcc     0.0000     0.000     0.000     0.000  0.0000  0.0000  1.0000
 
              Baa     0.0000     0.000     0.000     0.000  1.0000  0.0000  0.0000
     6 H(1)   Bbb     0.0000     0.000     0.000     0.000 -0.0000  1.0000  0.0000
              Bcc     0.0000     0.000     0.000     0.000  0.0000  0.0000  1.0000
 
              Baa     0.0000     0.000     0.000     0.000  1.0000  0.0000  0.0000
     7 H(1)   Bbb     0.0000     0.000     0.000     0.000 -0.0000  1.0000  0.0000
              Bcc     0.0000     0.000     0.000     0.000  0.0000  0.0000  1.0000
 

 ---------------------------------------------------------------------------------

 No NMR shielding tensors so no spin-rotation constants.
 Leave Link  601 at Tue Jan  3 09:03:43 2023, MaxMem=   536870912 cpu:               0.3 elap:               0.2
 (Enter /opt/software/gaussian/g16.c01/l801.exe)
 Range of M.O.s used for correlation:     1   117
 NBasis=   117 NAE=    12 NBE=    12 NFC=     0 NFV=     0
 NROrb=    117 NOA=    12 NOB=    12 NVA=   105 NVB=   105

 **** Warning!!: The largest alpha MO coefficient is  0.13864733D+02


 **** Warning!!: The largest beta MO coefficient is  0.13864733D+02

 Leave Link  801 at Tue Jan  3 09:03:44 2023, MaxMem=   536870912 cpu:               0.1 elap:               0.0
 (Enter /opt/software/gaussian/g16.c01/l914.exe)
 UHF ground state
 Doing stability rather than CIS.
 Keep R1 and R2 ints in memory in canonical form, NReq=49665557.
 FoFCou: FMM=F IPFlag=           0 FMFlag=           0 FMFlg1=           0
         NFxFlg=           0 DoJE=F BraDBF=F KetDBF=F FulRan=T
         wScrn=  0.000000 ICntrl=       600 IOpCl=  0 I1Cent=           0 NGrid=           0
         NMat0=    1 NMatS0=   6903 NMatT0=    0 NMatD0=    1 NMtDS0=    0 NMtDT0=    0
 Symmetry not used in FoFCou.
 Two-electron integral symmetry not used.
 MDV=   536870912 DFT=F DoStab=T Mixed=F DoRPA=F DoScal=F NonHer=F
 Making orbital integer symmetry assigments:
    12 initial guesses have been made.
 Convergence on wavefunction:    0.001000000000000
 Davidson Disk Diagonalization:  ConvIn= 1.00D-03 SkipCon=T Conv= 1.00D-03.
 Max sub-space:  2000 roots to seek:    12 dimension of matrix:         2520
 Iteration     1 Dimension    12 NMult     0 NNew     12
 CISAX will form    12 AO SS matrices at one time.
 NMat=    12 NSing=    12 JSym2X= 0.
 Excitation Energies [eV] at current iteration:
 Root      1 :    -1.117721865128626
 Root      2 :     5.042538265741099
 Root      3 :     5.320381332546196
 Root      4 :     5.914515749674845
 Root      5 :     6.933137807286429
 Root      6 :     7.078964284840398
 Root      7 :     7.358111622888639
 Root      8 :     7.819102450493338
 Root      9 :     7.973647560878248
 Root     10 :     7.981798247345870
 Root     11 :     8.718284626117560
 Root     12 :    10.096300722557773
 Iteration     2 Dimension    24 NMult    12 NNew     12
 CISAX will form    12 AO SS matrices at one time.
 NMat=    12 NSing=    12 JSym2X= 0.
 Root      1 not converged, maximum delta is    0.057328002631810
 Excitation Energies [eV] at current iteration:
 Root      1 :    -2.055063589143098   Change is   -0.937341724014471
 Root      2 :     4.608128409479768   Change is   -0.434409856261331
 Root      3 :     5.086238918439109   Change is   -0.828276831235735
 Root      4 :     5.160184500596744   Change is   -0.160196831949453
 Root      5 :     5.539871549557816   Change is   -4.556429172999958
 Root      6 :     6.440987201753055   Change is   -0.637977083087344
 Root      7 :     6.554485793427518   Change is   -0.378652013858911
 Root      8 :     6.780072765609702   Change is   -0.578038857278936
 Root      9 :     7.427972242571651   Change is   -0.545675318306596
 Root     10 :     7.477428591378090   Change is   -0.341673859115248
 Root     11 :     7.779348842937626   Change is   -0.202449404408245
 Root     12 :     8.282752069368389   Change is   -0.435532556749171
 Iteration     3 Dimension    27 NMult    24 NNew      3
 CISAX will form     3 AO SS matrices at one time.
 NMat=     3 NSing=     3 JSym2X= 0.
 Root      1 not converged, maximum delta is    0.022346444119837
 Excitation Energies [eV] at current iteration:
 Root      1 :    -2.116742626839530   Change is   -0.061679037696433
 Root      2 :     4.557770690013784   Change is   -0.050357719465984
 Root      3 :     5.023485926218239   Change is   -0.062752992220871
 Iteration     4 Dimension    30 NMult    27 NNew      3
 CISAX will form     3 AO SS matrices at one time.
 NMat=     3 NSing=     3 JSym2X= 0.
 Root      1 not converged, maximum delta is    0.010896082214161
 Excitation Energies [eV] at current iteration:
 Root      1 :    -2.124867800686407   Change is   -0.008125173846877
 Root      2 :     4.551319344621954   Change is   -0.006451345391830
 Root      3 :     5.017764738628434   Change is   -0.005721187589806
 Iteration     5 Dimension    33 NMult    30 NNew      3
 CISAX will form     3 AO SS matrices at one time.
 NMat=     3 NSing=     3 JSym2X= 0.
 Root      1 not converged, maximum delta is    0.004557053013770
 Excitation Energies [eV] at current iteration:
 Root      1 :    -2.126116613189290   Change is   -0.001248812502883
 Root      2 :     4.550030163193759   Change is   -0.001289181428197
 Root      3 :     5.016805627326098   Change is   -0.000959111302335
 Cease iterating as an instability has been found.
 ***********************************************************************
 Stability analysis using <AA,BB:AA,BB> singles matrix:
 ***********************************************************************
 1PDM for each excited state written to RWF  633
 Ground to excited state transition densities written to RWF  633

 Eigenvectors of the stability matrix:
 
 Excited state symmetry could not be determined.
 Eigenvector   1:  3.000-?Sym  Eigenvalue=-0.0781333  <S**2>=2.000
     12A -> 14A        0.65359
     12A -> 20A       -0.19511
     12A -> 27A        0.11829
     12B -> 14B       -0.65359
     12B -> 20B        0.19511
     12B -> 27B       -0.11829
 
 Excited state symmetry could not be determined.
 Eigenvector   2:  3.000-?Sym  Eigenvalue= 0.1672105  <S**2>=2.000
     11A -> 14A       -0.31623
     12A -> 13A        0.57548
     12A -> 16A        0.11954
     11B -> 14B        0.31623
     12B -> 13B       -0.57548
     12B -> 16B       -0.11954
 
 Excited state symmetry could not be determined.
 Eigenvector   3:  3.000-?Sym  Eigenvalue= 0.1843642  <S**2>=2.000
     11A -> 14A        0.52637
     12A -> 13A        0.30900
     12A -> 15A        0.23474
     12A -> 17A       -0.10523
     11B -> 14B       -0.52637
     12B -> 13B       -0.30900
     12B -> 15B       -0.23474
     12B -> 17B        0.10523
 The wavefunction has an internal instability.
 Leave Link  914 at Tue Jan  3 09:03:46 2023, MaxMem=   536870912 cpu:               5.1 elap:               2.6
 (Enter /opt/software/gaussian/g16.c01/l508.exe)
 Keep R1 and R2 ints in memory in canonical form, NReq=49665617.
 FoFCou: FMM=F IPFlag=           0 FMFlag=           0 FMFlg1=           0
         NFxFlg=           0 DoJE=F BraDBF=F KetDBF=F FulRan=T
         wScrn=  0.000000 ICntrl=       600 IOpCl=  0 I1Cent=           0 NGrid=           0
         NMat0=    1 NMatS0=   6903 NMatT0=    0 NMatD0=    1 NMtDS0=    0 NMtDT0=    0
 Symmetry not used in FoFCou.
 Two-electron integral symmetry not used.
 Very tight linear equation convergence will be used.
 UHF wavefunction.
 Quadratic Convergence SCF Method.
 Line search only if initial step raises energy.
 Perform preliminary linear searches along instability eigenvector.
     ILin= 1 X=0.000D+00 Y=-1.490376027615D+02 DE= 0.00D+00
     ILin= 2 X=1.000D-01 Y=-1.490383693137D+02 DE=-7.67D-04
     ILin= 3 X=1.414D-01 Y=-1.490391066071D+02 DE=-1.50D-03
     ILin= 4 X=2.000D-01 Y=-1.490404944199D+02 DE=-2.89D-03
     ILin= 5 X=2.828D-01 Y=-1.490429299045D+02 DE=-5.33D-03
     ILin= 6 X=4.000D-01 Y=-1.490464948284D+02 DE=-8.89D-03
     ILin= 7 X=5.657D-01 Y=-1.490488184795D+02 DE=-1.12D-02
     ILin= 8 X=8.000D-01 Y=-1.490373075769D+02 DE= 2.95D-04
     An  expanding polynomial of degree  8 produced  0.5493
 Iteration F X= 5.493D-01 EE=-1.490488557714651D+02
     ILin= 1 X=0.000D+00 Y=-1.490376027615D+02 DE= 0.00D+00
     ILin= 2 X=1.000D-01 Y=-1.490383693032D+02 DE=-7.67D-04
     ILin= 3 X=1.414D-01 Y=-1.490391065773D+02 DE=-1.50D-03
 The two search directions are symmetric.
 Iteration B X= 5.493D-01 EE=-1.490488557714651D+02
 Take forward step, X= 5.493D-01 Step= 5.493D-01
 Iteration   1 EE= -149.048855752574                                    Grad=5.220D-02 Max rot=    0.8104 deg.
 Gradient too large for Newton-Raphson -- use scaled steepest descent instead.
 Alpha Gap=     0.424 HL deriv= 2.01D-05
  Beta Gap=     0.464 HL deriv= 6.50D-07
     ILin= 1 X=0.000D+00 Y=-1.490488557526D+02 DE= 0.00D+00 F= -4.05D-03
     ILin= 2 X=3.000D-01 Y=-1.490499406407D+02 DE=-1.08D-03 F= -3.18D-03 OKLS=F
     ILin= 3 X=6.000D-01 Y=-1.490507643381D+02 DE=-1.91D-03 F= -2.31D-03
     ILin= 4 X=1.200D+00 Y=-1.490516280799D+02 DE=-2.77D-03 F= -5.69D-04
     ILin= 5 X=2.400D+00 Y=-1.490502211980D+02 DE=-1.37D-03 F=  2.91D-03
     An  expanding polynomial of degree  5 produced  1.3960
 Iteration   2 EE= -149.051683820160     Delta-E=       -0.002828067587 Grad=2.780D-02 Max rot=    0.6334 deg.
 Gradient too large for Newton-Raphson -- use scaled steepest descent instead.
 Alpha Gap=     0.422 HL deriv= 4.45D-06
  Beta Gap=     0.460 HL deriv= 6.86D-07
     ILin= 1 X=0.000D+00 Y=-1.490516838202D+02 DE= 0.00D+00 F= -1.38D-03
     ILin= 2 X=6.000D-01 Y=-1.490522484258D+02 DE=-5.65D-04 F= -4.97D-04 OKLS=F
     ILin= 3 X=1.300D+00 Y=-1.490522334566D+02 DE=-5.50D-04 F=  5.40D-04
     An  expanding polynomial of degree  3 produced  0.9356
 Iteration   3 EE= -149.052331804274     Delta-E=       -0.000647984114 Grad=2.106D-02 Max rot=    0.2877 deg.
 Gradient too large for Newton-Raphson -- use scaled steepest descent instead.
 Alpha Gap=     0.425 HL deriv= 2.77D-06
  Beta Gap=     0.469 HL deriv= 7.20D-07
     ILin= 1 X=0.000D+00 Y=-1.490523318043D+02 DE= 0.00D+00 F= -6.47D-04
     ILin= 2 X=1.100D+00 Y=-1.490527373998D+02 DE=-4.06D-04 F= -9.01D-05 OKLS=T
     Reject lnstep IMin12=  1  2 Big=T Turn=F Min= 1.220D+00 FVal=-1.490527423876D+02 Lims=  0.00D+00  1.10D+00
     ILin= 3 X=2.300D+00 Y=-1.490524804795D+02 DE=-1.49D-04 F=  5.18D-04
     An  expanding polynomial of degree  3 produced  1.2775
 Iteration   4 EE= -149.052745403566     Delta-E=       -0.000413599292 Grad=1.772D-02 Max rot=    0.4155 deg.
 Gradient too large for Newton-Raphson -- use scaled steepest descent instead.
 Alpha Gap=     0.425 HL deriv= 2.11D-06
  Beta Gap=     0.468 HL deriv= 4.29D-07
     ILin= 1 X=0.000D+00 Y=-1.490527454036D+02 DE= 0.00D+00 F= -6.06D-04
     ILin= 2 X=1.100D+00 Y=-1.490530253864D+02 DE=-2.80D-04 F=  9.67D-05 OKLS=T
     Accept linear search using points  1 and  2.
     An  expanding polynomial of degree  2 produced  0.9736
 Iteration   5 EE= -149.053032505028     Delta-E=       -0.000287101463 Grad=1.522D-02 Max rot=    0.2010 deg.
 Gradient too large for Newton-Raphson -- use scaled steepest descent instead.
 Alpha Gap=     0.426 HL deriv= 1.16D-06
  Beta Gap=     0.474 HL deriv= 4.99D-07
     ILin= 1 X=0.000D+00 Y=-1.490530325050D+02 DE= 0.00D+00 F= -3.33D-04
     ILin= 2 X=1.100D+00 Y=-1.490532295085D+02 DE=-1.97D-04 F= -2.54D-05 OKLS=T
     Reject lnstep IMin12=  1  2 Big=T Turn=F Min= 1.165D+00 FVal=-1.490532302651D+02 Lims=  0.00D+00  1.10D+00
     ILin= 3 X=2.200D+00 Y=-1.490530883070D+02 DE=-5.58D-05 F=  2.82D-04
     An  expanding polynomial of degree  3 produced  1.1907
     Minimum is close to point  2 DX=  9.07D-02 DF= -1.15D-06 DXR=  7.62D-02 DFR=  5.84D-03 which will be used.
 Iteration   6 EE= -149.053229508543     Delta-E=       -0.000197003514 Grad=1.052D-02 Max rot=    0.2687 deg.
 Gradient too large for Newton-Raphson -- use scaled steepest descent instead.
 Alpha Gap=     0.426 HL deriv= 1.14D-06
  Beta Gap=     0.473 HL deriv= 2.78D-07
     ILin= 1 X=0.000D+00 Y=-1.490532295085D+02 DE= 0.00D+00 F= -2.39D-04
     ILin= 2 X=1.100D+00 Y=-1.490533676702D+02 DE=-1.38D-04 F= -1.24D-05 OKLS=T
     Reject lnstep IMin12=  1  2 Big=T Turn=F Min= 1.144D+00 FVal=-1.490533679194D+02 Lims=  0.00D+00  1.10D+00
     ILin= 3 X=2.200D+00 Y=-1.490532567643D+02 DE=-2.73D-05 F=  2.14D-04
     An  expanding polynomial of degree  3 produced  1.1602
     Minimum is close to point  2 DX=  6.02D-02 DF= -3.73D-07 DXR=  5.19D-02 DFR=  2.70D-03 which will be used.
 Iteration   7 EE= -149.053367670248     Delta-E=       -0.000138161705 Grad=1.103D-02 Max rot=    0.1367 deg.
 Gradient too large for Newton-Raphson -- use scaled steepest descent instead.
 Alpha Gap=     0.426 HL deriv= 5.95D-07
  Beta Gap=     0.478 HL deriv= 3.13D-07
     ILin= 1 X=0.000D+00 Y=-1.490533676702D+02 DE= 0.00D+00 F= -1.71D-04
     ILin= 2 X=1.200D+00 Y=-1.490534637367D+02 DE=-9.61D-05 F=  1.06D-05 OKLS=T
     Accept linear search using points  1 and  2.
     An  expanding polynomial of degree  2 produced  1.1546
     Minimum is close to point  2 DX= -4.54D-02 DF= -2.00D-07 DXR=  3.93D-02 DFR=  2.08D-03 which will be used.
 Iteration   8 EE= -149.053463736660     Delta-E=       -0.000096066412 Grad=8.709D-03 Max rot=    0.2096 deg.
 QCNR:  CnvC1=5.02D-10 CnvC2=5.02D-09
 LinEq1:  Iter=  0 NonCon=     1 RMS=2.11D-04 Max=8.17D-03 NDo=     1
 AX will form     1 AO Fock derivatives at one time.
 LinEq1:  Iter=  1 NonCon=     1 RMS=1.24D-04 Max=2.07D-03 NDo=     1
 LinEq1:  Iter=  2 NonCon=     1 RMS=6.46D-06 Max=1.68D-04 NDo=     1
 LinEq1:  Iter=  3 NonCon=     1 RMS=1.93D-06 Max=4.15D-05 NDo=     1
 LinEq1:  Iter=  4 NonCon=     1 RMS=1.09D-06 Max=2.67D-05 NDo=     1
 LinEq1:  Iter=  5 NonCon=     1 RMS=1.89D-07 Max=2.74D-06 NDo=     1
 LinEq1:  Iter=  6 NonCon=     1 RMS=6.83D-08 Max=1.16D-06 NDo=     1
 LinEq1:  Iter=  7 NonCon=     1 RMS=2.20D-08 Max=2.76D-07 NDo=     1
 LinEq1:  Iter=  8 NonCon=     1 RMS=5.22D-09 Max=5.76D-08 NDo=     1
 LinEq1:  Iter=  9 NonCon=     1 RMS=1.45D-09 Max=1.89D-08 NDo=     1
 LinEq1:  Iter= 10 NonCon=     0 RMS=3.23D-10 Max=3.22D-09 NDo=     1
 Linear equations converged to 5.020D-10 5.020D-09 after    10 iterations.
 Angle between quadratic step and gradient=  56.77 degrees.
     ILin= 1 X=0.000D+00 Y=-1.490534637367D+02 DE= 0.00D+00 F= -4.44D-04
     ILin= 2 X=1.000D+00 Y=-1.490536794483D+02 DE=-2.16D-04 F=  1.95D-05 OKLS=T
     Accept linear search using points  1 and  2.
     An  expanding polynomial of degree  2 produced  0.9597
     Minimum is close to point  2 DX= -4.03D-02 DF= -3.92D-07 DXR=  4.20D-02 DFR=  1.81D-03 which will be used.
 Iteration   9 EE= -149.053679448298     Delta-E=       -0.000215711639 Grad=4.093D-04 Max rot=    0.0095 deg.
 QCNR:  CnvC1=5.02D-10 CnvC2=5.02D-09
 LinEq1:  Iter=  0 NonCon=     1 RMS=1.04D-05 Max=3.21D-04 NDo=     1
 LinEq1:  Iter=  1 NonCon=     1 RMS=3.24D-06 Max=1.05D-04 NDo=     1
 LinEq1:  Iter=  2 NonCon=     1 RMS=1.38D-06 Max=2.52D-05 NDo=     1
 LinEq1:  Iter=  3 NonCon=     1 RMS=3.58D-07 Max=9.67D-06 NDo=     1
 LinEq1:  Iter=  4 NonCon=     1 RMS=1.56D-07 Max=3.80D-06 NDo=     1
 LinEq1:  Iter=  5 NonCon=     1 RMS=6.34D-08 Max=6.54D-07 NDo=     1
 LinEq1:  Iter=  6 NonCon=     1 RMS=2.48D-08 Max=2.99D-07 NDo=     1
 LinEq1:  Iter=  7 NonCon=     1 RMS=7.79D-09 Max=1.34D-07 NDo=     1
 LinEq1:  Iter=  8 NonCon=     1 RMS=2.71D-09 Max=3.18D-08 NDo=     1
 LinEq1:  Iter=  9 NonCon=     1 RMS=6.38D-10 Max=8.49D-09 NDo=     1
 LinEq1:  Iter= 10 NonCon=     0 RMS=1.39D-10 Max=1.69D-09 NDo=     1
 Linear equations converged to 5.020D-10 5.020D-09 after    10 iterations.
 Angle between quadratic step and gradient=  45.82 degrees.
     ILin= 1 X=0.000D+00 Y=-1.490536794483D+02 DE= 0.00D+00 F= -1.24D-06
     ILin= 2 X=1.000D+00 Y=-1.490536800688D+02 DE=-6.21D-07 F= -4.81D-09 OKLS=T
     Reject lnstep IMin12=  1  2 Big=T Turn=F Min= 1.004D+00 FVal=-1.490536800688D+02 Lims=  0.00D+00  1.00D+00
     ILin= 3 X=2.000D+00 Y=-1.490536794611D+02 DE=-1.28D-08 F=  1.22D-06
     An  expanding polynomial of degree  3 produced  1.0052
     Minimum is close to point  2 DX=  5.23D-03 DF= -1.68D-11 DXR=  5.20D-03 DFR=  2.70D-05 which will be used.
 Iteration  10 EE= -149.053680068807     Delta-E=       -0.000000620509 Grad=1.443D-06 Max rot=    0.0000 deg.
 QCNR:  CnvC1=1.44D-11 CnvC2=1.44D-10
 LinEq1:  Iter=  0 NonCon=     1 RMS=4.21D-08 Max=1.39D-06 NDo=     1
 LinEq1:  Iter=  1 NonCon=     1 RMS=7.89D-09 Max=1.63D-07 NDo=     1
 LinEq1:  Iter=  2 NonCon=     1 RMS=2.96D-09 Max=7.39D-08 NDo=     1
 LinEq1:  Iter=  3 NonCon=     1 RMS=1.16D-09 Max=1.93D-08 NDo=     1
 LinEq1:  Iter=  4 NonCon=     1 RMS=5.32D-10 Max=1.04D-08 NDo=     1
 LinEq1:  Iter=  5 NonCon=     1 RMS=1.74D-10 Max=2.79D-09 NDo=     1
 LinEq1:  Iter=  6 NonCon=     1 RMS=6.43D-11 Max=8.70D-10 NDo=     1
 LinEq1:  Iter=  7 NonCon=     1 RMS=2.09D-11 Max=2.77D-10 NDo=     1
 LinEq1:  Iter=  8 NonCon=     0 RMS=8.39D-12 Max=1.05D-10 NDo=     1
 Linear equations converged to 1.443D-11 1.443D-10 after     8 iterations.
 Angle between quadratic step and gradient=  40.50 degrees.
     ILin= 1 X=0.000D+00 Y=-1.490536800688D+02 DE= 0.00D+00 F= -2.00D-11
     ILin= 2 X=1.000D+00 Y=-1.490536800688D+02 DE=-9.95D-12
 Iteration  11 EE= -149.053680068817     Delta-E=       -0.000000000010 Grad=1.708D-08 Max rot=    0.0000 deg.
 Rotation gradient small -- convergence achieved.
 SCF Done:  E(UHF) =  -149.053680069     a.u. after   11 cycles
            Convg  =    0.1708D-07                    60 Fock formations.
              S**2 =  0.6476                  -V/T =  2.0002
 <Sx>= 0.0000 <Sy>= 0.0000 <Sz>= 0.0000 <S**2>= 0.6476 S= 0.4474
 <L.S>=  0.00000000000    
 Annihilation of the first spin contaminant:
 S**2 before annihilation     0.6476,   after     0.0641
 Leave Link  508 at Tue Jan  3 09:03:53 2023, MaxMem=   536870912 cpu:               7.9 elap:               6.6
 (Enter /opt/software/gaussian/g16.c01/l801.exe)
 Range of M.O.s used for correlation:     1   117
 NBasis=   117 NAE=    12 NBE=    12 NFC=     0 NFV=     0
 NROrb=    117 NOA=    12 NOB=    12 NVA=   105 NVB=   105

 **** Warning!!: The largest alpha MO coefficient is  0.13848932D+02


 **** Warning!!: The largest beta MO coefficient is  0.13869478D+02

 Leave Link  801 at Tue Jan  3 09:03:53 2023, MaxMem=   536870912 cpu:               0.1 elap:               0.1
 (Enter /opt/software/gaussian/g16.c01/l914.exe)
 UHF ground state
 Doing stability rather than CIS.
 Keep R1 and R2 ints in memory in canonical form, NReq=49665557.
 FoFCou: FMM=F IPFlag=           0 FMFlag=           0 FMFlg1=           0
         NFxFlg=           0 DoJE=F BraDBF=F KetDBF=F FulRan=T
         wScrn=  0.000000 ICntrl=       600 IOpCl=  0 I1Cent=           0 NGrid=           0
         NMat0=    1 NMatS0=   6903 NMatT0=    0 NMatD0=    1 NMtDS0=    0 NMtDT0=    0
 Symmetry not used in FoFCou.
 Two-electron integral symmetry not used.
 MDV=   536870912 DFT=F DoStab=T Mixed=F DoRPA=F DoScal=F NonHer=F
 Making orbital integer symmetry assigments:
    12 initial guesses have been made.
 Convergence on wavefunction:    0.001000000000000
 Davidson Disk Diagonalization:  ConvIn= 1.00D-03 SkipCon=T Conv= 1.00D-03.
 Max sub-space:  2000 roots to seek:    12 dimension of matrix:         2520
 Iteration     1 Dimension    12 NMult     0 NNew     12
 CISAX will form    12 AO SS matrices at one time.
 NMat=    12 NSing=    12 JSym2X= 0.
 Excitation Energies [eV] at current iteration:
 Root      1 :     4.721676559810984
 Root      2 :     5.373368524396421
 Root      3 :     5.693179825413021
 Root      4 :     6.527524093127921
 Root      5 :     7.220898307251376
 Root      6 :     8.051745431892448
 Root      7 :     8.202747622984692
 Root      8 :     8.383139681101245
 Root      9 :     8.528904911904325
 Root     10 :     9.216406824013944
 Root     11 :     9.370136122005844
 Root     12 :    10.484381912022037
 Iteration     2 Dimension    24 NMult    12 NNew     12
 CISAX will form    12 AO SS matrices at one time.
 NMat=    12 NSing=    12 JSym2X= 0.
 Root      1 not converged, maximum delta is    0.223628456560732
 Excitation Energies [eV] at current iteration:
 Root      1 :     3.405370692401246   Change is   -1.316305867409737
 Root      2 :     4.468993963600482   Change is   -0.904374560795938
 Root      3 :     5.358986702873991   Change is   -0.334193122539031
 Root      4 :     5.738359080763223   Change is   -2.644780600338022
 Root      5 :     6.087685035109963   Change is   -0.439839058017959
 Root      6 :     6.655761905192019   Change is   -0.565136402059357
 Root      7 :     7.545289954427489   Change is   -0.506455477464957
 Root      8 :     7.662116929600645   Change is   -0.540630693384046
 Root      9 :     8.090416210795281   Change is   -0.438488701109045
 Root     10 :     8.174332907032275   Change is   -1.195803214973569
 Root     11 :     8.830788652195849   Change is   -0.385618171818096
 Root     12 :     9.898628533399188   Change is   -0.585753378622848
 Iteration     3 Dimension    27 NMult    24 NNew      3
 CISAX will form     3 AO SS matrices at one time.
 NMat=     3 NSing=     3 JSym2X= 0.
 Root      1 not converged, maximum delta is    0.160443645397826
 Excitation Energies [eV] at current iteration:
 Root      1 :     2.895198607356833   Change is   -0.510172085044413
 Root      2 :     4.367584333059114   Change is   -0.101409630541368
 Root      3 :     5.333503267755700   Change is   -0.025483435118291
 Iteration     4 Dimension    30 NMult    27 NNew      3
 CISAX will form     3 AO SS matrices at one time.
 NMat=     3 NSing=     3 JSym2X= 0.
 Root      1 not converged, maximum delta is    0.090952121751121
 Excitation Energies [eV] at current iteration:
 Root      1 :     2.750565307892702   Change is   -0.144633299464131
 Root      2 :     4.354913628756568   Change is   -0.012670704302547
 Root      3 :     5.106875411662958
 Iteration     5 Dimension    33 NMult    30 NNew      3
 CISAX will form     3 AO SS matrices at one time.
 NMat=     3 NSing=     3 JSym2X= 0.
 Root      1 not converged, maximum delta is    0.034885175380019
 Excitation Energies [eV] at current iteration:
 Root      1 :     2.722647811628597   Change is   -0.027917496264106
 Root      2 :     4.353553202350850   Change is   -0.001360426405717
 Root      3 :     4.541797865889970   Change is   -0.565077545772988
 Iteration     6 Dimension    36 NMult    33 NNew      3
 CISAX will form     3 AO SS matrices at one time.
 NMat=     3 NSing=     3 JSym2X= 0.
 Root      1 not converged, maximum delta is    0.008966364569648
 Excitation Energies [eV] at current iteration:
 Root      1 :     2.717958449433969   Change is   -0.004689362194627
 Root      2 :     4.353343819890461   Change is   -0.000209382460388
 Root      3 :     4.441448720127894   Change is   -0.100349145762077
 Iteration     7 Dimension    39 NMult    36 NNew      3
 CISAX will form     3 AO SS matrices at one time.
 NMat=     3 NSing=     3 JSym2X= 0.
 Root      1 not converged, maximum delta is    0.001982489107726
 Excitation Energies [eV] at current iteration:
 Root      1 :     2.717165969778035   Change is   -0.000792479655934
 Root      2 :     4.353316862552173   Change is   -0.000026957338288
 Root      3 :     4.421460182028654   Change is   -0.019988538099239
 Iteration     8 Dimension    42 NMult    39 NNew      3
 CISAX will form     3 AO SS matrices at one time.
 NMat=     3 NSing=     3 JSym2X= 0.
 Root      1 has converged.
 Excitation Energies [eV] at current iteration:
 Root      1 :     2.717028679744534   Change is   -0.000137290033501
 Root      2 :     4.353314132939709   Change is   -0.000002729612464
 Root      3 :     4.416299670848923   Change is   -0.005160511179731
 Convergence achieved on expansion vectors.
 ***********************************************************************
 Stability analysis using <AA,BB:AA,BB> singles matrix:
 ***********************************************************************
 1PDM for each excited state written to RWF  633
 Ground to excited state transition densities written to RWF  633

 Eigenvectors of the stability matrix:
 
 Excited state symmetry could not be determined.
 Eigenvector   1:  2.015-?Sym  Eigenvalue= 0.0998490  <S**2>=0.765
     10A -> 14A       -0.29128
     12A -> 14A        0.86949
     12A -> 20A       -0.12131
     12A -> 28A        0.14757
     12B -> 14B        0.12642
     12B -> 21B       -0.10644
 The wavefunction is stable under the perturbations considered.
 Leave Link  914 at Tue Jan  3 09:03:56 2023, MaxMem=   536870912 cpu:               6.1 elap:               3.0
 (Enter /opt/software/gaussian/g16.c01/l508.exe)
 The wavefunction is already stable.
 Leave Link  508 at Tue Jan  3 09:03:56 2023, MaxMem=   536870912 cpu:               0.0 elap:               0.0
 (Enter /opt/software/gaussian/g16.c01/l601.exe)
 Copying SCF densities to generalized density rwf, IOpCl= 1 IROHF=0.

 **********************************************************************

            Population analysis using the SCF Density.

 **********************************************************************

 Alpha  occ. eigenvalues --  -15.64791 -15.54448 -11.25151  -1.33940  -1.05849
 Alpha  occ. eigenvalues --   -0.85243  -0.75124  -0.64705  -0.57322  -0.56237
 Alpha  occ. eigenvalues --   -0.43238  -0.29818
 Alpha virt. eigenvalues --    0.12023   0.16364   0.18291   0.19734   0.22584
 Alpha virt. eigenvalues --    0.27003   0.31443   0.34566   0.39762   0.44050
 Alpha virt. eigenvalues --    0.52127   0.53264   0.55452   0.57655   0.61072
 Alpha virt. eigenvalues --    0.61361   0.63202   0.63593   0.69980   0.72891
 Alpha virt. eigenvalues --    0.73533   0.78064   0.84407   0.89723   0.94374
 Alpha virt. eigenvalues --    1.09046   1.19782   1.21435   1.27153   1.32117
 Alpha virt. eigenvalues --    1.42998   1.50070   1.58429   1.58488   1.69396
 Alpha virt. eigenvalues --    1.72872   1.73779   1.77072   1.85777   1.92847
 Alpha virt. eigenvalues --    1.93121   2.01175   2.04188   2.05192   2.13528
 Alpha virt. eigenvalues --    2.23123   2.26794   2.30637   2.36578   2.40354
 Alpha virt. eigenvalues --    2.42074   2.47896   2.49373   2.60480   2.64596
 Alpha virt. eigenvalues --    2.72706   2.79252   2.88151   2.95371   3.03993
 Alpha virt. eigenvalues --    3.08967   3.11856   3.17955   3.22824   3.26366
 Alpha virt. eigenvalues --    3.37940   3.44569   3.49183   3.56281   3.57187
 Alpha virt. eigenvalues --    3.59566   3.79081   3.87010   3.99385   4.05635
 Alpha virt. eigenvalues --    4.10654   4.12225   4.32427   4.33509   4.48736
 Alpha virt. eigenvalues --    4.55718   4.67748   4.85369   4.96727   5.01338
 Alpha virt. eigenvalues --    5.03498   5.12548   5.14187   5.18078   5.20419
 Alpha virt. eigenvalues --    5.33252   5.39680   5.46305   5.57281   5.58520
 Alpha virt. eigenvalues --    5.68224   6.01636   6.02422   6.15585   6.40342
 Alpha virt. eigenvalues --    6.55136   7.32777  23.49327  32.99548  33.51722
  Beta  occ. eigenvalues --  -15.65406 -15.56777 -11.23236  -1.36142  -1.08126
  Beta  occ. eigenvalues --   -0.83850  -0.75176  -0.64766  -0.61155  -0.56726
  Beta  occ. eigenvalues --   -0.46082  -0.35465
  Beta virt. eigenvalues --    0.11912   0.14929   0.18301   0.20266   0.22799
  Beta virt. eigenvalues --    0.27242   0.32715   0.39909   0.41360   0.43172
  Beta virt. eigenvalues --    0.51221   0.52040   0.55445   0.56804   0.59074
  Beta virt. eigenvalues --    0.60379   0.63288   0.65107   0.69615   0.71904
  Beta virt. eigenvalues --    0.73871   0.80997   0.83176   0.90138   0.97272
  Beta virt. eigenvalues --    1.10781   1.18129   1.21865   1.28427   1.29001
  Beta virt. eigenvalues --    1.42729   1.49751   1.58955   1.59205   1.69429
  Beta virt. eigenvalues --    1.71419   1.77053   1.79199   1.86006   1.91111
  Beta virt. eigenvalues --    1.93510   2.00745   2.04857   2.06057   2.13433
  Beta virt. eigenvalues --    2.21002   2.26482   2.30474   2.35432   2.40118
  Beta virt. eigenvalues --    2.40526   2.47292   2.47448   2.61116   2.64571
  Beta virt. eigenvalues --    2.68011   2.79624   2.88615   2.95440   3.03915
  Beta virt. eigenvalues --    3.08603   3.11735   3.19629   3.26086   3.30868
  Beta virt. eigenvalues --    3.38169   3.46971   3.51346   3.55978   3.56943
  Beta virt. eigenvalues --    3.61679   3.80353   3.87401   3.98804   4.05809
  Beta virt. eigenvalues --    4.10824   4.10899   4.32054   4.33158   4.47434
  Beta virt. eigenvalues --    4.52687   4.66803   4.85680   4.93263   4.99676
  Beta virt. eigenvalues --    5.02941   5.10112   5.12052   5.14614   5.16757
  Beta virt. eigenvalues --    5.30490   5.38697   5.45634   5.57545   5.57946
  Beta virt. eigenvalues --    5.67502   6.01004   6.02164   6.13889   6.39719
  Beta virt. eigenvalues --    6.54823   7.31802  23.50625  32.98066  33.51344
          Condensed to atoms (all electrons):
               1          2          3          4          5          6
     1  C    5.156651   0.342614  -0.096613   0.008912   0.419646   0.421827
     2  N    0.342614   6.282326   0.218560  -0.025525  -0.037422  -0.033380
     3  N   -0.096613   0.218560   6.987691   0.310707   0.005065   0.000485
     4  H    0.008912  -0.025525   0.310707   0.528553  -0.000601  -0.000622
     5  H    0.419646  -0.037422   0.005065  -0.000601   0.502433  -0.022565
     6  H    0.421827  -0.033380   0.000485  -0.000622  -0.022565   0.480850
     7  H   -0.058126   0.385778  -0.031105  -0.021522  -0.005001   0.006157
               7
     1  C   -0.058126
     2  N    0.385778
     3  N   -0.031105
     4  H   -0.021522
     5  H   -0.005001
     6  H    0.006157
     7  H    0.486961
          Atomic-Atomic Spin Densities.
               1          2          3          4          5          6
     1  C    1.141205  -0.182840  -0.017767   0.000145  -0.002059  -0.004643
     2  N   -0.182840  -0.219324   0.260469  -0.003796  -0.001179   0.000242
     3  N   -0.017767   0.260469  -0.949546   0.009018  -0.000739   0.002981
     4  H    0.000145  -0.003796   0.009018   0.038608  -0.000036  -0.000117
     5  H   -0.002059  -0.001179  -0.000739  -0.000036  -0.077616   0.002909
     6  H   -0.004643   0.000242   0.002981  -0.000117   0.002909  -0.072614
     7  H   -0.001882   0.004677  -0.003982  -0.000740   0.000910  -0.000025
               7
     1  C   -0.001882
     2  N    0.004677
     3  N   -0.003982
     4  H   -0.000740
     5  H    0.000910
     6  H   -0.000025
     7  H    0.016198
 Mulliken charges and spin densities:
               1          2
     1  C   -0.194912   0.932158
     2  N   -0.132950  -0.141751
     3  N   -0.394788  -0.699568
     4  H    0.200099   0.043082
     5  H    0.138445  -0.077809
     6  H    0.147247  -0.071268
     7  H    0.236859   0.015156
 Sum of Mulliken charges =   0.00000  -0.00000
 Mulliken charges and spin densities with hydrogens summed into heavy atoms:
               1          2
     1  C    0.090781   0.783080
     2  N    0.103908  -0.126594
     3  N   -0.194690  -0.656486
 Electronic spatial extent (au):  <R**2>=            596.9147
 Charge=              0.0000 electrons
 Dipole moment (field-independent basis, Debye):
    X=              0.5623    Y=              0.7597    Z=              2.8198  Tot=              2.9740
 Quadrupole moment (field-independent basis, Debye-Ang):
   XX=            -12.5385   YY=            -21.2696   ZZ=            -22.3126
   XY=              2.1142   XZ=              7.7661   YZ=             -0.3644
 Traceless Quadrupole moment (field-independent basis, Debye-Ang):
   XX=              6.1684   YY=             -2.5627   ZZ=             -3.6057
   XY=              2.1142   XZ=              7.7661   YZ=             -0.3644
 Octapole moment (field-independent basis, Debye-Ang**2):
  XXX=            -82.3225  YYY=             10.6576  ZZZ=             40.9066  XYY=            -45.0743
  XXY=              8.1662  XXZ=             28.6369  XZZ=            -51.6938  YZZ=              5.4280
  YYZ=             11.7620  XYZ=             -2.1141
 Hexadecapole moment (field-independent basis, Debye-Ang**3):
 XXXX=           -442.2833 YYYY=            -29.0793 ZZZZ=           -113.6960 XXXY=             34.9802
 XXXZ=            121.2680 YYYX=             29.0255 YYYZ=            -11.9190 ZZZX=            116.6142
 ZZZY=            -14.1870 XXYY=           -123.1617 XXZZ=           -151.2755 YYZZ=            -23.0366
 XXYZ=             -8.9176 YYXZ=             33.6751 ZZXY=             15.1141
 N-N= 7.338254906404D+01 E-N=-4.958029665420D+02  KE= 1.490182305657D+02
                          Isotropic Fermi Contact Couplings
        Atom                 a.u.       MegaHertz       Gauss      10(-4) cm-1
     1  C(13)              0.12670      71.21777      25.41227      23.75569
     2  N(14)             -0.05335      -8.61820      -3.07519      -2.87472
     3  N(14)             -0.17329     -27.99559      -9.98952      -9.33832
     4  H(1)               0.01556      34.78222      12.41116      11.60210
     5  H(1)              -0.02191     -48.97210     -17.47446     -16.33533
     6  H(1)              -0.02194     -49.03463     -17.49678     -16.35619
     7  H(1)               0.00538      12.03334       4.29379       4.01389
 --------------------------------------------------------
       Center         ----  Spin Dipole Couplings  ----
                      3XX-RR        3YY-RR        3ZZ-RR
 --------------------------------------------------------
     1   Atom       -0.471637      0.808670     -0.337033
     2   Atom        0.197769     -0.338428      0.140659
     3   Atom        0.768546     -1.447602      0.679056
     4   Atom       -0.075062      0.015280      0.059782
     5   Atom       -0.052781      0.009478      0.043302
     6   Atom       -0.041291      0.008844      0.032447
     7   Atom        0.023870      0.001052     -0.024922
 --------------------------------------------------------
                        XY            XZ            YZ
 --------------------------------------------------------
     1   Atom       -0.005620      0.009139     -0.331134
     2   Atom        0.001445     -0.007109      0.138465
     3   Atom        0.006139     -0.029197      0.614633
     4   Atom       -0.012552     -0.044882      0.012560
     5   Atom       -0.009985     -0.035916      0.009529
     6   Atom        0.013853      0.052686      0.007184
     7   Atom       -0.002474     -0.009674     -0.007575
 --------------------------------------------------------


 ---------------------------------------------------------------------------------
              Anisotropic Spin Dipole Couplings in Principal Axis System
 ---------------------------------------------------------------------------------

       Atom             a.u.   MegaHertz   Gauss  10(-4) cm-1        Axes

              Baa    -0.4728   -63.450   -22.641   -21.165  0.9879 -0.0347 -0.1511
     1 C(13)  Bbb    -0.4247   -56.990   -20.335   -19.010  0.1550  0.2568  0.9540
              Bcc     0.8975   120.440    42.976    40.175 -0.0057  0.9658 -0.2591
 
              Baa    -0.3756   -14.486    -5.169    -4.832 -0.0056  0.9658 -0.2591
     2 N(14)  Bbb     0.1759     6.783     2.420     2.263  0.2841  0.2500  0.9256
              Bcc     0.1997     7.702     2.748     2.569  0.9588 -0.0684 -0.2758
 
              Baa    -1.6125   -62.192   -22.192   -20.745 -0.0057  0.9658 -0.2591
     3 N(14)  Bbb     0.7602    29.318    10.461     9.779  0.9530  0.0837  0.2911
              Bcc     0.8524    32.874    11.730    10.966 -0.3028  0.2453  0.9209
 
              Baa    -0.0893   -47.655   -17.004   -15.896  0.9563  0.0810  0.2810
     4 H(1)   Bbb     0.0120     6.394     2.282     2.133 -0.0057  0.9658 -0.2591
              Bcc     0.0773    41.261    14.723    13.763 -0.2924  0.2462  0.9241
 
              Baa    -0.0653   -34.836   -12.430   -11.620  0.9480  0.0876  0.3059
     5 H(1)   Bbb     0.0070     3.725     1.329     1.242 -0.0057  0.9658 -0.2590
              Bcc     0.0583    31.111    11.101    10.378 -0.3181  0.2438  0.9162
 
              Baa    -0.0698   -37.224   -13.283   -12.417  0.8862 -0.1152 -0.4487
     6 H(1)   Bbb     0.0068     3.647     1.301     1.216 -0.0057  0.9658 -0.2592
              Bcc     0.0629    33.578    11.981    11.200  0.4632  0.2322  0.8553
 
              Baa    -0.0289   -15.399    -5.495    -5.136  0.1860  0.2557  0.9487
     7 H(1)   Bbb     0.0031     1.654     0.590     0.552 -0.0056  0.9658 -0.2592
              Bcc     0.0258    13.745     4.905     4.585  0.9825 -0.0429 -0.1811
 

 ---------------------------------------------------------------------------------

 No NMR shielding tensors so no spin-rotation constants.
 Leave Link  601 at Tue Jan  3 09:03:56 2023, MaxMem=   536870912 cpu:               0.5 elap:               0.2
 (Enter /opt/software/gaussian/g16.c01/l9999.exe)

 Test job not archived.
 1\1\GINC-GRA738\Stability\UHF\Gen\C1H4N2\BHAVUK\03-Jan-2023\0\\#p uhf/
 gen stable=opt scf=(maxcycle=900,verytightlineq,xqc) integral=grid=ult
 rafine symmetry=None density=current iop(99/18=-1) output=wfn\\0001_q0
 00_m01_k00_opt_uwb97xd_def2svpd/0001_q000_m01_k00_force_uhf_def2tzvp s
 table-force\\0,1\C,0,1.0726168695,-0.0701991232,-0.153012633\N,0,2.377
 9437514,-0.0897456927,-0.2543854931\N,0,3.0833554789,-0.3684697824,-1.
 3087287982\H,0,4.0640493508,-0.2926697434,-1.0476368317\H,0,0.63996287
 31,0.1851542916,0.8085260928\H,0,0.4830438364,-0.3099796861,-1.0337247
 999\H,0,2.8674978397,0.1458797364,0.6131324666\\Version=ES64L-G16RevC.
 01\HF=-149.0536801\S2=0.64761\S2-1=0.\S2A=0.06415\RMSD=3.403e-10\Dipol
 e=0.2212206,0.298891,1.1093863\Quadrupole=4.5860591,-1.9052755,-2.6807
 835,1.5718295,5.7739084,-0.2709128\PG=Unknown\\@

 Writing a WFN file to "0001_q000_m01_k00_force_uhf_def2tzvp.wfn"


 O WAD SOME POWER THE GIFTIE GIE US       
 TO SEE OURSELS AS OTHERS SEE US.....     
 IT WOULD FRAE MONIE A BLUNDER FREE US,   
                     AND FOOLISH NOTION...
 WHAT AIRS IN DRESS AND GAIT WAD LEA'E US,
                     AND EV'N DEVOTION....
                                          
              (ROBERT BURNS 'TO A LOUSE') 
 Job cpu time:       0 days  0 hours  0 minutes 25.8 seconds.
 Elapsed time:       0 days  0 hours  0 minutes 15.7 seconds.
 File lengths (MBytes):  RWF=     84 Int=      0 D2E=      0 Chk=      3 Scr=      1
 Normal termination of Gaussian 16 at Tue Jan  3 09:03:56 2023.
 Initial command:
 /opt/software/gaussian/g16.c01/l1.exe "/localscratch/bhavuk.2151342.0/Gau-16119.inp" -scrdir="/localscratch/bhavuk.2151342.0/"
 Entering Link 1 = /opt/software/gaussian/g16.c01/l1.exe PID=     16780.
  
 Copyright (c) 1988-2019, Gaussian, Inc.  All Rights Reserved.
  
 This is part of the Gaussian(R) 16 program.  It is based on
 the Gaussian(R) 09 system (copyright 2009, Gaussian, Inc.),
 the Gaussian(R) 03 system (copyright 2003, Gaussian, Inc.),
 the Gaussian(R) 98 system (copyright 1998, Gaussian, Inc.),
 the Gaussian(R) 94 system (copyright 1995, Gaussian, Inc.),
 the Gaussian 92(TM) system (copyright 1992, Gaussian, Inc.),
 the Gaussian 90(TM) system (copyright 1990, Gaussian, Inc.),
 the Gaussian 88(TM) system (copyright 1988, Gaussian, Inc.),
 the Gaussian 86(TM) system (copyright 1986, Carnegie Mellon
 University), and the Gaussian 82(TM) system (copyright 1983,
 Carnegie Mellon University). Gaussian is a federally registered
 trademark of Gaussian, Inc.
  
 This software contains proprietary and confidential information,
 including trade secrets, belonging to Gaussian, Inc.
  
 This software is provided under written license and may be
 used, copied, transmitted, or stored only in accord with that
 written license.
  
 The following legend is applicable only to US Government
 contracts under FAR:
  
                    RESTRICTED RIGHTS LEGEND
  
 Use, reproduction and disclosure by the US Government is
 subject to restrictions as set forth in subparagraphs (a)
 and (c) of the Commercial Computer Software - Restricted
 Rights clause in FAR 52.227-19.
  
 Gaussian, Inc.
 340 Quinnipiac St., Bldg. 40, Wallingford CT 06492
  
  
 ---------------------------------------------------------------
 Warning -- This program may not be used in any manner that
 competes with the business of Gaussian, Inc. or will provide
 assistance to any competitor of Gaussian, Inc.  The licensee
 of this program is prohibited from giving any competitor of
 Gaussian, Inc. access to this program.  By using this program,
 the user acknowledges that Gaussian, Inc. is engaged in the
 business of creating and licensing software in the field of
 computational chemistry and represents and warrants to the
 licensee that it is not a competitor of Gaussian, Inc. and that
 it will not use this program in any manner prohibited above.
 ---------------------------------------------------------------
  

 Cite this work as:
 Gaussian 16, Revision C.01,
 M. J. Frisch, G. W. Trucks, H. B. Schlegel, G. E. Scuseria, 
 M. A. Robb, J. R. Cheeseman, G. Scalmani, V. Barone, 
 G. A. Petersson, H. Nakatsuji, X. Li, M. Caricato, A. V. Marenich, 
 J. Bloino, B. G. Janesko, R. Gomperts, B. Mennucci, H. P. Hratchian, 
 J. V. Ortiz, A. F. Izmaylov, J. L. Sonnenberg, D. Williams-Young, 
 F. Ding, F. Lipparini, F. Egidi, J. Goings, B. Peng, A. Petrone, 
 T. Henderson, D. Ranasinghe, V. G. Zakrzewski, J. Gao, N. Rega, 
 G. Zheng, W. Liang, M. Hada, M. Ehara, K. Toyota, R. Fukuda, 
 J. Hasegawa, M. Ishida, T. Nakajima, Y. Honda, O. Kitao, H. Nakai, 
 T. Vreven, K. Throssell, J. A. Montgomery, Jr., J. E. Peralta, 
 F. Ogliaro, M. J. Bearpark, J. J. Heyd, E. N. Brothers, K. N. Kudin, 
 V. N. Staroverov, T. A. Keith, R. Kobayashi, J. Normand, 
 K. Raghavachari, A. P. Rendell, J. C. Burant, S. S. Iyengar, 
 J. Tomasi, M. Cossi, J. M. Millam, M. Klene, C. Adamo, R. Cammi, 
 J. W. Ochterski, R. L. Martin, K. Morokuma, O. Farkas, 
 J. B. Foresman, and D. J. Fox, Gaussian, Inc., Wallingford CT, 2019.
 
 ******************************************
 Gaussian 16:  ES64L-G16RevC.01  3-Jul-2019
                 3-Jan-2023 
 ******************************************
 %chk=0001_q000_m01_k00_force_uhf_def2tzvp.chk
 %nprocshared=2
 Will use up to    2 processors via shared memory.
 %mem=4GB
 ----------------------------------------------------------------------
 #p uhf/chkbasis force guess=read geom=check scf=(maxcycle=900,verytigh
 tlineq,xqc) integral=grid=ultrafine symmetry=None density=current pop=
 (cm5,hlygat,mbs,npa) output=wfx
 ----------------------------------------------------------------------
 1/10=7,29=2,30=1,38=1/1,3;
 2/12=2,15=3,40=1/2;
 3/5=7,6=2,11=2,14=-4,25=1,30=1,67=1,71=1,75=-5,116=2/1,2,3;
 4/5=1/1;
 5/5=2,7=900,8=3,13=1,17=3,38=6/2,8;
 6/7=2,8=2,9=2,10=2,15=8,20=15,22=-1,27=100,28=1,40=-1,79=1/1,2,7;
 7/29=1,30=1/1,2,3,16;
 1/10=7,30=1/3;
 99/6=200/99;
 Leave Link    1 at Tue Jan  3 09:03:57 2023, MaxMem=   536870912 cpu:               0.2 elap:               0.1
 (Enter /opt/software/gaussian/g16.c01/l101.exe)
 ----------------------------------------------------------------------
 0001_q000_m01_k00_opt_uwb97xd_def2svpd/0001_q000_m01_k00_force_uhf_def
 2tzvp stable-force
 ----------------------------------------------------------------------
 Structure from the checkpoint file:  "0001_q000_m01_k00_force_uhf_def2tzvp.chk"
 Charge =  0 Multiplicity = 1
 Z-Matrix found in chk file.
 C,0,1.0726168695,-0.0701991232,-0.153012633
 N,0,2.3779437514,-0.0897456927,-0.2543854931
 N,0,3.0833554789,-0.3684697824,-1.3087287982
[...]
     3    C    1  S      Ryd( 3S)     0.00148       0.96522
     4    C    1  S      Ryd( 4S)     0.00002       2.39863
     5    C    1  S      Ryd( 5S)     0.00000      21.57853
     6    C    1  px     Val( 2p)     0.41569       0.03805
     7    C    1  px     Ryd( 3p)     0.00335       0.86311
     8    C    1  px     Ryd( 4p)     0.00014       1.54192
     9    C    1  py     Val( 2p)     0.22933       0.09427
    10    C    1  py     Ryd( 3p)     0.00082       0.74108
    11    C    1  py     Ryd( 4p)     0.00002       1.51982
    12    C    1  pz     Val( 2p)     0.53623      -0.01771
    13    C    1  pz     Ryd( 3p)     0.00126       1.30315
    14    C    1  pz     Ryd( 4p)     0.00025       1.73530
    15    C    1  dxy    Ryd( 4d)     0.00052       3.41814
    16    C    1  dxy    Ryd( 3d)     0.00008       2.10231
    17    C    1  dxz    Ryd( 4d)     0.00041       3.83566
    18    C    1  dxz    Ryd( 3d)     0.00005       2.42971
    19    C    1  dyz    Ryd( 4d)     0.00023       3.04831
    20    C    1  dyz    Ryd( 3d)     0.00006       1.77804
    21    C    1  dx2y2  Ryd( 4d)     0.00035       3.96810
    22    C    1  dx2y2  Ryd( 3d)     0.00012       2.22455
    23    C    1  dz2    Ryd( 4d)     0.00073       3.43167
    24    C    1  dz2    Ryd( 3d)     0.00008       2.16931
    25    C    1  f(0)   Ryd( 4f)     0.00002       3.64156
    26    C    1  f(C1)  Ryd( 4f)     0.00005       4.28935
    27    C    1  f(S1)  Ryd( 4f)     0.00007       3.41242
    28    C    1  f(C2)  Ryd( 4f)     0.00011       3.77520
    29    C    1  f(S2)  Ryd( 4f)     0.00002       3.62262
    30    C    1  f(C3)  Ryd( 4f)     0.00007       3.71805
    31    C    1  f(S3)  Ryd( 4f)     0.00002       3.68172
 
    32    N    2  S      Cor( 1S)     0.99975     -15.45930
    33    N    2  S      Val( 2S)     0.61590      -0.69107
    34    N    2  S      Ryd( 3S)     0.00272       1.63863
    35    N    2  S      Ryd( 4S)     0.00001       3.07593
    36    N    2  S      Ryd( 5S)     0.00000      31.13760
    37    N    2  px     Val( 2p)     0.66171      -0.32145
    38    N    2  px     Ryd( 3p)     0.00129       0.93122
    39    N    2  px     Ryd( 4p)     0.00012       3.32447
    40    N    2  py     Val( 2p)     0.80360      -0.37614
    41    N    2  py     Ryd( 3p)     0.00304       0.70109
    42    N    2  py     Ryd( 4p)     0.00009       2.48398
    43    N    2  pz     Val( 2p)     0.63976      -0.27856
    44    N    2  pz     Ryd( 3p)     0.00229       1.11580
    45    N    2  pz     Ryd( 4p)     0.00013       3.28481
    46    N    2  dxy    Ryd( 3d)     0.00135       1.74255
    47    N    2  dxy    Ryd( 4d)     0.00004       4.74159
    48    N    2  dxz    Ryd( 3d)     0.00163       2.15871
    49    N    2  dxz    Ryd( 4d)     0.00020       5.25517
    50    N    2  dyz    Ryd( 3d)     0.00077       1.81274
    51    N    2  dyz    Ryd( 4d)     0.00004       4.71563
    52    N    2  dx2y2  Ryd( 3d)     0.00200       2.21243
    53    N    2  dx2y2  Ryd( 4d)     0.00004       5.10331
    54    N    2  dz2    Ryd( 3d)     0.00196       2.05653
    55    N    2  dz2    Ryd( 4d)     0.00006       5.01952
    56    N    2  f(0)   Ryd( 4f)     0.00003       5.08624
    57    N    2  f(C1)  Ryd( 4f)     0.00015       5.69553
    58    N    2  f(S1)  Ryd( 4f)     0.00008       4.87357
    59    N    2  f(C2)  Ryd( 4f)     0.00013       5.10570
    60    N    2  f(S2)  Ryd( 4f)     0.00005       4.97022
    61    N    2  f(C3)  Ryd( 4f)     0.00013       5.01138
    62    N    2  f(S3)  Ryd( 4f)     0.00023       4.84252
 
    63    N    3  S      Cor( 1S)     0.99984     -15.39944
    64    N    3  S      Val( 2S)     0.78371      -0.78320
    65    N    3  S      Ryd( 3S)     0.00267       1.64692
    66    N    3  S      Ryd( 4S)     0.00004       4.63576
    67    N    3  S      Ryd( 5S)     0.00000      30.06335
    68    N    3  px     Val( 2p)     0.60568      -0.14809
    69    N    3  px     Ryd( 3p)     0.00262       1.08686
    70    N    3  px     Ryd( 4p)     0.00010       3.13427
    71    N    3  py     Val( 2p)     0.94654      -0.41237
    72    N    3  py     Ryd( 3p)     0.00338       0.75159
    73    N    3  py     Ryd( 4p)     0.00004       2.36815
    74    N    3  pz     Val( 2p)     0.70251      -0.22107
    75    N    3  pz     Ryd( 3p)     0.00143       0.98019
    76    N    3  pz     Ryd( 4p)     0.00007       2.94090
    77    N    3  dxy    Ryd( 3d)     0.00070       1.56978
    78    N    3  dxy    Ryd( 4d)     0.00004       4.80641
    79    N    3  dxz    Ryd( 3d)     0.00332       1.97885
    80    N    3  dxz    Ryd( 4d)     0.00008       5.24610
    81    N    3  dyz    Ryd( 3d)     0.00185       1.74887
    82    N    3  dyz    Ryd( 4d)     0.00007       4.92148
    83    N    3  dx2y2  Ryd( 3d)     0.00126       1.87444
    84    N    3  dx2y2  Ryd( 4d)     0.00005       5.00146
    85    N    3  dz2    Ryd( 3d)     0.00236       1.90353
    86    N    3  dz2    Ryd( 4d)     0.00008       5.09264
    87    N    3  f(0)   Ryd( 4f)     0.00001       5.13661
    88    N    3  f(C1)  Ryd( 4f)     0.00008       5.18205
    89    N    3  f(S1)  Ryd( 4f)     0.00002       4.78377
    90    N    3  f(C2)  Ryd( 4f)     0.00005       5.07204
    91    N    3  f(S2)  Ryd( 4f)     0.00003       4.85996
    92    N    3  f(C3)  Ryd( 4f)     0.00006       4.92124
    93    N    3  f(S3)  Ryd( 4f)     0.00004       4.63092
 
    94    H    4  S      Val( 1S)     0.33763       0.14060
    95    H    4  S      Ryd( 2S)     0.00028       0.66419
    96    H    4  S      Ryd( 3S)     0.00015       2.17110
    97    H    4  px     Ryd( 2p)     0.00010       3.25184
    98    H    4  py     Ryd( 2p)     0.00019       2.38330
    99    H    4  pz     Ryd( 2p)     0.00007       2.61253
 
   100    H    5  S      Val( 1S)     0.43819       0.02760
   101    H    5  S      Ryd( 2S)     0.00010       1.25490
   102    H    5  S      Ryd( 3S)     0.00005       1.48231
   103    H    5  px     Ryd( 2p)     0.00017       2.62380
   104    H    5  py     Ryd( 2p)     0.00004       2.26462
   105    H    5  pz     Ryd( 2p)     0.00045       2.98263
 
   106    H    6  S      Val( 1S)     0.43190       0.04793
   107    H    6  S      Ryd( 2S)     0.00039       1.03040
   108    H    6  S      Ryd( 3S)     0.00004       1.72485
   109    H    6  px     Ryd( 2p)     0.00022       2.71998
   110    H    6  py     Ryd( 2p)     0.00003       2.26570
   111    H    6  pz     Ryd( 2p)     0.00041       2.85306
 
   112    H    7  S      Val( 1S)     0.31321       0.12309
   113    H    7  S      Ryd( 2S)     0.00028       1.42391
   114    H    7  S      Ryd( 3S)     0.00008       1.72536
   115    H    7  px     Ryd( 2p)     0.00010       2.94231
   116    H    7  py     Ryd( 2p)     0.00018       2.39935
   117    H    7  pz     Ryd( 2p)     0.00009       3.15839

 WARNING:  Population inversion found on atom  C    1


 Summary of Natural Population Analysis:                  
                                                          
                                       Natural Population 
                Natural  -----------------------------------------------
    Atom  No    Charge         Core      Valence    Rydberg      Total
 -----------------------------------------------------------------------
      C    1    0.32239      0.99974     1.66756    0.01031     2.67761
      N    2   -0.23928      0.99975     2.72098    0.01856     3.73928
      N    3   -0.55877      0.99984     3.03845    0.02048     4.05877
      H    4    0.16159      0.00000     0.33763    0.00078     0.33841
      H    5    0.06099      0.00000     0.43819    0.00082     0.43901
      H    6    0.06700      0.00000     0.43190    0.00110     0.43300
      H    7    0.18608      0.00000     0.31321    0.00072     0.31392
 =======================================================================
   * Total *    0.00000      2.99932     8.94792    0.05276    12.00000

                                 Natural Population      
 --------------------------------------------------------
   Core                       2.99932 ( 99.9773% of   3)
   Valence                    8.94792 ( 99.4213% of   9)
   Natural Minimal Basis     11.94724 ( 99.5603% of  12)
   Natural Rydberg Basis      0.05276 (  0.4397% of  12)
 --------------------------------------------------------

    Atom  No          Natural Electron Configuration
 ----------------------------------------------------------------------------
      C    1      [core]2S( 0.49)2p( 1.18)3p( 0.01)
      N    2      [core]2S( 0.62)2p( 2.11)3p( 0.01)3d( 0.01)
      N    3      [core]2S( 0.78)2p( 2.25)3p( 0.01)3d( 0.01)
      H    4            1S( 0.34)
      H    5            1S( 0.44)
      H    6            1S( 0.43)
      H    7            1S( 0.31)


 NBO analysis skipped by request.
 Leave Link  607 at Tue Jan  3 09:04:01 2023, MaxMem=   536870912 cpu:               3.3 elap:               1.7
 (Enter /opt/software/gaussian/g16.c01/l701.exe)
 ... and contract with generalized density number  0.
 Compute integral first derivatives.
 Leave Link  701 at Tue Jan  3 09:04:02 2023, MaxMem=   536870912 cpu:               0.3 elap:               0.2
 (Enter /opt/software/gaussian/g16.c01/l702.exe)
 L702 exits ... SP integral derivatives will be done elsewhere.
 Leave Link  702 at Tue Jan  3 09:04:02 2023, MaxMem=   536870912 cpu:               0.1 elap:               0.0
 (Enter /opt/software/gaussian/g16.c01/l703.exe)
 Integral derivatives from FoFJK, PRISM(SPDF).
 Compute integral first derivatives, UseDBF=F ICtDFT=           0.
 Calling FoFJK, ICntrl=      2127 FMM=F ISym2X=0 I1Cent= 0 IOpClX= 1 NMat=1 NMatS=1 NMatT=0.
 FoFJK:  IHMeth= 1 ICntrl=    2127 DoSepK=F KAlg= 0 I1Cent=           0 FoldK=F
 IRaf=         0 NMat=       1 IRICut=       1 DoRegI=T DoRafI=F ISym2E= 0 IDoP0=0 IntGTp=1.
 FoFCou: FMM=F IPFlag=           0 FMFlag=      100000 FMFlg1=         800
         NFxFlg=           0 DoJE=F BraDBF=F KetDBF=F FulRan=T
         wScrn=  0.000000 ICntrl=      2127 IOpCl=  1 I1Cent=           0 NGrid=           0
         NMat0=    1 NMatS0=      1 NMatT0=    0 NMatD0=    1 NMtDS0=    0 NMtDT0=    0
 Symmetry not used in FoFCou.
 Leave Link  703 at Tue Jan  3 09:04:04 2023, MaxMem=   536870912 cpu:               4.8 elap:               2.4
 (Enter /opt/software/gaussian/g16.c01/l716.exe)
 Dipole        = 2.21220580D-01 2.98890990D-01 1.10938632D+00
 -------------------------------------------------------------------
 Center     Atomic                   Forces (Hartrees/Bohr)
 Number     Number              X              Y              Z
 -------------------------------------------------------------------
      1        6          -0.043081304   -0.001535720   -0.004775677
      2        7           0.046386753    0.008311316    0.029964231
      3        7           0.010089851   -0.000527864   -0.002187384
      4        1          -0.013853351   -0.000829694   -0.002791263
      5        1           0.003880124   -0.003129324   -0.011753986
      6        1           0.005066639    0.003121936    0.011523722
      7        1          -0.008488712   -0.005410651   -0.019979642
 -------------------------------------------------------------------
 Cartesian Forces:  Max     0.046386753 RMS     0.017097519
 Z-matrix is all fixed cartesians, so copy forces.
 Force constants in Cartesian coordinates: 
                1             2             3             4             5 
      1  0.979681D+00
      2 -0.379301D-03  0.213865D+00
      3 -0.190645D-01  0.142607D+00  0.707620D+00
      4 -0.643805D+00  0.579070D-02  0.334547D-01  0.112567D+01
      5  0.632347D-02 -0.106234D+00 -0.223587D-01 -0.331382D-01  0.255501D+00
      6  0.354270D-01 -0.223469D-01 -0.184344D+00 -0.143773D+00  0.210309D+00
      7  0.271848D-02  0.887848D-02  0.332925D-01 -0.285848D+00  0.632473D-01
      8  0.405863D-03  0.125485D-01  0.280651D-02  0.556667D-01 -0.952295D-01
      9  0.171151D-02  0.262289D-02  0.215325D-01  0.212339D+00 -0.116800D+00
     10  0.000000D+00 -0.399533D-04  0.107186D-04 -0.760156D-02 -0.133499D-02
     11 -0.399096D-04  0.681015D-02 -0.182702D-02  0.704590D-02  0.450257D-02
     12  0.107071D-04 -0.182705D-02  0.490159D-03  0.265068D-01  0.370720D-02
     13 -0.151899D+00  0.232181D-01  0.887550D-01  0.227506D-02  0.740187D-02
     14  0.222321D-01 -0.700228D-01 -0.649731D-01  0.189247D-03  0.144423D-01
     15  0.850866D-01 -0.649992D-01 -0.296927D+00  0.973426D-03 -0.504849D-03
     16 -0.184388D+00 -0.297881D-01 -0.108208D+00 -0.207961D-02 -0.693893D-02
     17 -0.287722D-01 -0.722180D-01 -0.562752D-01  0.243717D-03  0.170004D-01
     18 -0.104411D+00 -0.562483D-01 -0.264302D+00  0.132579D-02  0.166311D-04
     19 -0.230818D-02 -0.767988D-02 -0.282404D-01 -0.188615D+00 -0.355605D-01
     20  0.229955D-03  0.152509D-01  0.203553D-04 -0.357981D-01 -0.899827D-01
     21  0.124008D-02  0.191593D-03  0.159310D-01 -0.130826D+00 -0.743693D-01
                6             7             8             9            10 
      6  0.986309D+00
      7  0.240594D+00  0.668956D+00
      8 -0.116633D+00 -0.324380D-01  0.846813D-01
      9 -0.504269D+00 -0.134507D+00  0.140554D+00  0.574006D+00
     10 -0.473293D-02 -0.410677D+00 -0.278084D-01 -0.950666D-01  0.418278D+00
     11  0.352379D-02 -0.361895D-01 -0.231711D-01 -0.184397D-01  0.291372D-01
     12  0.167545D-01 -0.126306D+00 -0.186231D-01 -0.846654D-01  0.998012D-01
     13  0.278675D-01  0.000000D+00 -0.447309D-04  0.120004D-04  0.000000D+00
     14 -0.347895D-03 -0.447767D-04  0.764067D-02 -0.204983D-02  0.000000D+00
     15  0.126317D-01  0.120092D-04 -0.204924D-02  0.549768D-03  0.000000D+00
     16 -0.254401D-01  0.000000D+00  0.448748D-04 -0.120390D-04  0.000000D+00
     17 -0.139769D-03  0.448434D-04 -0.765204D-02  0.205288D-02  0.000000D+00
     18  0.170683D-01 -0.120329D-04  0.205329D-02 -0.550853D-03  0.000000D+00
     19 -0.129942D+00  0.248506D-01  0.417370D-02  0.155231D-01  0.000000D+00
     20 -0.743652D-01 -0.349835D-02  0.211822D-01 -0.794026D-02  0.462088D-04
     21 -0.344150D+00 -0.130734D-01 -0.810855D-02 -0.660326D-02 -0.123974D-04
               11            12            13            14            15 
     11  0.197348D-01
     12  0.146298D-01  0.679877D-01
     13  0.000000D+00  0.000000D+00  0.120347D+00
     14  0.000000D+00  0.000000D+00 -0.258292D-01  0.469624D-01
     15  0.000000D+00  0.000000D+00 -0.983283D-01  0.699484D-01  0.291298D+00
     16  0.000000D+00  0.000000D+00  0.292766D-01  0.340314D-02  0.122695D-01
     17  0.000000D+00  0.000000D+00 -0.479540D-02  0.941143D-02 -0.465711D-02
     18  0.000000D+00  0.000000D+00 -0.182930D-01 -0.484049D-02 -0.694563D-02
     19  0.463037D-04 -0.124225D-04  0.000000D+00  0.494397D-04 -0.132598D-04
     20 -0.787642D-02  0.211311D-02  0.493749D-04 -0.843392D-02  0.226199D-02
     21  0.211317D-02 -0.566929D-03 -0.132473D-04  0.226283D-02 -0.606894D-03
               16            17            18            19            20 
     16  0.157191D+00
     17  0.333285D-01  0.450118D-01
     18  0.121377D+00  0.612854D-01  0.254122D+00
     19  0.000000D+00 -0.495133D-04  0.132860D-04  0.166072D+00
     20 -0.495337D-04  0.844647D-02 -0.226646D-02  0.390205D-01  0.614135D-01
     21  0.132899D-04 -0.226619D-02  0.608092D-03  0.142672D+00  0.801764D-01
               21 
     21  0.335388D+00
 Leave Link  716 at Tue Jan  3 09:04:04 2023, MaxMem=   536870912 cpu:               0.1 elap:               0.0
 (Enter /opt/software/gaussian/g16.c01/l103.exe)

 GradGradGradGradGradGradGradGradGradGradGradGradGradGradGradGradGradGrad
 Berny optimization.
 Search for a local minimum.
 Step number   1 out of a maximum of    2
 All quantities printed in internal units (Hartrees-Bohrs-Radians)
 Second derivative matrix not updated -- first step.
 ITU=  0
     Eigenvalues ---    0.02409   0.03062   0.03370   0.05977   0.08903
     Eigenvalues ---    0.11483   0.14278   0.19866   0.30111   0.35087
     Eigenvalues ---    0.61127   0.81664   1.00827   1.49337   1.92763
 Angle between quadratic step and forces=  56.64 degrees.
 Linear search not attempted -- first point.
 B after Tr=     0.001977    0.001771    0.006568
         Rot=    1.000000   -0.000001    0.000226   -0.000061 Ang=  -0.03 deg.
 Variable       Old X    -DE/DX   Delta X   Delta X   Delta X     New X
                                 (Linear)    (Quad)   (Total)
    X1        2.02695  -0.04308   0.00000  -0.01783  -0.01570   2.01125
    Y1       -0.13266  -0.00154   0.00000  -0.00199   0.00003  -0.13263
    Z1       -0.28915  -0.00478   0.00000  -0.00701   0.00046  -0.28869
    X2        4.49366   0.04639   0.00000   0.03806   0.04026   4.53392
    Y2       -0.16959   0.00831   0.00000   0.01057   0.01289  -0.15671
    Z2       -0.48072   0.02996   0.00000   0.03857   0.04719  -0.43353
    X3        5.82670   0.01009   0.00000  -0.01259  -0.00941   5.81728
    Y3       -0.69631  -0.00053   0.00000   0.00076   0.00324  -0.69307
    Z3       -2.47314  -0.00219   0.00000   0.00310   0.01230  -2.46084
    X4        7.67994  -0.01385   0.00000  -0.03548  -0.03253   7.64741
    Y4       -0.55307  -0.00083   0.00000  -0.00860  -0.00590  -0.55896
    Z4       -1.97975  -0.00279   0.00000  -0.03136  -0.02134  -2.00108
    X5        1.20935   0.00388   0.00000  -0.04557  -0.04430   1.16506
    Y5        0.34989  -0.00313   0.00000  -0.01538  -0.01347   0.33642
    Z5        1.52789  -0.01175   0.00000  -0.05641  -0.04931   1.47858
    X6        0.91282   0.00507   0.00000   0.01452   0.01744   0.93026
    Y6       -0.58578   0.00312   0.00000   0.00397   0.00586  -0.57992
    Z6       -1.95346   0.01152   0.00000   0.01449   0.02147  -1.93198
    X7        5.41879  -0.00849   0.00000   0.04281   0.04424   5.46303
    Y7        0.27567  -0.00541   0.00000  -0.00507  -0.00264   0.27303
    Z7        1.15865  -0.01998   0.00000  -0.01981  -0.01077   1.14788
         Item               Value     Threshold  Converged?
 Maximum Force            0.046387     0.000450     NO 
 RMS     Force            0.017098     0.000300     NO 
 Maximum Displacement     0.049314     0.001800     NO 
 RMS     Displacement     0.025368     0.001200     NO 
 Predicted change in Energy=-2.556513D-03
 GradGradGradGradGradGradGradGradGradGradGradGradGradGradGradGradGradGrad

 Leave Link  103 at Tue Jan  3 09:04:04 2023, MaxMem=   536870912 cpu:               0.1 elap:               0.0
 (Enter /opt/software/gaussian/g16.c01/l9999.exe)
 Unable to Open any file for archive entry.
 1\1\GINC-GRA738\Force\UHF\Gen\C1H4N2\BHAVUK\03-Jan-2023\0\\#p uhf/chkb
 asis force guess=read geom=check scf=(maxcycle=900,verytightlineq,xqc)
  integral=grid=ultrafine symmetry=None density=current pop=(cm5,hlygat
 ,mbs,npa) output=wfx\\0001_q000_m01_k00_opt_uwb97xd_def2svpd/0001_q000
 _m01_k00_force_uhf_def2tzvp stable-force\\0,1\C,1.0726168695,-0.070199
 1232,-0.153012633\N,2.3779437514,-0.0897456927,-0.2543854931\N,3.08335
 54789,-0.3684697824,-1.3087287982\H,4.0640493508,-0.2926697434,-1.0476
 368317\H,0.6399628731,0.1851542916,0.8085260928\H,0.4830438364,-0.3099
 796861,-1.0337247999\H,2.8674978397,0.1458797364,0.6131324666\\Version
 =ES64L-G16RevC.01\HF=-149.0536801\S2=0.64761\S2-1=0.\S2A=0.06415\RMSD=
 1.064e-10\RMSF=1.710e-02\Dipole=0.2212206,0.298891,1.1093863\Quadrupol
 e=4.5860591,-1.9052756,-2.6807836,1.5718295,5.7739085,-0.2709128\PG=Un
 known\\@
 The archive entry for this job was punched.

 Writing a WFNX file to "0001_q000_m01_k00_force_uhf_def2tzvp.wfx"


 The chemist is a guest at the physicist's table and
 frequently dines well.
                   -- Richard Bersohn
 Job cpu time:       0 days  0 hours  0 minutes 14.8 seconds.
 Elapsed time:       0 days  0 hours  0 minutes  7.3 seconds.
 File lengths (MBytes):  RWF=     15 Int=      0 D2E=      0 Chk=      3 Scr=      1
 Normal termination of Gaussian 16 at Tue Jan  3 09:04:04 2023.
