 Entering Gaussian System, Link 0=g16
 Input=0001_q000_m01_k00_force_uwb97xd_def2qzvp.com
 Output=0001_q000_m01_k00_force_uwb97xd_def2qzvp.log
 Initial command:
 /opt/software/gaussian/g16.c01/l1.exe "/localscratch/bhavuk.2151345.0/Gau-17223.inp" -scrdir="/localscratch/bhavuk.2151345.0/"
 Entering Link 1 = /opt/software/gaussian/g16.c01/l1.exe PID=     17224.
  
 Copyright (c) 1988-2019, Gaussian, Inc.  All Rights Reserved.
  
 This is part of the Gaussian(R) 16 program.  It is based on
 the Gaussian(R) 09 system (copyright 2009, Gaussian, Inc.),
 the Gaussian(R) 03 system (copyright 2003, Gaussian, Inc.),
 the Gaussian(R) 98 system (copyright 1998, Gaussian, Inc.),
 the Gaussian(R) 94 system (copyright 1995, Gaussian, Inc.),
 the Gaussian 92(TM) system (copyright 1992, Gaussian, Inc.),
 the Gaussian 90(TM) system (copyright 1990, Gaussian, Inc.),
 the Gaussian 88(TM) system (copyright 1988, Gaussian, Inc.),
 the Gaussian 86(TM) system (copyright 1986, Carnegie Mellon
 University), and the Gaussian 82(TM) system (copyright 1983,
 Carnegie Mellon University). Gaussian is a federally registered
 trademark of Gaussian, Inc.
  
 This software contains proprietary and confidential information,
 including trade secrets, belonging to Gaussian, Inc.
  
 This software is provided under written license and may be
 used, copied, transmitted, or stored only in accord with that
 written license.
  
 The following legend is applicable only to US Government
 contracts under FAR:
  
                    RESTRICTED RIGHTS LEGEND
  
 Use, reproduction and disclosure by the US Government is
 subject to restrictions as set forth in subparagraphs (a)
 and (c) of the Commercial Computer Software - Restricted
 Rights clause in FAR 52.227-19.
  
 Gaussian, Inc.
 340 Quinnipiac St., Bldg. 40, Wallingford CT 06492
  
  
 ---------------------------------------------------------------
 Warning -- This program may not be used in any manner that
 competes with the business of Gaussian, Inc. or will provide
 assistance to any competitor of Gaussian, Inc.  The licensee
 of this program is prohibited from giving any competitor of
 Gaussian, Inc. access to this program.  By using this program,
 the user acknowledges that Gaussian, Inc. is engaged in the
 business of creating and licensing software in the field of
 computational chemistry and represents and warrants to the
 licensee that it is not a competitor of Gaussian, Inc. and that
 it will not use this program in any manner prohibited above.
 ---------------------------------------------------------------
  

 Cite this work as:
 Gaussian 16, Revision C.01,
 M. J. Frisch, G. W. Trucks, H. B. Schlegel, G. E. Scuseria, 
 M. A. Robb, J. R. Cheeseman, G. Scalmani, V. Barone, 
 G. A. Petersson, H. Nakatsuji, X. Li, M. Caricato, A. V. Marenich, 
 J. Bloino, B. G. Janesko, R. Gomperts, B. Mennucci, H. P. Hratchian, 
 J. V. Ortiz, A. F. Izmaylov, J. L. Sonnenberg, D. Williams-Young, 
 F. Ding, F. Lipparini, F. Egidi, J. Goings, B. Peng, A. Petrone, 
 T. Henderson, D. Ranasinghe, V. G. Zakrzewski, J. Gao, N. Rega, 
 G. Zheng, W. Liang, M. Hada, M. Ehara, K. Toyota, R. Fukuda, 
 J. Hasegawa, M. Ishida, T. Nakajima, Y. Honda, O. Kitao, H. Nakai, 
 T. Vreven, K. Throssell, J. A. Montgomery, Jr., J. E. Peralta, 
 F. Ogliaro, M. J. Bearpark, J. J. Heyd, E. N. Brothers, K. N. Kudin, 
 V. N. Staroverov, T. A. Keith, R. Kobayashi, J. Normand, 
 K. Raghavachari, A. P. Rendell, J. C. Burant, S. S. Iyengar, 
 J. Tomasi, M. Cossi, J. M. Millam, M. Klene, C. Adamo, R. Cammi, 
 J. W. Ochterski, R. L. Martin, K. Morokuma, O. Farkas, 
 J. B. Foresman, and D. J. Fox, Gaussian, Inc., Wallingford CT, 2019.
 
 ******************************************
 Gaussian 16:  ES64L-G16RevC.01  3-Jul-2019
                 3-Jan-2023 
 ******************************************
 %chk=0001_q000_m01_k00_force_uwb97xd_def2qzvp.chk
 %nprocshared=2
 Will use up to    2 processors via shared memory.
 %mem=4GB
 ----------------------------------------------------------------------
 #p uwb97xd/gen stable=opt scf=(maxcycle=900,verytightlineq,xqc) integr
 al=grid=ultrafine symmetry=None density=current iop(99/18=-1) output=w
 fn
 ----------------------------------------------------------------------
 1/38=1,172=1/1;
 2/12=2,15=3,17=6,18=5,40=1/2;
 3/5=7,11=2,25=1,30=1,74=-58,75=-5,116=2/1,2,3;
 4//1;
 5/5=2,7=900,8=3,13=1,17=3,38=5/2,8;
 6/7=2,8=2,9=2,10=2,22=-1,28=1/1;
 8/6=1,10=90,11=11/1;
 9/8=-3,42=1,46=1/14;
 5/5=2,7=900,8=3,17=43,38=5/8(-2);
 6/7=2,8=2,9=2,10=2,22=-1,28=1/1;
 99/5=1,6=100,9=1,18=-1/99;
 Leave Link    1 at Tue Jan  3 09:03:46 2023, MaxMem=   536870912 cpu:               0.1 elap:               0.1
 (Enter /opt/software/gaussian/g16.c01/l101.exe)
 ----------------------------------------------------------------------
 0001_q000_m01_k00_opt_uwb97xd_def2svpd/0001_q000_m01_k00_force_uwb97xd
 _def2qzvp stable-force
 ----------------------------------------------------------------------
 Symbolic Z-matrix:
 Charge =  0 Multiplicity = 1
 C                     1.07262  -0.0702   -0.15301 
 N                     2.37794  -0.08975  -0.25439 
 N                     3.08336  -0.36847  -1.30873 
 H                     4.06405  -0.29267  -1.04764 
 H                     0.63996   0.18515   0.80853 
 H                     0.48304  -0.30998  -1.03372 
 H                     2.8675    0.14588   0.61313 
 
 ITRead=  0  0  0  0  0  0  0
 MicOpt= -1 -1 -1 -1 -1 -1 -1
 NAtoms=      7 NQM=        7 NQMF=       0 NMMI=      0 NMMIF=      0
                NMic=       0 NMicF=      0.
                    Isotopes and Nuclear Properties:
 (Nuclear quadrupole moments (NQMom) in fm**2, nuclear magnetic moments (NMagM)
  in nuclear magnetons)

  Atom         1           2           3           4           5           6           7
 IAtWgt=          12          14          14           1           1           1           1
 AtmWgt=  12.0000000  14.0030740  14.0030740   1.0078250   1.0078250   1.0078250   1.0078250
 NucSpn=           0           2           2           1           1           1           1
 AtZEff=  -0.0000000  -0.0000000  -0.0000000  -0.0000000  -0.0000000  -0.0000000  -0.0000000
 NQMom=    0.0000000   2.0440000   2.0440000   0.0000000   0.0000000   0.0000000   0.0000000
 NMagM=    0.0000000   0.4037610   0.4037610   2.7928460   2.7928460   2.7928460   2.7928460
 AtZNuc=   6.0000000   7.0000000   7.0000000   1.0000000   1.0000000   1.0000000   1.0000000
 Leave Link  101 at Tue Jan  3 09:03:47 2023, MaxMem=   536870912 cpu:               0.4 elap:               0.2
 (Enter /opt/software/gaussian/g16.c01/l202.exe)
                          Input orientation:                          
 ---------------------------------------------------------------------
 Center     Atomic      Atomic             Coordinates (Angstroms)
 Number     Number       Type             X           Y           Z
 ---------------------------------------------------------------------
      1          6           0        1.072617   -0.070199   -0.153013
      2          7           0        2.377944   -0.089746   -0.254385
      3          7           0        3.083355   -0.368470   -1.308729
      4          1           0        4.064049   -0.292670   -1.047637
      5          1           0        0.639963    0.185154    0.808526
      6          1           0        0.483044   -0.309980   -1.033725
      7          1           0        2.867498    0.145880    0.613132
 ---------------------------------------------------------------------
                    Distance matrix (angstroms):
                    1          2          3          4          5
     1  C    0.000000
     2  N    1.309403   0.000000
     3  N    2.338315   1.298820   0.000000
     4  H    3.130258   1.874401   1.017681   0.000000
     5  H    1.084874   2.055706   3.280158   3.924032   0.000000
     6  H    1.086621   2.060708   2.615467   3.581074   1.914071
     7  H    1.963483   1.023606   2.001175   2.093374   2.236433
                    6          7
     6  H    0.000000
     7  H    2.933525   0.000000
 Symmetry turned off by external request.
 Stoichiometry    CH4N2
 Rotational constants (GHZ):          71.2642239          11.2793619           9.7380671
 Leave Link  202 at Tue Jan  3 09:03:47 2023, MaxMem=   536870912 cpu:               0.0 elap:               0.0
 (Enter /opt/software/gaussian/g16.c01/l301.exe)
 General basis read from cards:  (5D, 7F)
 Centers:       4      5      6      7
 S 4 1.00
     Exponent=  1.9069169000D+02 Coefficients=  7.0815167000D-04
     Exponent=  2.8605532000D+01 Coefficients=  5.4678827000D-03
     Exponent=  6.5095943000D+00 Coefficients=  2.7966605000D-02
     Exponent=  1.8412455000D+00 Coefficients=  1.0764538000D-01
 S 1 1.00
     Exponent=  5.9853725000D-01 Coefficients=  1.0000000000D+00
 S 1 1.00
     Exponent=  2.1397624000D-01 Coefficients=  1.0000000000D+00
 S 1 1.00
     Exponent=  8.0316286000D-02 Coefficients=  1.0000000000D+00
 P 1 1.00
     Exponent=  2.2920000000D+00 Coefficients=  1.0000000000D+00
 P 1 1.00
     Exponent=  8.3800000000D-01 Coefficients=  1.0000000000D+00
 P 1 1.00
     Exponent=  2.9200000000D-01 Coefficients=  1.0000000000D+00
 D 1 1.00
     Exponent=  2.0620000000D+00 Coefficients=  1.0000000000D+00
 D 1 1.00
     Exponent=  6.6200000000D-01 Coefficients=  1.0000000000D+00
 F 1 1.00
     Exponent=  1.3970000000D+00 Coefficients=  1.0000000000D+00
 ****
 Centers:       1
 S 8 1.00
     Exponent=  6.7025071029D+04 Coefficients=  3.8736308501D-05
     Exponent=  1.0039986538D+04 Coefficients=  3.0107917575D-04
     Exponent=  2.2849316911D+03 Coefficients=  1.5787918095D-03
     Exponent=  6.4714122130D+02 Coefficients=  6.6087087195D-03
     Exponent=  2.1109472335D+02 Coefficients=  2.3367123250D-02
     Exponent=  7.6177643862D+01 Coefficients=  7.0420716898D-02
     Exponent=  2.9633839163D+01 Coefficients=  1.7360344953D-01
     Exponent=  1.2187785081D+01 Coefficients=  3.2292305648D-01
 S 2 1.00
     Exponent=  5.3026006299D+01 Coefficients=  7.4897404492D-02
     Exponent=  1.5258502776D+01 Coefficients=  7.6136220983D-01
 S 1 1.00
     Exponent=  5.2403957464D+00 Coefficients=  1.0000000000D+00
 S 1 1.00
     Exponent=  2.2905022379D+00 Coefficients=  1.0000000000D+00
 S 1 1.00
     Exponent=  6.9673283006D-01 Coefficients=  1.0000000000D+00
 S 1 1.00
     Exponent=  2.7599337363D-01 Coefficients=  1.0000000000D+00
 S 1 1.00
     Exponent=  1.0739884389D-01 Coefficients=  1.0000000000D+00
 P 5 1.00
     Exponent=  1.0512555082D+02 Coefficients=  8.4647553844D-04
     Exponent=  2.4884461066D+01 Coefficients=  6.6274038534D-03
     Exponent=  7.8637230826D+00 Coefficients=  3.0120390419D-02
     Exponent=  2.8407001835D+00 Coefficients=  9.9951435476D-02
     Exponent=  1.1227137335D+00 Coefficients=  2.3826299282D-01
 P 1 1.00
     Exponent=  4.6050725555D-01 Coefficients=  1.0000000000D+00
 P 1 1.00
     Exponent=  1.8937530913D-01 Coefficients=  1.0000000000D+00
 P 1 1.00
     Exponent=  7.5983791611D-02 Coefficients=  1.0000000000D+00
 D 1 1.00
     Exponent=  1.8480000000D+00 Coefficients=  1.0000000000D+00
 D 1 1.00
     Exponent=  6.4900000000D-01 Coefficients=  1.0000000000D+00
 D 1 1.00
     Exponent=  2.2800000000D-01 Coefficients=  1.0000000000D+00
 F 1 1.00
     Exponent=  1.4190000000D+00 Coefficients=  1.0000000000D+00
 F 1 1.00
     Exponent=  4.8500000000D-01 Coefficients=  1.0000000000D+00
 G 1 1.00
     Exponent=  1.0110000000D+00 Coefficients=  1.0000000000D+00
 ****
 Centers:       2      3
 S 8 1.00
     Exponent=  9.0726889210D+04 Coefficients=  3.9257887368D-05
     Exponent=  1.3590528801D+04 Coefficients=  3.0513316455D-04
     Exponent=  3.0929883781D+03 Coefficients=  1.6000560446D-03
     Exponent=  8.7599876362D+02 Coefficients=  6.6982937306D-03
     Exponent=  2.8574469982D+02 Coefficients=  2.3690078765D-02
     Exponent=  1.0311913417D+02 Coefficients=  7.1455405268D-02
     Exponent=  4.0128556777D+01 Coefficients=  1.7632774876D-01
     Exponent=  1.6528095704D+01 Coefficients=  3.2677592815D-01
 S 2 1.00
     Exponent=  6.9390960983D+01 Coefficients=  8.0052094386D-02
     Exponent=  2.0428200596D+01 Coefficients=  7.8268063538D-01
 S 1 1.00
     Exponent=  7.1292587972D+00 Coefficients=  1.0000000000D+00
 S 1 1.00
     Exponent=  3.1324304893D+00 Coefficients=  1.0000000000D+00
 S 1 1.00
     Exponent=  9.8755778723D-01 Coefficients=  1.0000000000D+00
 S 1 1.00
     Exponent=  3.8765721307D-01 Coefficients=  1.0000000000D+00
 S 1 1.00
     Exponent=  1.4909883075D-01 Coefficients=  1.0000000000D+00
 P 5 1.00
     Exponent=  1.5005742670D+02 Coefficients= -8.6216165986D-04
     Exponent=  3.5491599483D+01 Coefficients= -6.8571273236D-03
     Exponent=  1.1247864223D+01 Coefficients= -3.1795688855D-02
     Exponent=  4.0900305195D+00 Coefficients= -1.0537396822D-01
     Exponent=  1.6220573146D+00 Coefficients= -2.4519708041D-01
 P 1 1.00
     Exponent=  6.6442261530D-01 Coefficients=  1.0000000000D+00
 P 1 1.00
     Exponent=  2.7099770070D-01 Coefficients=  1.0000000000D+00
 P 1 1.00
     Exponent=  1.0688749984D-01 Coefficients=  1.0000000000D+00
 D 1 1.00
     Exponent=  2.8370000000D+00 Coefficients=  1.0000000000D+00
 D 1 1.00
     Exponent=  9.6800000000D-01 Coefficients=  1.0000000000D+00
 D 1 1.00
     Exponent=  3.3500000000D-01 Coefficients=  1.0000000000D+00
 F 1 1.00
     Exponent=  2.0270000000D+00 Coefficients=  1.0000000000D+00
 F 1 1.00
     Exponent=  6.8500000000D-01 Coefficients=  1.0000000000D+00
 G 1 1.00
     Exponent=  1.4270000000D+00 Coefficients=  1.0000000000D+00
 ****
 Ernie: Thresh=  0.10000D-02 Tol=  0.10000D-05 Strict=F.
   291 basis functions,   428 primitive gaussians,   356 cartesian basis functions
    12 alpha electrons       12 beta electrons
       nuclear repulsion energy        73.3825490640 Hartrees.
 IExCor= 4639 DFT=T Ex+Corr=wB97XD ExCW=0 ScaHFX=  1.000000
 ScaDFX=  1.000000  1.000000  1.000000  1.000000 ScalE2=  1.000000  1.000000
 IRadAn=      5 IRanWt=     -1 IRanGd=            0 ICorTp=0 IEmpDi=121
 HFx  wShort=  0.000000 wLong=  0.200000 cFull=  0.222036 cShort=  0.000000 cLong=  0.777964
 DFx  wShort=  0.000000 wLong=  0.200000 cFull=  0.000000 cShort=  0.000000 cLong=  1.000000
 NAtoms=    7 NActive=    7 NUniq=    7 SFac= 1.00D+00 NAtFMM=   60 NAOKFM=F Big=F
 Integral buffers will be    131072 words long.
 Raffenetti 2 integral format.
 Two-electron integral symmetry is turned off.
 R6Disp:  Grimme-D2 Dispersion energy=       -0.0012232174 Hartrees.
 Nuclear repulsion after empirical dispersion term =       73.3813258467 Hartrees.
 Leave Link  301 at Tue Jan  3 09:03:47 2023, MaxMem=   536870912 cpu:               0.2 elap:               0.1
 (Enter /opt/software/gaussian/g16.c01/l302.exe)
 NPDir=0 NMtPBC=     1 NCelOv=     1 NCel=       1 NClECP=     1 NCelD=      1
         NCelK=      1 NCelE2=     1 NClLst=     1 CellRange=     0.0.
 One-electron integrals computed using PRISM.
 NBasis=   291 RedAO= T EigKep=  1.01D-04  NBF=   291
 NBsUse=   291 1.00D-06 EigRej= -1.00D+00 NBFU=   291
 Precomputing XC quadrature grid using
 IXCGrd= 4 IRadAn=           5 IRanWt=          -1 IRanGd=           0 AccXCQ= 0.00D+00.
 Generated NRdTot=       0 NPtTot=           0 NUsed=           0 NTot=          32
 NSgBfM=   356   356   356   356   356 MxSgAt=     7 MxSgA2=     7.
 Leave Link  302 at Tue Jan  3 09:03:47 2023, MaxMem=   536870912 cpu:               0.6 elap:               0.3
 (Enter /opt/software/gaussian/g16.c01/l303.exe)
 DipDrv:  MaxL=1.
 Leave Link  303 at Tue Jan  3 09:03:47 2023, MaxMem=   536870912 cpu:               0.1 elap:               0.1
 (Enter /opt/software/gaussian/g16.c01/l401.exe)
 ExpMin= 7.60D-02 ExpMax= 9.07D+04 ExpMxC= 8.76D+02 IAcc=3 IRadAn=         5 AccDes= 0.00D+00
 Harris functional with IExCor= 4639 and IRadAn=       5 diagonalized for initial guess.
 HarFok:  IExCor= 4639 AccDes= 0.00D+00 IRadAn=         5 IDoV= 1 UseB2=F ITyADJ=14
 ICtDFT=  3500011 ScaDFX=  1.000000  1.000000  1.000000  1.000000
 FoFCou: FMM=F IPFlag=           0 FMFlag=      100000 FMFlg1=           0
         NFxFlg=           0 DoJE=T BraDBF=F KetDBF=T FulRan=T
         wScrn=  0.000000 ICntrl=       500 IOpCl=  0 I1Cent=   200000004 NGrid=           0
         NMat0=    1 NMatS0=      1 NMatT0=    0 NMatD0=    1 NMtDS0=    0 NMtDT0=    0
 Symmetry not used in FoFCou.
 Harris En= -143.617609381962    
 JPrj=0 DoOrth=F DoCkMO=F.
 Initial guess <Sx>= 0.0000 <Sy>= 0.0000 <Sz>= 0.0000 <S**2>= 0.0000 S= 0.0000
 Leave Link  401 at Tue Jan  3 09:03:49 2023, MaxMem=   536870912 cpu:               4.1 elap:               2.1
 (Enter /opt/software/gaussian/g16.c01/l502.exe)
 Two-electron integral symmetry not used.
 UHF open shell SCF:
 Using DIIS extrapolation, IDIIS=  1040.
 NGot=   536870912 LenX=   536612994 LenY=   536485817
 Requested convergence on RMS density matrix=1.00D-08 within 128 cycles.
 Requested convergence on MAX density matrix=1.00D-06.
 Requested convergence on             energy=1.00D-06.
 No special actions if energy rises.
 Fock matrices will be formed incrementally for  20 cycles.
 Integral accuracy reduced to 1.0D-05 until final iterations.

 Cycle   1  Pass 0  IDiag  1:
 FoFJK:  IHMeth= 1 ICntrl=       0 DoSepK=T KAlg= 0 I1Cent=           0 FoldK=F
 IRaf=         1 NMat=       1 IRICut=       1 DoRegI=T DoRafI=F ISym2E= 0 IDoP0=0 IntGTp=1.
 FoFCou: FMM=F IPFlag=           0 FMFlag=      100000 FMFlg1=           0
         NFxFlg=           0 DoJE=T BraDBF=F KetDBF=F FulRan=T
         wScrn=  0.000000 ICntrl=       500 IOpCl=  0 I1Cent=           0 NGrid=           0
         NMat0=    1 NMatS0=      1 NMatT0=    0 NMatD0=    1 NMtDS0=    0 NMtDT0=    0
 Symmetry not used in FoFCou.
 E= -149.851832564557    
 DIIS: error= 4.38D-02 at cycle   1 NSaved=   1.
 NSaved= 1 IEnMin= 1 EnMin= -149.851832564557     IErMin= 1 ErrMin= 4.38D-02
 ErrMax= 4.38D-02  0.00D+00 EMaxC= 1.00D-01 BMatC= 1.63D+00 BMatP= 1.63D+00
 IDIUse=3 WtCom= 5.62D-01 WtEn= 4.38D-01
 Coeff-Com:  0.100D+01
 Coeff-En:   0.100D+01
 Coeff:      0.100D+01
 Gap=     0.272 Goal=   None    Shift=    0.000
 Gap=     0.272 Goal=   None    Shift=    0.000
 GapD=    0.272 DampG=1.000 DampE=0.500 DampFc=0.5000 IDamp=-1.
 Damping current iteration by 5.00D-01
 RMSDP=1.17D-03 MaxDP=5.19D-02              OVMax= 1.79D-01

 Cycle   2  Pass 0  IDiag  1:
 RMSU=  5.85D-04    CP:  1.00D+00
 E= -149.892395411173     Delta-E=       -0.040562846616 Rises=F Damp=T
 DIIS: error= 1.98D-02 at cycle   2 NSaved=   2.
 NSaved= 2 IEnMin= 2 EnMin= -149.892395411173     IErMin= 2 ErrMin= 1.98D-02
 ErrMax= 1.98D-02  0.00D+00 EMaxC= 1.00D-01 BMatC= 2.94D-01 BMatP= 1.63D+00
 IDIUse=3 WtCom= 8.02D-01 WtEn= 1.98D-01
 Coeff-Com: -0.358D+00 0.136D+01
 Coeff-En:   0.379D-01 0.962D+00
 Coeff:     -0.279D+00 0.128D+01
 Gap=     0.312 Goal=   None    Shift=    0.000
 Gap=     0.312 Goal=   None    Shift=    0.000
 RMSDP=4.68D-04 MaxDP=1.88D-02 DE=-4.06D-02 OVMax= 1.47D-01

 Cycle   3  Pass 0  IDiag  1:
 RMSU=  4.53D-04    CP:  1.00D+00  1.20D+00
 E= -149.921446996544     Delta-E=       -0.029051585371 Rises=F Damp=F
 DIIS: error= 1.15D-02 at cycle   3 NSaved=   3.
 NSaved= 3 IEnMin= 3 EnMin= -149.921446996544     IErMin= 3 ErrMin= 1.15D-02
 ErrMax= 1.15D-02  0.00D+00 EMaxC= 1.00D-01 BMatC= 1.13D-01 BMatP= 2.94D-01
 IDIUse=3 WtCom= 8.85D-01 WtEn= 1.15D-01
 Coeff-Com: -0.290D+00 0.650D+00 0.640D+00
 Coeff-En:   0.000D+00 0.000D+00 0.100D+01
 Coeff:     -0.257D+00 0.575D+00 0.682D+00
 Gap=     0.320 Goal=   None    Shift=    0.000
 Gap=     0.320 Goal=   None    Shift=    0.000
 RMSDP=3.07D-04 MaxDP=1.19D-02 DE=-2.91D-02 OVMax= 8.14D-02

 Cycle   4  Pass 0  IDiag  1:
 RMSU=  1.33D-04    CP:  9.99D-01  1.58D+00  6.39D-01
 E= -149.942832586265     Delta-E=       -0.021385589721 Rises=F Damp=F
 DIIS: error= 4.03D-03 at cycle   4 NSaved=   4.
 NSaved= 4 IEnMin= 4 EnMin= -149.942832586265     IErMin= 4 ErrMin= 4.03D-03
 ErrMax= 4.03D-03  0.00D+00 EMaxC= 1.00D-01 BMatC= 8.74D-03 BMatP= 1.13D-01
 IDIUse=3 WtCom= 9.60D-01 WtEn= 4.03D-02
 Coeff-Com: -0.145D+00 0.321D+00 0.394D+00 0.431D+00
 Coeff-En:   0.000D+00 0.000D+00 0.000D+00 0.100D+01
 Coeff:     -0.139D+00 0.308D+00 0.378D+00 0.453D+00
 Gap=     0.318 Goal=   None    Shift=    0.000
 Gap=     0.318 Goal=   None    Shift=    0.000
 RMSDP=8.30D-05 MaxDP=3.52D-03 DE=-2.14D-02 OVMax= 2.51D-02

 Cycle   5  Pass 0  IDiag  1:
 RMSU=  3.27D-05    CP:  1.00D+00  1.54D+00  7.55D-01  6.40D-01
 E= -149.944713980030     Delta-E=       -0.001881393765 Rises=F Damp=F
 DIIS: error= 6.29D-04 at cycle   5 NSaved=   5.
 NSaved= 5 IEnMin= 5 EnMin= -149.944713980030     IErMin= 5 ErrMin= 6.29D-04
 ErrMax= 6.29D-04  0.00D+00 EMaxC= 1.00D-01 BMatC= 2.06D-04 BMatP= 8.74D-03
 IDIUse=3 WtCom= 9.94D-01 WtEn= 6.29D-03
 Coeff-Com:  0.171D-03-0.189D-02 0.180D-01 0.157D+00 0.827D+00
 Coeff-En:   0.000D+00 0.000D+00 0.000D+00 0.000D+00 0.100D+01
 Coeff:      0.170D-03-0.187D-02 0.179D-01 0.156D+00 0.828D+00
 Gap=     0.320 Goal=   None    Shift=    0.000
 Gap=     0.320 Goal=   None    Shift=    0.000
 RMSDP=2.39D-05 MaxDP=1.01D-03 DE=-1.88D-03 OVMax= 3.12D-03

 Cycle   6  Pass 0  IDiag  1:
 RMSU=  9.52D-06    CP:  9.99D-01  1.56D+00  7.63D-01  7.68D-01  1.04D+00
 E= -149.944760913533     Delta-E=       -0.000046933503 Rises=F Damp=F
 DIIS: error= 7.20D-05 at cycle   6 NSaved=   6.
 NSaved= 6 IEnMin= 6 EnMin= -149.944760913533     IErMin= 6 ErrMin= 7.20D-05
 ErrMax= 7.20D-05  0.00D+00 EMaxC= 1.00D-01 BMatC= 4.58D-06 BMatP= 2.06D-04
 IDIUse=1 WtCom= 1.00D+00 WtEn= 0.00D+00
 Coeff-Com:  0.860D-02-0.188D-01-0.196D-01-0.107D-02 0.151D+00 0.880D+00
 Coeff:      0.860D-02-0.188D-01-0.196D-01-0.107D-02 0.151D+00 0.880D+00
 Gap=     0.320 Goal=   None    Shift=    0.000
 Gap=     0.320 Goal=   None    Shift=    0.000
 RMSDP=6.36D-06 MaxDP=2.99D-04 DE=-4.69D-05 OVMax= 5.43D-04

 Initial convergence to 1.0D-05 achieved.  Increase integral accuracy.
 Cycle   7  Pass 1  IDiag  1:
 E= -149.944763330288     Delta-E=       -0.000002416755 Rises=F Damp=F
 DIIS: error= 5.29D-05 at cycle   1 NSaved=   1.
 NSaved= 1 IEnMin= 1 EnMin= -149.944763330288     IErMin= 1 ErrMin= 5.29D-05
 ErrMax= 5.29D-05  0.00D+00 EMaxC= 1.00D-01 BMatC= 4.42D-06 BMatP= 4.42D-06
 IDIUse=1 WtCom= 1.00D+00 WtEn= 0.00D+00
 Coeff-Com:  0.100D+01
 Coeff:      0.100D+01
 Gap=     0.320 Goal=   None    Shift=    0.000
 Gap=     0.320 Goal=   None    Shift=    0.000
 RMSDP=6.36D-06 MaxDP=2.99D-04 DE=-2.42D-06 OVMax= 2.45D-04

 Cycle   8  Pass 1  IDiag  1:
 RMSU=  4.55D-06    CP:  1.00D+00
 E= -149.944763713598     Delta-E=       -0.000000383310 Rises=F Damp=F
 DIIS: error= 1.73D-05 at cycle   2 NSaved=   2.
 NSaved= 2 IEnMin= 2 EnMin= -149.944763713598     IErMin= 2 ErrMin= 1.73D-05
 ErrMax= 1.73D-05  0.00D+00 EMaxC= 1.00D-01 BMatC= 2.82D-07 BMatP= 4.42D-06
 IDIUse=1 WtCom= 1.00D+00 WtEn= 0.00D+00
 Coeff-Com:  0.598D-01 0.940D+00
 Coeff:      0.598D-01 0.940D+00
 Gap=     0.320 Goal=   None    Shift=    0.000
 Gap=     0.320 Goal=   None    Shift=    0.000
 RMSDP=9.98D-07 MaxDP=3.78D-05 DE=-3.83D-07 OVMax= 2.01D-04

 Cycle   9  Pass 1  IDiag  1:
 RMSU=  9.54D-07    CP:  1.00D+00  1.06D+00
 E= -149.944763725353     Delta-E=       -0.000000011754 Rises=F Damp=F
 DIIS: error= 2.35D-05 at cycle   3 NSaved=   3.
 NSaved= 3 IEnMin= 3 EnMin= -149.944763725353     IErMin= 2 ErrMin= 1.73D-05
 ErrMax= 2.35D-05  0.00D+00 EMaxC= 1.00D-01 BMatC= 2.54D-07 BMatP= 2.82D-07
 IDIUse=1 WtCom= 1.00D+00 WtEn= 0.00D+00
 Coeff-Com: -0.265D-01 0.492D+00 0.535D+00
 Coeff:     -0.265D-01 0.492D+00 0.535D+00
 Gap=     0.320 Goal=   None    Shift=    0.000
 Gap=     0.320 Goal=   None    Shift=    0.000
 RMSDP=4.91D-07 MaxDP=2.15D-05 DE=-1.18D-08 OVMax= 1.52D-04

 Cycle  10  Pass 1  IDiag  1:
 RMSU=  3.73D-07    CP:  1.00D+00  1.10D+00  7.22D-01
 E= -149.944763782692     Delta-E=       -0.000000057340 Rises=F Damp=F
 DIIS: error= 5.93D-06 at cycle   4 NSaved=   4.
 NSaved= 4 IEnMin= 4 EnMin= -149.944763782692     IErMin= 4 ErrMin= 5.93D-06
 ErrMax= 5.93D-06  0.00D+00 EMaxC= 1.00D-01 BMatC= 2.09D-08 BMatP= 2.54D-07
 IDIUse=1 WtCom= 1.00D+00 WtEn= 0.00D+00
 Coeff-Com: -0.183D-01 0.215D+00 0.298D+00 0.505D+00
 Coeff:     -0.183D-01 0.215D+00 0.298D+00 0.505D+00
 Gap=     0.320 Goal=   None    Shift=    0.000
 Gap=     0.320 Goal=   None    Shift=    0.000
 RMSDP=1.67D-07 MaxDP=5.48D-06 DE=-5.73D-08 OVMax= 2.57D-05

 Cycle  11  Pass 1  IDiag  1:
 RMSU=  1.34D-07    CP:  1.00D+00  1.12D+00  8.04D-01  9.58D-01
 E= -149.944763787268     Delta-E=       -0.000000004576 Rises=F Damp=F
 DIIS: error= 7.22D-07 at cycle   5 NSaved=   5.
 NSaved= 5 IEnMin= 5 EnMin= -149.944763787268     IErMin= 5 ErrMin= 7.22D-07
 ErrMax= 7.22D-07  0.00D+00 EMaxC= 1.00D-01 BMatC= 4.55D-10 BMatP= 2.09D-08
 IDIUse=1 WtCom= 1.00D+00 WtEn= 0.00D+00
 Coeff-Com:  0.516D-02-0.915D-01-0.899D-01-0.644D-01 0.124D+01
 Coeff:      0.516D-02-0.915D-01-0.899D-01-0.644D-01 0.124D+01
 Gap=     0.320 Goal=   None    Shift=    0.000
 Gap=     0.320 Goal=   None    Shift=    0.000
 RMSDP=1.42D-07 MaxDP=6.36D-06 DE=-4.58D-09 OVMax= 1.78D-05

 Cycle  12  Pass 1  IDiag  1:
 RMSU=  3.28D-08    CP:  1.00D+00  1.13D+00  8.79D-01  1.21D+00  1.35D+00
 E= -149.944763787711     Delta-E=       -0.000000000443 Rises=F Damp=F
 DIIS: error= 4.62D-07 at cycle   6 NSaved=   6.
 NSaved= 6 IEnMin= 6 EnMin= -149.944763787711     IErMin= 6 ErrMin= 4.62D-07
 ErrMax= 4.62D-07  0.00D+00 EMaxC= 1.00D-01 BMatC= 1.01D-10 BMatP= 4.55D-10
 IDIUse=1 WtCom= 1.00D+00 WtEn= 0.00D+00
 Coeff-Com:  0.316D-02-0.494D-01-0.516D-01-0.647D-01 0.473D+00 0.690D+00
 Coeff:      0.316D-02-0.494D-01-0.516D-01-0.647D-01 0.473D+00 0.690D+00
 Gap=     0.320 Goal=   None    Shift=    0.000
 Gap=     0.320 Goal=   None    Shift=    0.000
 RMSDP=2.44D-08 MaxDP=1.02D-06 DE=-4.43D-10 OVMax= 3.07D-06

 Cycle  13  Pass 1  IDiag  1:
 RMSU=  9.88D-09    CP:  1.00D+00  1.13D+00  8.90D-01  1.25D+00  1.41D+00
                    CP:  1.27D+00
 E= -149.944763787744     Delta-E=       -0.000000000033 Rises=F Damp=F
 DIIS: error= 1.45D-07 at cycle   7 NSaved=   7.
 NSaved= 7 IEnMin= 7 EnMin= -149.944763787744     IErMin= 7 ErrMin= 1.45D-07
 ErrMax= 1.45D-07  0.00D+00 EMaxC= 1.00D-01 BMatC= 1.93D-11 BMatP= 1.01D-10
 IDIUse=1 WtCom= 1.00D+00 WtEn= 0.00D+00
 Coeff-Com:  0.319D-03-0.265D-02-0.204D-02-0.188D-01-0.465D-01 0.287D+00
 Coeff-Com:  0.783D+00
 Coeff:      0.319D-03-0.265D-02-0.204D-02-0.188D-01-0.465D-01 0.287D+00
 Coeff:      0.783D+00
 Gap=     0.320 Goal=   None    Shift=    0.000
 Gap=     0.320 Goal=   None    Shift=    0.000
 RMSDP=1.12D-08 MaxDP=4.43D-07 DE=-3.29D-11 OVMax= 1.33D-06

 Cycle  14  Pass 1  IDiag  1:
 RMSU=  3.11D-09    CP:  1.00D+00  1.13D+00  8.93D-01  1.26D+00  1.43D+00
                    CP:  1.52D+00  1.14D+00
 E= -149.944763787750     Delta-E=       -0.000000000006 Rises=F Damp=F
 DIIS: error= 3.37D-08 at cycle   8 NSaved=   8.
 NSaved= 8 IEnMin= 8 EnMin= -149.944763787750     IErMin= 8 ErrMin= 3.37D-08
 ErrMax= 3.37D-08  0.00D+00 EMaxC= 1.00D-01 BMatC= 1.12D-12 BMatP= 1.93D-11
 IDIUse=1 WtCom= 1.00D+00 WtEn= 0.00D+00
 Coeff-Com: -0.321D-03 0.511D-02 0.634D-02 0.248D-02-0.512D-01-0.453D-01
 Coeff-Com:  0.456D-01 0.104D+01
 Coeff:     -0.321D-03 0.511D-02 0.634D-02 0.248D-02-0.512D-01-0.453D-01
 Coeff:      0.456D-01 0.104D+01
 Gap=     0.320 Goal=   None    Shift=    0.000
 Gap=     0.320 Goal=   None    Shift=    0.000
 RMSDP=4.71D-09 MaxDP=2.28D-07 DE=-6.37D-12 OVMax= 5.30D-07

 SCF Done:  E(UwB97XD) =  -149.944763788     A.U. after   14 cycles
            NFock= 14  Conv=0.47D-08     -V/T= 2.0049
 <Sx>= 0.0000 <Sy>= 0.0000 <Sz>= 0.0000 <S**2>=-0.0000 S=-0.0000
 <L.S>=  0.00000000000    
 KE= 1.492135352704D+02 PE=-4.962786296744D+02 EE= 1.237390047695D+02
 Annihilation of the first spin contaminant:
 S**2 before annihilation    -0.0000,   after    -0.0000
 Leave Link  502 at Tue Jan  3 09:09:59 2023, MaxMem=   536870912 cpu:             739.0 elap:             369.7
 (Enter /opt/software/gaussian/g16.c01/l508.exe)
 QCSCF skips out because SCF is already converged.
 Leave Link  508 at Tue Jan  3 09:09:59 2023, MaxMem=   536870912 cpu:               0.0 elap:               0.0
 (Enter /opt/software/gaussian/g16.c01/l601.exe)
 Copying SCF densities to generalized density rwf, IOpCl= 1 IROHF=0.

 **********************************************************************

            Population analysis using the SCF Density.

 **********************************************************************

 Alpha  occ. eigenvalues --  -14.56127 -14.41841 -10.31072  -1.14161  -0.90593
 Alpha  occ. eigenvalues --   -0.73899  -0.65623  -0.57071  -0.52031  -0.50342
 Alpha  occ. eigenvalues --   -0.36657  -0.27518
 Alpha virt. eigenvalues --    0.04499   0.06717   0.12039   0.13381   0.16332
 Alpha virt. eigenvalues --    0.19730   0.21447   0.24680   0.26462   0.28089
 Alpha virt. eigenvalues --    0.31309   0.32257   0.35362   0.35618   0.39719
 Alpha virt. eigenvalues --    0.40646   0.41424   0.42636   0.46657   0.48168
 Alpha virt. eigenvalues --    0.50018   0.55559   0.56730   0.57870   0.63129
 Alpha virt. eigenvalues --    0.68263   0.70746   0.72369   0.76480   0.78649
 Alpha virt. eigenvalues --    0.79906   0.80569   0.85317   0.86274   0.87993
 Alpha virt. eigenvalues --    0.89899   0.90649   0.94379   0.98511   1.03305
 Alpha virt. eigenvalues --    1.03970   1.06996   1.09296   1.11913   1.12842
 Alpha virt. eigenvalues --    1.15038   1.19690   1.20005   1.24896   1.26869
 Alpha virt. eigenvalues --    1.28687   1.29630   1.33531   1.37020   1.44324
 Alpha virt. eigenvalues --    1.44674   1.50318   1.54989   1.60487   1.65141
 Alpha virt. eigenvalues --    1.75602   1.79336   1.81130   1.82476   1.87577
 Alpha virt. eigenvalues --    1.94185   1.96440   1.99051   2.00390   2.04983
 Alpha virt. eigenvalues --    2.06755   2.07856   2.17748   2.18419   2.22745
 Alpha virt. eigenvalues --    2.24076   2.28806   2.31390   2.33836   2.34034
 Alpha virt. eigenvalues --    2.37002   2.43107   2.45393   2.46621   2.49267
 Alpha virt. eigenvalues --    2.53508   2.55061   2.55869   2.60308   2.60988
 Alpha virt. eigenvalues --    2.64559   2.67113   2.70078   2.73195   2.74342
 Alpha virt. eigenvalues --    2.77282   2.80428   2.80928   2.82957   2.84763
 Alpha virt. eigenvalues --    2.91319   2.95545   2.95592   3.01100   3.04400
 Alpha virt. eigenvalues --    3.09282   3.11707   3.16035   3.23000   3.24757
 Alpha virt. eigenvalues --    3.35645   3.35973   3.37127   3.39709   3.43472
 Alpha virt. eigenvalues --    3.48640   3.55006   3.56840   3.58583   3.61935
 Alpha virt. eigenvalues --    3.63842   3.66844   3.72422   3.81283   3.83326
 Alpha virt. eigenvalues --    3.88352   3.92427   3.98758   4.12568   4.14383
 Alpha virt. eigenvalues --    4.20870   4.27600   4.33315   4.34849   4.43490
 Alpha virt. eigenvalues --    4.49982   4.65607   4.71292   4.92574   5.01111
 Alpha virt. eigenvalues --    5.09228   5.21545   5.30736   5.40300   5.46061
 Alpha virt. eigenvalues --    5.50554   5.50899   5.60112   5.60463   5.64506
 Alpha virt. eigenvalues --    5.79348   5.82952   5.86502   5.88272   5.95371
 Alpha virt. eigenvalues --    5.97142   6.00341   6.06299   6.07534   6.17351
 Alpha virt. eigenvalues --    6.17425   6.18713   6.31139   6.34855   6.40772
 Alpha virt. eigenvalues --    6.42974   6.47552   6.47705   6.60186   6.62677
 Alpha virt. eigenvalues --    6.63010   6.65628   6.75183   6.79961   6.85817
 Alpha virt. eigenvalues --    6.90689   6.91489   6.97487   7.00131   7.07926
 Alpha virt. eigenvalues --    7.13255   7.13888   7.21531   7.27417   7.30456
 Alpha virt. eigenvalues --    7.32591   7.32648   7.41280   7.43695   7.49092
 Alpha virt. eigenvalues --    7.51409   7.54583   7.55912   7.57108   7.63387
 Alpha virt. eigenvalues --    7.68405   7.74567   7.77686   7.81672   7.83361
 Alpha virt. eigenvalues --    7.88230   7.91080   7.95372   7.99573   8.01727
 Alpha virt. eigenvalues --    8.05618   8.06275   8.10150   8.12513   8.15416
 Alpha virt. eigenvalues --    8.15641   8.17875   8.23793   8.29901   8.31665
 Alpha virt. eigenvalues --    8.33997   8.35501   8.42645   8.47102   8.50836
 Alpha virt. eigenvalues --    8.53698   8.59202   8.66367   8.69178   8.71439
 Alpha virt. eigenvalues --    8.72414   8.76827   8.77011   8.91294   8.95498
 Alpha virt. eigenvalues --    8.96429   9.04036   9.05998   9.08170   9.17595
 Alpha virt. eigenvalues --    9.21370   9.22833   9.26871   9.32750   9.37415
 Alpha virt. eigenvalues --    9.42330   9.48565   9.49154   9.59159   9.69762
 Alpha virt. eigenvalues --    9.73517   9.78642   9.84329   9.89268   9.93770
 Alpha virt. eigenvalues --   10.00797  10.04694  10.24788  10.39126  10.49576
 Alpha virt. eigenvalues --   10.71879  10.77077  11.00697  11.04219  11.29863
 Alpha virt. eigenvalues --   11.33557  11.55294  11.64840  11.72115  11.72558
 Alpha virt. eigenvalues --   11.85684  11.96705  12.17962  12.37222  13.06961
 Alpha virt. eigenvalues --   13.27614  14.80147  14.81818  28.81308  37.75148
 Alpha virt. eigenvalues --   38.17797 147.89706 197.10829 197.53954
  Beta  occ. eigenvalues --  -14.56127 -14.41841 -10.31072  -1.14161  -0.90593
  Beta  occ. eigenvalues --   -0.73899  -0.65623  -0.57071  -0.52031  -0.50342
  Beta  occ. eigenvalues --   -0.36657  -0.27518
  Beta virt. eigenvalues --    0.04499   0.06717   0.12039   0.13381   0.16332
  Beta virt. eigenvalues --    0.19730   0.21447   0.24680   0.26462   0.28089
  Beta virt. eigenvalues --    0.31309   0.32257   0.35362   0.35618   0.39719
  Beta virt. eigenvalues --    0.40646   0.41424   0.42636   0.46657   0.48168
  Beta virt. eigenvalues --    0.50018   0.55559   0.56730   0.57870   0.63129
  Beta virt. eigenvalues --    0.68263   0.70746   0.72369   0.76480   0.78649
  Beta virt. eigenvalues --    0.79906   0.80569   0.85317   0.86274   0.87993
  Beta virt. eigenvalues --    0.89899   0.90649   0.94379   0.98511   1.03305
  Beta virt. eigenvalues --    1.03970   1.06996   1.09296   1.11913   1.12842
  Beta virt. eigenvalues --    1.15038   1.19690   1.20005   1.24896   1.26869
  Beta virt. eigenvalues --    1.28687   1.29630   1.33531   1.37020   1.44324
  Beta virt. eigenvalues --    1.44674   1.50318   1.54989   1.60487   1.65141
  Beta virt. eigenvalues --    1.75602   1.79336   1.81130   1.82476   1.87577
  Beta virt. eigenvalues --    1.94185   1.96440   1.99051   2.00390   2.04983
  Beta virt. eigenvalues --    2.06755   2.07856   2.17748   2.18419   2.22745
  Beta virt. eigenvalues --    2.24076   2.28806   2.31390   2.33836   2.34034
  Beta virt. eigenvalues --    2.37002   2.43107   2.45393   2.46621   2.49267
  Beta virt. eigenvalues --    2.53508   2.55061   2.55869   2.60308   2.60988
  Beta virt. eigenvalues --    2.64559   2.67113   2.70078   2.73195   2.74342
  Beta virt. eigenvalues --    2.77282   2.80428   2.80928   2.82957   2.84763
  Beta virt. eigenvalues --    2.91319   2.95545   2.95592   3.01100   3.04400
  Beta virt. eigenvalues --    3.09282   3.11707   3.16035   3.23000   3.24757
  Beta virt. eigenvalues --    3.35645   3.35973   3.37127   3.39709   3.43472
  Beta virt. eigenvalues --    3.48640   3.55006   3.56840   3.58583   3.61935
  Beta virt. eigenvalues --    3.63842   3.66844   3.72422   3.81283   3.83326
  Beta virt. eigenvalues --    3.88352   3.92427   3.98758   4.12568   4.14383
  Beta virt. eigenvalues --    4.20870   4.27600   4.33315   4.34849   4.43490
  Beta virt. eigenvalues --    4.49982   4.65607   4.71292   4.92574   5.01111
  Beta virt. eigenvalues --    5.09228   5.21545   5.30736   5.40300   5.46061
  Beta virt. eigenvalues --    5.50554   5.50899   5.60112   5.60463   5.64506
  Beta virt. eigenvalues --    5.79348   5.82952   5.86502   5.88272   5.95371
  Beta virt. eigenvalues --    5.97142   6.00341   6.06299   6.07534   6.17351
  Beta virt. eigenvalues --    6.17425   6.18713   6.31139   6.34855   6.40772
  Beta virt. eigenvalues --    6.42974   6.47552   6.47705   6.60186   6.62677
  Beta virt. eigenvalues --    6.63010   6.65628   6.75183   6.79961   6.85817
  Beta virt. eigenvalues --    6.90689   6.91489   6.97487   7.00131   7.07926
  Beta virt. eigenvalues --    7.13255   7.13888   7.21531   7.27417   7.30456
  Beta virt. eigenvalues --    7.32591   7.32648   7.41280   7.43695   7.49092
  Beta virt. eigenvalues --    7.51409   7.54583   7.55912   7.57108   7.63387
  Beta virt. eigenvalues --    7.68405   7.74567   7.77686   7.81672   7.83361
  Beta virt. eigenvalues --    7.88230   7.91080   7.95372   7.99573   8.01727
  Beta virt. eigenvalues --    8.05618   8.06275   8.10150   8.12513   8.15416
  Beta virt. eigenvalues --    8.15641   8.17875   8.23793   8.29901   8.31665
  Beta virt. eigenvalues --    8.33997   8.35501   8.42645   8.47102   8.50836
  Beta virt. eigenvalues --    8.53698   8.59202   8.66367   8.69178   8.71439
  Beta virt. eigenvalues --    8.72414   8.76827   8.77011   8.91294   8.95498
  Beta virt. eigenvalues --    8.96429   9.04036   9.05998   9.08170   9.17595
  Beta virt. eigenvalues --    9.21370   9.22833   9.26871   9.32750   9.37415
  Beta virt. eigenvalues --    9.42330   9.48565   9.49154   9.59159   9.69762
  Beta virt. eigenvalues --    9.73517   9.78642   9.84329   9.89268   9.93770
  Beta virt. eigenvalues --   10.00797  10.04694  10.24788  10.39126  10.49576
  Beta virt. eigenvalues --   10.71879  10.77077  11.00697  11.04219  11.29863
  Beta virt. eigenvalues --   11.33557  11.55294  11.64840  11.72115  11.72558
  Beta virt. eigenvalues --   11.85684  11.96705  12.17962  12.37222  13.06961
  Beta virt. eigenvalues --   13.27614  14.80147  14.81818  28.81308  37.75148
  Beta virt. eigenvalues --   38.17797 147.89706 197.10829 197.53954
          Condensed to atoms (all electrons):
               1          2          3          4          5          6
     1  C    4.964974   0.535998  -0.156217   0.007282   0.410046   0.431493
     2  N    0.535998   5.699071   0.467991  -0.044624  -0.031306  -0.031694
     3  N   -0.156217   0.467991   6.792139   0.325287   0.006043   0.004088
     4  H    0.007282  -0.044624   0.325287   0.605456  -0.001308  -0.001376
     5  H    0.410046  -0.031306   0.006043  -0.001308   0.568556  -0.033473
     6  H    0.431493  -0.031694   0.004088  -0.001376  -0.033473   0.527930
     7  H   -0.044286   0.367203  -0.049723  -0.026561  -0.006473   0.009021
               7
     1  C   -0.044286
     2  N    0.367203
     3  N   -0.049723
     4  H   -0.026561
     5  H   -0.006473
     6  H    0.009021
     7  H    0.567060
          Atomic-Atomic Spin Densities.
               1          2          3          4          5          6
     1  C   -0.000000   0.000000   0.000000  -0.000000   0.000000  -0.000000
     2  N    0.000000  -0.000000  -0.000000   0.000000   0.000000   0.000000
     3  N    0.000000  -0.000000   0.000000  -0.000000  -0.000000  -0.000000
     4  H   -0.000000   0.000000  -0.000000   0.000000   0.000000   0.000000
     5  H    0.000000   0.000000  -0.000000   0.000000  -0.000000  -0.000000
     6  H   -0.000000   0.000000  -0.000000   0.000000  -0.000000   0.000000
     7  H    0.000000  -0.000000   0.000000  -0.000000  -0.000000   0.000000
               7
     1  C    0.000000
     2  N   -0.000000
     3  N    0.000000
     4  H   -0.000000
     5  H   -0.000000
     6  H    0.000000
     7  H    0.000000
 Mulliken charges and spin densities:
               1          2
     1  C   -0.149289   0.000000
     2  N    0.037362  -0.000000
     3  N   -0.389608   0.000000
     4  H    0.135845  -0.000000
     5  H    0.087916   0.000000
     6  H    0.094012  -0.000000
     7  H    0.183762   0.000000
 Sum of Mulliken charges =  -0.00000  -0.00000
 Mulliken charges and spin densities with hydrogens summed into heavy atoms:
               1          2
     1  C    0.032639   0.000000
     2  N    0.221123  -0.000000
     3  N   -0.253763   0.000000
 Electronic spatial extent (au):  <R**2>=            598.4563
 Charge=             -0.0000 electrons
 Dipole moment (field-independent basis, Debye):
    X=              0.2615    Y=              0.8237    Z=              3.0648  Tot=              3.1844
 Quadrupole moment (field-independent basis, Debye-Ang):
   XX=            -14.1262   YY=            -21.3645   ZZ=            -22.7035
   XY=              2.3860   XZ=              8.7728   YZ=             -0.4532
 Traceless Quadrupole moment (field-independent basis, Debye-Ang):
   XX=              5.2719   YY=             -1.9664   ZZ=             -3.3055
   XY=              2.3860   XZ=              8.7728   YZ=             -0.4532
 Octapole moment (field-independent basis, Debye-Ang**2):
  XXX=            -90.4096  YYY=             10.9428  ZZZ=             41.6204  XYY=            -45.7144
  XXY=              9.1897  XXZ=             32.3945  XZZ=            -53.1195  YZZ=              5.4292
  YYZ=             12.1029  XYZ=             -2.3595
 Hexadecapole moment (field-independent basis, Debye-Ang**3):
 XXXX=           -481.4476 YYYY=            -30.1862 ZZZZ=           -116.3188 XXXY=             38.8949
 XXXZ=            135.4684 YYYX=             30.2163 YYYZ=            -12.4330 ZZZX=            119.1281
 ZZZY=            -14.1378 XXYY=           -126.1112 XXZZ=           -156.4075 YYZZ=            -23.8729
 XXYZ=             -9.6266 YYXZ=             35.0434 ZZXY=             15.0095
 N-N= 7.338132584667D+01 E-N=-4.962786291386D+02  KE= 1.492135352704D+02
                          Isotropic Fermi Contact Couplings
        Atom                 a.u.       MegaHertz       Gauss      10(-4) cm-1
     1  C(13)             -0.00000      -0.00000      -0.00000      -0.00000
     2  N(14)              0.00000       0.00000       0.00000       0.00000
     3  N(14)             -0.00000      -0.00000      -0.00000      -0.00000
     4  H(1)              -0.00000      -0.00000      -0.00000      -0.00000
     5  H(1)               0.00000       0.00000       0.00000       0.00000
     6  H(1)              -0.00000      -0.00000      -0.00000      -0.00000
     7  H(1)              -0.00000      -0.00000      -0.00000      -0.00000
 --------------------------------------------------------
       Center         ----  Spin Dipole Couplings  ----
                      3XX-RR        3YY-RR        3ZZ-RR
 --------------------------------------------------------
     1   Atom       -0.000000      0.000000     -0.000000
     2   Atom       -0.000000      0.000000      0.000000
     3   Atom       -0.000000     -0.000000      0.000000
     4   Atom       -0.000000     -0.000000      0.000000
     5   Atom       -0.000000     -0.000000      0.000000
     6   Atom        0.000000      0.000000     -0.000000
     7   Atom       -0.000000      0.000000     -0.000000
 --------------------------------------------------------
                        XY            XZ            YZ
 --------------------------------------------------------
     1   Atom        0.000000     -0.000000      0.000000
     2   Atom        0.000000     -0.000000     -0.000000
     3   Atom       -0.000000      0.000000      0.000000
     4   Atom        0.000000     -0.000000      0.000000
     5   Atom       -0.000000     -0.000000      0.000000
     6   Atom       -0.000000     -0.000000     -0.000000
     7   Atom       -0.000000     -0.000000     -0.000000
 --------------------------------------------------------


 ---------------------------------------------------------------------------------
              Anisotropic Spin Dipole Couplings in Principal Axis System
 ---------------------------------------------------------------------------------

       Atom             a.u.   MegaHertz   Gauss  10(-4) cm-1        Axes

              Baa    -0.0000    -0.000    -0.000    -0.000  0.9136 -0.0904  0.3964
     1 C(13)  Bbb    -0.0000    -0.000    -0.000    -0.000 -0.4062 -0.2467  0.8799
              Bcc     0.0000     0.000     0.000     0.000 -0.0183  0.9649  0.2621
 
              Baa    -0.0000    -0.000    -0.000    -0.000  0.9996 -0.0236  0.0162
     2 N(14)  Bbb     0.0000     0.000     0.000     0.000 -0.0114  0.1902  0.9817
              Bcc     0.0000     0.000     0.000     0.000  0.0262  0.9815 -0.1898
 
              Baa    -0.0000    -0.000    -0.000    -0.000  0.6379  0.7289 -0.2486
     3 N(14)  Bbb    -0.0000    -0.000    -0.000    -0.000  0.7700 -0.5983  0.2216
              Bcc     0.0000     0.000     0.000     0.000 -0.0127  0.3328  0.9429
 
              Baa    -0.0000    -0.000    -0.000    -0.000  0.7302 -0.1785  0.6595
     4 H(1)   Bbb     0.0000     0.000     0.000     0.000  0.0825  0.9812  0.1743
              Bcc     0.0000     0.000     0.000     0.000 -0.6782 -0.0729  0.7312
 
              Baa    -0.0000    -0.000    -0.000    -0.000  0.9584 -0.0620  0.2786
     5 H(1)   Bbb    -0.0000    -0.000    -0.000    -0.000  0.1189  0.9742 -0.1920
              Bcc     0.0000     0.000     0.000     0.000 -0.2595  0.2171  0.9410
 
              Baa    -0.0000    -0.000    -0.000    -0.000  0.5269  0.2278  0.8189
     6 H(1)   Bbb     0.0000     0.000     0.000     0.000 -0.1280  0.9737 -0.1885
              Bcc     0.0000     0.000     0.000     0.000  0.8403  0.0055 -0.5422
 
              Baa    -0.0000    -0.000    -0.000    -0.000  0.7133  0.2852  0.6402
     7 H(1)   Bbb     0.0000     0.000     0.000     0.000  0.0249  0.9025 -0.4299
              Bcc     0.0000     0.000     0.000     0.000  0.7004 -0.3226 -0.6367
 

 ---------------------------------------------------------------------------------

 No NMR shielding tensors so no spin-rotation constants.
 Leave Link  601 at Tue Jan  3 09:10:00 2023, MaxMem=   536870912 cpu:               0.9 elap:               0.5
 (Enter /opt/software/gaussian/g16.c01/l801.exe)
 DoSCS=F DFT=T ScalE2(SS,OS)=  1.000000  1.000000
 Range of M.O.s used for correlation:     1   291
 NBasis=   291 NAE=    12 NBE=    12 NFC=     0 NFV=     0
 NROrb=    291 NOA=    12 NOB=    12 NVA=   279 NVB=   279

 **** Warning!!: The largest alpha MO coefficient is  0.19177503D+02


 **** Warning!!: The largest beta MO coefficient is  0.19177503D+02

 Leave Link  801 at Tue Jan  3 09:10:00 2023, MaxMem=   536870912 cpu:               0.1 elap:               0.1
 (Enter /opt/software/gaussian/g16.c01/l914.exe)
 UHF ground state
 Doing stability rather than CIS.
 Two-electron integral symmetry not used.
 MDV=   536870912 DFT=T DoStab=T Mixed=T DoRPA=F DoScal=F NonHer=F
 Making orbital integer symmetry assigments:
    12 initial guesses have been made.
 Convergence on wavefunction:    0.001000000000000
 Davidson Disk Diagonalization:  ConvIn= 1.00D-03 SkipCon=T Conv= 1.00D-03.
 Max sub-space:  2000 roots to seek:    12 dimension of matrix:         6696
 Iteration     1 Dimension    12 NMult     0 NNew     12
 CISAX will form    12 AO SS matrices at one time.
 NMat=    12 NSing=    12 JSym2X= 0.
 FoFJK:  IHMeth= 1 ICntrl=       0 DoSepK=T KAlg= 0 I1Cent=           0 FoldK=F
 IRaf=         1 NMat=      12 IRICut=       1 DoRegI=T DoRafI=F ISym2E= 0 IDoP0=3 IntGTp=3.
 FoFCou: FMM=F IPFlag=           0 FMFlag=      100000 FMFlg1=           0
         NFxFlg=           0 DoJE=F BraDBF=F KetDBF=F FulRan=T
         wScrn=  0.000000 ICntrl=       500 IOpCl=  0 I1Cent=           0 NGrid=           0
         NMat0=   12 NMatS0=     12 NMatT0=    0 NMatD0=   12 NMtDS0=    0 NMtDT0=    0
 Symmetry not used in FoFCou.
 Excitation Energies [eV] at current iteration:
 Root      1 :     1.209402306701137
 Root      2 :     4.757544151787802
 Root      3 :     4.826618281065334
 Root      4 :     5.118683910830573
 Root      5 :     6.264138004921040
 Root      6 :     6.465295578974883
 Root      7 :     6.614326726350178
 Root      8 :     6.710498462446476
 Root      9 :     6.934143056548735
 Root     10 :     7.167351722538125
 Root     11 :     7.480758596368701
 Root     12 :    11.677289720192972
 Iteration     2 Dimension    24 NMult    12 NNew     12
 CISAX will form    12 AO SS matrices at one time.
 NMat=    12 NSing=    12 JSym2X= 0.
 Root      1 not converged, maximum delta is    0.128446899704895
 Excitation Energies [eV] at current iteration:
 Root      1 :     0.614120500045326   Change is   -0.595281806655811
 Root      2 :     4.538559219244964   Change is   -0.218984932542838
 Root      3 :     4.710358421707470   Change is   -0.116259859357863
 Root      4 :     4.857432668416036   Change is   -0.261251242414537
 Root      5 :     5.998735495134791   Change is   -0.265402509786248
 Root      6 :     6.214758950376353   Change is   -0.250536628598530
 Root      7 :     6.245383801135653   Change is   -5.431905919057318
 Root      8 :     6.445288596033824   Change is   -0.265209866412652
 Root      9 :     6.493403684196379   Change is   -0.120923042153799
 Root     10 :     6.719468437442083   Change is   -0.447883285096043
 Root     11 :     6.785309930717047   Change is   -0.148833125831688
 Root     12 :     7.397836701921344   Change is   -0.082921894447357
 Iteration     3 Dimension    27 NMult    24 NNew      3
 CISAX will form     3 AO SS matrices at one time.
 NMat=     3 NSing=     3 JSym2X= 0.
 Root      1 not converged, maximum delta is    0.010397283483414
 Excitation Energies [eV] at current iteration:
 Root      1 :     0.600270129063599   Change is   -0.013850370981727
 Root      2 :     4.531003096497973   Change is   -0.007556122746991
 Root      3 :     4.706469857635737   Change is   -0.003888564071733
 Iteration     4 Dimension    30 NMult    27 NNew      3
 CISAX will form     3 AO SS matrices at one time.
 NMat=     3 NSing=     3 JSym2X= 0.
 Root      1 not converged, maximum delta is    0.003400000208742
 Excitation Energies [eV] at current iteration:
 Root      1 :     0.599621186926247   Change is   -0.000648942137352
 Root      2 :     4.530427493556849   Change is   -0.000575602941124
 Root      3 :     4.705975718018879   Change is   -0.000494139616859
 Iteration     5 Dimension    33 NMult    30 NNew      3
 CISAX will form     3 AO SS matrices at one time.
 NMat=     3 NSing=     3 JSym2X= 0.
 Root      1 not converged, maximum delta is    0.001283076600142
 Excitation Energies [eV] at current iteration:
 Root      1 :     0.599560126020003   Change is   -0.000061060906244
 Root      2 :     4.530357541575985   Change is   -0.000069951980864
 Root      3 :     4.705909290587019   Change is   -0.000066427431859
 Iteration     6 Dimension    36 NMult    33 NNew      3
 CISAX will form     3 AO SS matrices at one time.
 NMat=     3 NSing=     3 JSym2X= 0.
 Root      1 has converged.
 Excitation Energies [eV] at current iteration:
 Root      1 :     0.599556671248643   Change is   -0.000003454771361
 Root      2 :     4.530351991134073   Change is   -0.000005550441912
 Root      3 :     4.705903353188981   Change is   -0.000005937398038
 Convergence achieved on expansion vectors.
 ***********************************************************************
 Stability analysis using <AA,BB:AA,BB> singles matrix:
 ***********************************************************************
 1PDM for each excited state written to RWF  633
 Ground to excited state transition densities written to RWF  633

 Eigenvectors of the stability matrix:
 
 Excited state symmetry could not be determined.
 Eigenvector   1:  3.000-?Sym  Eigenvalue= 0.0220333  <S**2>=2.000
     12A -> 13A       -0.68503
     12A -> 19A        0.13820
     12B -> 13B        0.68503
     12B -> 19B       -0.13820
 The wavefunction is stable under the perturbations considered.
 Leave Link  914 at Tue Jan  3 09:23:56 2023, MaxMem=   536870912 cpu:            1672.7 elap:             836.6
 (Enter /opt/software/gaussian/g16.c01/l508.exe)
 The wavefunction is already stable.
 Leave Link  508 at Tue Jan  3 09:23:56 2023, MaxMem=   536870912 cpu:               0.0 elap:               0.0
 (Enter /opt/software/gaussian/g16.c01/l601.exe)
 Copying SCF densities to generalized density rwf, IOpCl= 1 IROHF=0.

 **********************************************************************

            Population analysis using the SCF Density.

 **********************************************************************

 Alpha  occ. eigenvalues --  -14.56127 -14.41841 -10.31072  -1.14161  -0.90593
 Alpha  occ. eigenvalues --   -0.73899  -0.65623  -0.57071  -0.52031  -0.50342
 Alpha  occ. eigenvalues --   -0.36657  -0.27518
 Alpha virt. eigenvalues --    0.04499   0.06717   0.12039   0.13381   0.16332
 Alpha virt. eigenvalues --    0.19730   0.21447   0.24680   0.26462   0.28089
 Alpha virt. eigenvalues --    0.31309   0.32257   0.35362   0.35618   0.39719
 Alpha virt. eigenvalues --    0.40646   0.41424   0.42636   0.46657   0.48168
 Alpha virt. eigenvalues --    0.50018   0.55559   0.56730   0.57870   0.63129
 Alpha virt. eigenvalues --    0.68263   0.70746   0.72369   0.76480   0.78649
 Alpha virt. eigenvalues --    0.79906   0.80569   0.85317   0.86274   0.87993
 Alpha virt. eigenvalues --    0.89899   0.90649   0.94379   0.98511   1.03305
 Alpha virt. eigenvalues --    1.03970   1.06996   1.09296   1.11913   1.12842
 Alpha virt. eigenvalues --    1.15038   1.19690   1.20005   1.24896   1.26869
 Alpha virt. eigenvalues --    1.28687   1.29630   1.33531   1.37020   1.44324
 Alpha virt. eigenvalues --    1.44674   1.50318   1.54989   1.60487   1.65141
 Alpha virt. eigenvalues --    1.75602   1.79336   1.81130   1.82476   1.87577
 Alpha virt. eigenvalues --    1.94185   1.96440   1.99051   2.00390   2.04983
 Alpha virt. eigenvalues --    2.06755   2.07856   2.17748   2.18419   2.22745
 Alpha virt. eigenvalues --    2.24076   2.28806   2.31390   2.33836   2.34034
 Alpha virt. eigenvalues --    2.37002   2.43107   2.45393   2.46621   2.49267
 Alpha virt. eigenvalues --    2.53508   2.55061   2.55869   2.60308   2.60988
 Alpha virt. eigenvalues --    2.64559   2.67113   2.70078   2.73195   2.74342
 Alpha virt. eigenvalues --    2.77282   2.80428   2.80928   2.82957   2.84763
 Alpha virt. eigenvalues --    2.91319   2.95545   2.95592   3.01100   3.04400
 Alpha virt. eigenvalues --    3.09282   3.11707   3.16035   3.23000   3.24757
 Alpha virt. eigenvalues --    3.35645   3.35973   3.37127   3.39709   3.43472
 Alpha virt. eigenvalues --    3.48640   3.55006   3.56840   3.58583   3.61935
 Alpha virt. eigenvalues --    3.63842   3.66844   3.72422   3.81283   3.83326
 Alpha virt. eigenvalues --    3.88352   3.92427   3.98758   4.12568   4.14383
 Alpha virt. eigenvalues --    4.20870   4.27600   4.33315   4.34849   4.43490
 Alpha virt. eigenvalues --    4.49982   4.65607   4.71292   4.92574   5.01111
 Alpha virt. eigenvalues --    5.09228   5.21545   5.30736   5.40300   5.46061
 Alpha virt. eigenvalues --    5.50554   5.50899   5.60112   5.60463   5.64506
 Alpha virt. eigenvalues --    5.79348   5.82952   5.86502   5.88272   5.95371
 Alpha virt. eigenvalues --    5.97142   6.00341   6.06299   6.07534   6.17351
 Alpha virt. eigenvalues --    6.17425   6.18713   6.31139   6.34855   6.40772
 Alpha virt. eigenvalues --    6.42974   6.47552   6.47705   6.60186   6.62677
 Alpha virt. eigenvalues --    6.63010   6.65628   6.75183   6.79961   6.85817
 Alpha virt. eigenvalues --    6.90689   6.91489   6.97487   7.00131   7.07926
 Alpha virt. eigenvalues --    7.13255   7.13888   7.21531   7.27417   7.30456
 Alpha virt. eigenvalues --    7.32591   7.32648   7.41280   7.43695   7.49092
 Alpha virt. eigenvalues --    7.51409   7.54583   7.55912   7.57108   7.63387
 Alpha virt. eigenvalues --    7.68405   7.74567   7.77686   7.81672   7.83361
 Alpha virt. eigenvalues --    7.88230   7.91080   7.95372   7.99573   8.01727
 Alpha virt. eigenvalues --    8.05618   8.06275   8.10150   8.12513   8.15416
 Alpha virt. eigenvalues --    8.15641   8.17875   8.23793   8.29901   8.31665
 Alpha virt. eigenvalues --    8.33997   8.35501   8.42645   8.47102   8.50836
 Alpha virt. eigenvalues --    8.53698   8.59202   8.66367   8.69178   8.71439
 Alpha virt. eigenvalues --    8.72414   8.76827   8.77011   8.91294   8.95498
 Alpha virt. eigenvalues --    8.96429   9.04036   9.05998   9.08170   9.17595
 Alpha virt. eigenvalues --    9.21370   9.22833   9.26871   9.32750   9.37415
 Alpha virt. eigenvalues --    9.42330   9.48565   9.49154   9.59159   9.69762
 Alpha virt. eigenvalues --    9.73517   9.78642   9.84329   9.89268   9.93770
 Alpha virt. eigenvalues --   10.00797  10.04694  10.24788  10.39126  10.49576
 Alpha virt. eigenvalues --   10.71879  10.77077  11.00697  11.04219  11.29863
 Alpha virt. eigenvalues --   11.33557  11.55294  11.64840  11.72115  11.72558
 Alpha virt. eigenvalues --   11.85684  11.96705  12.17962  12.37222  13.06961
 Alpha virt. eigenvalues --   13.27614  14.80147  14.81818  28.81308  37.75148
 Alpha virt. eigenvalues --   38.17797 147.89706 197.10829 197.53954
  Beta  occ. eigenvalues --  -14.56127 -14.41841 -10.31072  -1.14161  -0.90593
  Beta  occ. eigenvalues --   -0.73899  -0.65623  -0.57071  -0.52031  -0.50342
  Beta  occ. eigenvalues --   -0.36657  -0.27518
  Beta virt. eigenvalues --    0.04499   0.06717   0.12039   0.13381   0.16332
  Beta virt. eigenvalues --    0.19730   0.21447   0.24680   0.26462   0.28089
  Beta virt. eigenvalues --    0.31309   0.32257   0.35362   0.35618   0.39719
  Beta virt. eigenvalues --    0.40646   0.41424   0.42636   0.46657   0.48168
  Beta virt. eigenvalues --    0.50018   0.55559   0.56730   0.57870   0.63129
  Beta virt. eigenvalues --    0.68263   0.70746   0.72369   0.76480   0.78649
  Beta virt. eigenvalues --    0.79906   0.80569   0.85317   0.86274   0.87993
  Beta virt. eigenvalues --    0.89899   0.90649   0.94379   0.98511   1.03305
  Beta virt. eigenvalues --    1.03970   1.06996   1.09296   1.11913   1.12842
  Beta virt. eigenvalues --    1.15038   1.19690   1.20005   1.24896   1.26869
  Beta virt. eigenvalues --    1.28687   1.29630   1.33531   1.37020   1.44324
  Beta virt. eigenvalues --    1.44674   1.50318   1.54989   1.60487   1.65141
  Beta virt. eigenvalues --    1.75602   1.79336   1.81130   1.82476   1.87577
  Beta virt. eigenvalues --    1.94185   1.96440   1.99051   2.00390   2.04983
  Beta virt. eigenvalues --    2.06755   2.07856   2.17748   2.18419   2.22745
  Beta virt. eigenvalues --    2.24076   2.28806   2.31390   2.33836   2.34034
  Beta virt. eigenvalues --    2.37002   2.43107   2.45393   2.46621   2.49267
  Beta virt. eigenvalues --    2.53508   2.55061   2.55869   2.60308   2.60988
  Beta virt. eigenvalues --    2.64559   2.67113   2.70078   2.73195   2.74342
  Beta virt. eigenvalues --    2.77282   2.80428   2.80928   2.82957   2.84763
  Beta virt. eigenvalues --    2.91319   2.95545   2.95592   3.01100   3.04400
  Beta virt. eigenvalues --    3.09282   3.11707   3.16035   3.23000   3.24757
  Beta virt. eigenvalues --    3.35645   3.35973   3.37127   3.39709   3.43472
  Beta virt. eigenvalues --    3.48640   3.55006   3.56840   3.58583   3.61935
  Beta virt. eigenvalues --    3.63842   3.66844   3.72422   3.81283   3.83326
  Beta virt. eigenvalues --    3.88352   3.92427   3.98758   4.12568   4.14383
  Beta virt. eigenvalues --    4.20870   4.27600   4.33315   4.34849   4.43490
  Beta virt. eigenvalues --    4.49982   4.65607   4.71292   4.92574   5.01111
  Beta virt. eigenvalues --    5.09228   5.21545   5.30736   5.40300   5.46061
  Beta virt. eigenvalues --    5.50554   5.50899   5.60112   5.60463   5.64506
  Beta virt. eigenvalues --    5.79348   5.82952   5.86502   5.88272   5.95371
  Beta virt. eigenvalues --    5.97142   6.00341   6.06299   6.07534   6.17351
  Beta virt. eigenvalues --    6.17425   6.18713   6.31139   6.34855   6.40772
  Beta virt. eigenvalues --    6.42974   6.47552   6.47705   6.60186   6.62677
  Beta virt. eigenvalues --    6.63010   6.65628   6.75183   6.79961   6.85817
  Beta virt. eigenvalues --    6.90689   6.91489   6.97487   7.00131   7.07926
  Beta virt. eigenvalues --    7.13255   7.13888   7.21531   7.27417   7.30456
  Beta virt. eigenvalues --    7.32591   7.32648   7.41280   7.43695   7.49092
  Beta virt. eigenvalues --    7.51409   7.54583   7.55912   7.57108   7.63387
  Beta virt. eigenvalues --    7.68405   7.74567   7.77686   7.81672   7.83361
  Beta virt. eigenvalues --    7.88230   7.91080   7.95372   7.99573   8.01727
  Beta virt. eigenvalues --    8.05618   8.06275   8.10150   8.12513   8.15416
  Beta virt. eigenvalues --    8.15641   8.17875   8.23793   8.29901   8.31665
  Beta virt. eigenvalues --    8.33997   8.35501   8.42645   8.47102   8.50836
  Beta virt. eigenvalues --    8.53698   8.59202   8.66367   8.69178   8.71439
  Beta virt. eigenvalues --    8.72414   8.76827   8.77011   8.91294   8.95498
  Beta virt. eigenvalues --    8.96429   9.04036   9.05998   9.08170   9.17595
  Beta virt. eigenvalues --    9.21370   9.22833   9.26871   9.32750   9.37415
  Beta virt. eigenvalues --    9.42330   9.48565   9.49154   9.59159   9.69762
  Beta virt. eigenvalues --    9.73517   9.78642   9.84329   9.89268   9.93770
  Beta virt. eigenvalues --   10.00797  10.04694  10.24788  10.39126  10.49576
  Beta virt. eigenvalues --   10.71879  10.77077  11.00697  11.04219  11.29863
  Beta virt. eigenvalues --   11.33557  11.55294  11.64840  11.72115  11.72558
  Beta virt. eigenvalues --   11.85684  11.96705  12.17962  12.37222  13.06961
  Beta virt. eigenvalues --   13.27614  14.80147  14.81818  28.81308  37.75148
  Beta virt. eigenvalues --   38.17797 147.89706 197.10829 197.53954
          Condensed to atoms (all electrons):
               1          2          3          4          5          6
     1  C    4.964974   0.535998  -0.156217   0.007282   0.410046   0.431493
     2  N    0.535998   5.699071   0.467991  -0.044624  -0.031306  -0.031694
     3  N   -0.156217   0.467991   6.792139   0.325287   0.006043   0.004088
     4  H    0.007282  -0.044624   0.325287   0.605456  -0.001308  -0.001376
     5  H    0.410046  -0.031306   0.006043  -0.001308   0.568556  -0.033473
     6  H    0.431493  -0.031694   0.004088  -0.001376  -0.033473   0.527930
     7  H   -0.044286   0.367203  -0.049723  -0.026561  -0.006473   0.009021
               7
     1  C   -0.044286
     2  N    0.367203
     3  N   -0.049723
     4  H   -0.026561
     5  H   -0.006473
     6  H    0.009021
     7  H    0.567060
          Atomic-Atomic Spin Densities.
               1          2          3          4          5          6
     1  C   -0.000000   0.000000   0.000000  -0.000000   0.000000  -0.000000
     2  N    0.000000  -0.000000  -0.000000   0.000000   0.000000   0.000000
     3  N    0.000000  -0.000000   0.000000  -0.000000  -0.000000  -0.000000
     4  H   -0.000000   0.000000  -0.000000   0.000000   0.000000   0.000000
     5  H    0.000000   0.000000  -0.000000   0.000000  -0.000000  -0.000000
     6  H   -0.000000   0.000000  -0.000000   0.000000  -0.000000   0.000000
     7  H    0.000000  -0.000000   0.000000  -0.000000  -0.000000   0.000000
               7
     1  C    0.000000
     2  N   -0.000000
     3  N    0.000000
     4  H   -0.000000
     5  H   -0.000000
     6  H    0.000000
     7  H    0.000000
 Mulliken charges and spin densities:
               1          2
     1  C   -0.149289   0.000000
     2  N    0.037362  -0.000000
     3  N   -0.389608   0.000000
     4  H    0.135845  -0.000000
     5  H    0.087916   0.000000
     6  H    0.094012  -0.000000
     7  H    0.183762   0.000000
 Sum of Mulliken charges =  -0.00000  -0.00000
 Mulliken charges and spin densities with hydrogens summed into heavy atoms:
               1          2
     1  C    0.032639   0.000000
     2  N    0.221123  -0.000000
     3  N   -0.253763   0.000000
 Electronic spatial extent (au):  <R**2>=            598.4563
 Charge=             -0.0000 electrons
 Dipole moment (field-independent basis, Debye):
    X=              0.2615    Y=              0.8237    Z=              3.0648  Tot=              3.1844
 Quadrupole moment (field-independent basis, Debye-Ang):
   XX=            -14.1262   YY=            -21.3645   ZZ=            -22.7035
   XY=              2.3860   XZ=              8.7728   YZ=             -0.4532
 Traceless Quadrupole moment (field-independent basis, Debye-Ang):
   XX=              5.2719   YY=             -1.9664   ZZ=             -3.3055
   XY=              2.3860   XZ=              8.7728   YZ=             -0.4532
 Octapole moment (field-independent basis, Debye-Ang**2):
  XXX=            -90.4096  YYY=             10.9428  ZZZ=             41.6204  XYY=            -45.7144
  XXY=              9.1897  XXZ=             32.3945  XZZ=            -53.1195  YZZ=              5.4292
  YYZ=             12.1029  XYZ=             -2.3595
 Hexadecapole moment (field-independent basis, Debye-Ang**3):
 XXXX=           -481.4476 YYYY=            -30.1862 ZZZZ=           -116.3188 XXXY=             38.8949
 XXXZ=            135.4684 YYYX=             30.2163 YYYZ=            -12.4330 ZZZX=            119.1281
 ZZZY=            -14.1378 XXYY=           -126.1112 XXZZ=           -156.4075 YYZZ=            -23.8729
 XXYZ=             -9.6266 YYXZ=             35.0434 ZZXY=             15.0095
 N-N= 7.338132584667D+01 E-N=-4.962786291386D+02  KE= 1.492135352704D+02
                          Isotropic Fermi Contact Couplings
        Atom                 a.u.       MegaHertz       Gauss      10(-4) cm-1
     1  C(13)             -0.00000      -0.00000      -0.00000      -0.00000
     2  N(14)              0.00000       0.00000       0.00000       0.00000
     3  N(14)             -0.00000      -0.00000      -0.00000      -0.00000
     4  H(1)              -0.00000      -0.00000      -0.00000      -0.00000
     5  H(1)               0.00000       0.00000       0.00000       0.00000
     6  H(1)              -0.00000      -0.00000      -0.00000      -0.00000
     7  H(1)              -0.00000      -0.00000      -0.00000      -0.00000
 --------------------------------------------------------
       Center         ----  Spin Dipole Couplings  ----
                      3XX-RR        3YY-RR        3ZZ-RR
 --------------------------------------------------------
     1   Atom       -0.000000      0.000000     -0.000000
     2   Atom       -0.000000      0.000000      0.000000
     3   Atom       -0.000000     -0.000000      0.000000
     4   Atom       -0.000000     -0.000000      0.000000
     5   Atom       -0.000000     -0.000000      0.000000
     6   Atom        0.000000      0.000000     -0.000000
     7   Atom       -0.000000      0.000000     -0.000000
 --------------------------------------------------------
                        XY            XZ            YZ
 --------------------------------------------------------
     1   Atom        0.000000     -0.000000      0.000000
     2   Atom        0.000000     -0.000000     -0.000000
     3   Atom       -0.000000      0.000000      0.000000
     4   Atom        0.000000     -0.000000      0.000000
     5   Atom       -0.000000     -0.000000      0.000000
     6   Atom       -0.000000     -0.000000     -0.000000
     7   Atom       -0.000000     -0.000000     -0.000000
 --------------------------------------------------------


 ---------------------------------------------------------------------------------
              Anisotropic Spin Dipole Couplings in Principal Axis System
 ---------------------------------------------------------------------------------

       Atom             a.u.   MegaHertz   Gauss  10(-4) cm-1        Axes

              Baa    -0.0000    -0.000    -0.000    -0.000  0.9136 -0.0904  0.3964
     1 C(13)  Bbb    -0.0000    -0.000    -0.000    -0.000 -0.4062 -0.2467  0.8799
              Bcc     0.0000     0.000     0.000     0.000 -0.0183  0.9649  0.2621
 
              Baa    -0.0000    -0.000    -0.000    -0.000  0.9996 -0.0236  0.0162
     2 N(14)  Bbb     0.0000     0.000     0.000     0.000 -0.0114  0.1902  0.9817
              Bcc     0.0000     0.000     0.000     0.000  0.0262  0.9815 -0.1898
 
              Baa    -0.0000    -0.000    -0.000    -0.000  0.6379  0.7289 -0.2486
     3 N(14)  Bbb    -0.0000    -0.000    -0.000    -0.000  0.7700 -0.5983  0.2216
              Bcc     0.0000     0.000     0.000     0.000 -0.0127  0.3328  0.9429
 
              Baa    -0.0000    -0.000    -0.000    -0.000  0.7302 -0.1785  0.6595
     4 H(1)   Bbb     0.0000     0.000     0.000     0.000  0.0825  0.9812  0.1743
              Bcc     0.0000     0.000     0.000     0.000 -0.6782 -0.0729  0.7312
 
              Baa    -0.0000    -0.000    -0.000    -0.000  0.9584 -0.0620  0.2786
     5 H(1)   Bbb    -0.0000    -0.000    -0.000    -0.000  0.1189  0.9742 -0.1920
              Bcc     0.0000     0.000     0.000     0.000 -0.2595  0.2171  0.9410
 
              Baa    -0.0000    -0.000    -0.000    -0.000  0.5269  0.2278  0.8189
     6 H(1)   Bbb     0.0000     0.000     0.000     0.000 -0.1280  0.9737 -0.1885
              Bcc     0.0000     0.000     0.000     0.000  0.8403  0.0055 -0.5422
 
              Baa    -0.0000    -0.000    -0.000    -0.000  0.7133  0.2852  0.6402
     7 H(1)   Bbb     0.0000     0.000     0.000     0.000  0.0249  0.9025 -0.4299
              Bcc     0.0000     0.000     0.000     0.000  0.7004 -0.3226 -0.6367
 

 ---------------------------------------------------------------------------------

 No NMR shielding tensors so no spin-rotation constants.
 Leave Link  601 at Tue Jan  3 09:23:57 2023, MaxMem=   536870912 cpu:               0.8 elap:               0.5
 (Enter /opt/software/gaussian/g16.c01/l9999.exe)

 Test job not archived.
 1\1\GINC-GRA704\Stability\UwB97XD\Gen\C1H4N2\BHAVUK\03-Jan-2023\0\\#p 
 uwb97xd/gen stable=opt scf=(maxcycle=900,verytightlineq,xqc) integral=
 grid=ultrafine symmetry=None density=current iop(99/18=-1) output=wfn\
 \0001_q000_m01_k00_opt_uwb97xd_def2svpd/0001_q000_m01_k00_force_uwb97x
 d_def2qzvp stable-force\\0,1\C,0,1.0726168695,-0.0701991232,-0.1530126
 33\N,0,2.3779437514,-0.0897456927,-0.2543854931\N,0,3.0833554789,-0.36
 84697824,-1.3087287982\H,0,4.0640493508,-0.2926697434,-1.0476368317\H,
 0,0.6399628731,0.1851542916,0.8085260928\H,0,0.4830438364,-0.309979686
 1,-1.0337247999\H,0,2.8674978397,0.1458797364,0.6131324666\\Version=ES
 64L-G16RevC.01\HF=-149.9447638\S2=0.\S2-1=0.\S2A=0.\RMSD=4.710e-09\Dip
 ole=0.1028887,0.3240632,1.2058048\Quadrupole=3.9194927,-1.4619594,-2.4
 575334,1.7739275,6.5223698,-0.3369223\PG=Unknown\\@

 Writing a WFN file to "0001_q000_m01_k00_force_uwb97xd_def2qzvp.wfn"


 Experience is what you get when you don't get what you want.
 -- Dan Stanford
 Job cpu time:       0 days  0 hours 40 minutes 19.7 seconds.
 Elapsed time:       0 days  0 hours 20 minutes 10.3 seconds.
 File lengths (MBytes):  RWF=    183 Int=      0 D2E=      0 Chk=     11 Scr=      1
 Normal termination of Gaussian 16 at Tue Jan  3 09:23:57 2023.
 Initial command:
 /opt/software/gaussian/g16.c01/l1.exe "/localscratch/bhavuk.2151345.0/Gau-17223.inp" -scrdir="/localscratch/bhavuk.2151345.0/"
 Entering Link 1 = /opt/software/gaussian/g16.c01/l1.exe PID=     13882.
  
 Copyright (c) 1988-2019, Gaussian, Inc.  All Rights Reserved.
  
 This is part of the Gaussian(R) 16 program.  It is based on
 the Gaussian(R) 09 system (copyright 2009, Gaussian, Inc.),
 the Gaussian(R) 03 system (copyright 2003, Gaussian, Inc.),
 the Gaussian(R) 98 system (copyright 1998, Gaussian, Inc.),
 the Gaussian(R) 94 system (copyright 1995, Gaussian, Inc.),
 the Gaussian 92(TM) system (copyright 1992, Gaussian, Inc.),
 the Gaussian 90(TM) system (copyright 1990, Gaussian, Inc.),
 the Gaussian 88(TM) system (copyright 1988, Gaussian, Inc.),
 the Gaussian 86(TM) system (copyright 1986, Carnegie Mellon
 University), and the Gaussian 82(TM) system (copyright 1983,
 Carnegie Mellon University). Gaussian is a federally registered
 trademark of Gaussian, Inc.
  
 This software contains proprietary and confidential information,
 including trade secrets, belonging to Gaussian, Inc.
  
 This software is provided under written license and may be
 used, copied, transmitted, or stored only in accord with that
 written license.
  
 The following legend is applicable only to US Government
 contracts under FAR:
  
                    RESTRICTED RIGHTS LEGEND
  
 Use, reproduction and disclosure by the US Government is
 subject to restrictions as set forth in subparagraphs (a)
 and (c) of the Commercial Computer Software - Restricted
 Rights clause in FAR 52.227-19.
  
 Gaussian, Inc.
 340 Quinnipiac St., Bldg. 40, Wallingford CT 06492
  
  
 ---------------------------------------------------------------
 Warning -- This program may not be used in any manner that
 competes with the business of Gaussian, Inc. or will provide
 assistance to any competitor of Gaussian, Inc.  The licensee
 of this program is prohibited from giving any competitor of
 Gaussian, Inc. access to this program.  By using this program,
 the user acknowledges that Gaussian, Inc. is engaged in the
 business of creating and licensing software in the field of
 computational chemistry and represents and warrants to the
 licensee that it is not a competitor of Gaussian, Inc. and that
 it will not use this program in any manner prohibited above.
 ---------------------------------------------------------------
  

 Cite this work as:
 Gaussian 16, Revision C.01,
 M. J. Frisch, G. W. Trucks, H. B. Schlegel, G. E. Scuseria, 
 M. A. Robb, J. R. Cheeseman, G. Scalmani, V. Barone, 
 G. A. Petersson, H. Nakatsuji, X. Li, M. Caricato, A. V. Marenich, 
 J. Bloino, B. G. Janesko, R. Gomperts, B. Mennucci, H. P. Hratchian, 
 J. V. Ortiz, A. F. Izmaylov, J. L. Sonnenberg, D. Williams-Young, 
 F. Ding, F. Lipparini, F. Egidi, J. Goings, B. Peng, A. Petrone, 
 T. Henderson, D. Ranasinghe, V. G. Zakrzewski, J. Gao, N. Rega, 
 G. Zheng, W. Liang, M. Hada, M. Ehara, K. Toyota, R. Fukuda, 
 J. Hasegawa, M. Ishida, T. Nakajima, Y. Honda, O. Kitao, H. Nakai, 
 T. Vreven, K. Throssell, J. A. Montgomery, Jr., J. E. Peralta, 
 F. Ogliaro, M. J. Bearpark, J. J. Heyd, E. N. Brothers, K. N. Kudin, 
 V. N. Staroverov, T. A. Keith, R. Kobayashi, J. Normand, 
 K. Raghavachari, A. P. Rendell, J. C. Burant, S. S. Iyengar, 
 J. Tomasi, M. Cossi, J. M. Millam, M. Klene, C. Adamo, R. Cammi, 
 J. W. Ochterski, R. L. Martin, K. Morokuma, O. Farkas, 
 J. B. Foresman, and D. J. Fox, Gaussian, Inc., Wallingford CT, 2019.
 
 ******************************************
 Gaussian 16:  ES64L-G16RevC.01  3-Jul-2019
                 3-Jan-2023 
 ******************************************
 %chk=0001_q000_m01_k00_force_uwb97xd_def2qzvp.chk
 %nprocshared=2
 Will use up to    2 processors via shared memory.
 %mem=4GB
 ----------------------------------------------------------------------
 #p uwb97xd/chkbasis force guess=read geom=check scf=(maxcycle=900,very
 tightlineq,xqc) integral=grid=ultrafine symmetry=None density=current 
 pop=(cm5,hlygat,mbs,npa) output=wfx
 ----------------------------------------------------------------------
 1/10=7,29=2,30=1,38=1/1,3;
 2/12=2,15=3,40=1/2;
 3/5=7,6=2,11=2,14=-4,25=1,30=1,67=1,71=1,74=-58,75=-5,116=2/1,2,3;
 4/5=1/1;
 5/5=2,7=900,8=3,13=1,17=3,38=6/2,8;
 6/7=2,8=2,9=2,10=2,15=8,20=15,22=-1,27=100,28=1,40=-1,79=1/1,2,7;
 7/29=1,30=1/1,2,3,16;
 1/10=7,30=1/3;
 99/6=200/99;
 Leave Link    1 at Tue Jan  3 09:23:57 2023, MaxMem=   536870912 cpu:               0.1 elap:               0.1
 (Enter /opt/software/gaussian/g16.c01/l101.exe)
 ----------------------------------------------------------------------
 0001_q000_m01_k00_opt_uwb97xd_def2svpd/0001_q000_m01_k00_force_uwb97xd
 _def2qzvp stable-force
 ----------------------------------------------------------------------
 Structure from the checkpoint file:  "0001_q000_m01_k00_force_uwb97xd_def2qzvp.chk"
 Charge =  0 Multiplicity = 1
 Z-Matrix found in chk file.
 C,0,1.0726168695,-0.0701991232,-0.153012633
 N,0,2.3779437514,-0.0897456927,-0.2543854931
 N,0,3.0833554789,-0.3684697824,-1.3087287982
 H,0,4.0640493508,-0.2926697434,-1.0476368317
 H,0,0.6399628731,0.1851542916,0.8085260928
 H,0,0.4830438364,-0.3099796861,-1.0337247999
 H,0,2.8674978397,0.1458797364,0.6131324666
 Recover connectivity data from disk.
 ITRead=  0  0  0  0  0  0  0
 MicOpt= -1 -1 -1 -1 -1 -1 -1
 NAtoms=      7 NQM=        7 NQMF=       0 NMMI=      0 NMMIF=      0
                NMic=       0 NMicF=      0.
                    Isotopes and Nuclear Properties:
 (Nuclear quadrupole moments (NQMom) in fm**2, nuclear magnetic moments (NMagM)
  in nuclear magnetons)

  Atom         1           2           3           4           5           6           7
 IAtWgt=          12          14          14           1           1           1           1
 AtmWgt=  12.0000000  14.0030740  14.0030740   1.0078250   1.0078250   1.0078250   1.0078250
 NucSpn=           0           2           2           1           1           1           1
 AtZEff=   3.6000000   4.5500000   4.5500000   1.0000000   1.0000000   1.0000000   1.0000000
 NQMom=    0.0000000   2.0440000   2.0440000   0.0000000   0.0000000   0.0000000   0.0000000
 NMagM=    0.0000000   0.4037610   0.4037610   2.7928460   2.7928460   2.7928460   2.7928460
 AtZNuc=   6.0000000   7.0000000   7.0000000   1.0000000   1.0000000   1.0000000   1.0000000
 Leave Link  101 at Tue Jan  3 09:23:57 2023, MaxMem=   536870912 cpu:               0.2 elap:               0.1
 (Enter /opt/software/gaussian/g16.c01/l103.exe)

 GradGradGradGradGradGradGradGradGradGradGradGradGradGradGradGradGradGrad
 Berny optimization.
 Initialization pass.
 Trust Radius=3.00D-01 FncErr=1.00D-07 GrdErr=1.00D-07 EigMax=2.50D+02 EigMin=1.00D-04
 Number of steps in this run=      2 maximum allowed number of steps=      2.
 GradGradGradGradGradGradGradGradGradGradGradGradGradGradGradGradGradGrad

 Leave Link  103 at Tue Jan  3 09:23:57 2023, MaxMem=   536870912 cpu:               0.1 elap:               0.0
 (Enter /opt/software/gaussian/g16.c01/l202.exe)
                          Input orientation:                          
 ---------------------------------------------------------------------
 Center     Atomic      Atomic             Coordinates (Angstroms)
 Number     Number       Type             X           Y           Z
 ---------------------------------------------------------------------
      1          6           0        1.072617   -0.070199   -0.153013
      2          7           0        2.377944   -0.089746   -0.254385
      3          7           0        3.083355   -0.368470   -1.308729
      4          1           0        4.064049   -0.292670   -1.047637
      5          1           0        0.639963    0.185154    0.808526
      6          1           0        0.483044   -0.309980   -1.033725
      7          1           0        2.867498    0.145880    0.613132
 ---------------------------------------------------------------------
                    Distance matrix (angstroms):
                    1          2          3          4          5
     1  C    0.000000
     2  N    1.309403   0.000000
     3  N    2.338315   1.298820   0.000000
     4  H    3.130258   1.874401   1.017681   0.000000
     5  H    1.084874   2.055706   3.280158   3.924032   0.000000
     6  H    1.086621   2.060708   2.615467   3.581074   1.914071
     7  H    1.963483   1.023606   2.001175   2.093374   2.236433
                    6          7
     6  H    0.000000
     7  H    2.933525   0.000000
 Symmetry turned off by external request.
 Stoichiometry    CH4N2
 Rotational constants (GHZ):          71.2642239          11.2793619           9.7380671
 Leave Link  202 at Tue Jan  3 09:23:57 2023, MaxMem=   536870912 cpu:               0.0 elap:               0.0
 (Enter /opt/software/gaussian/g16.c01/l301.exe)
 Basis read from chk: "0001_q000_m01_k00_force_uwb97xd_def2qzvp.chk" (5D, 7F)
 No pseudopotential information found on chk file.
   291 basis functions,   428 primitive gaussians,   356 cartesian basis functions
    12 alpha electrons       12 beta electrons
       nuclear repulsion energy        73.3825490640 Hartrees.
[...]
   182    H    4  pz     Ryd( 2p)     0.00008       1.81065
   183    H    4  pz     Ryd( 3p)     0.00006       4.30869
   184    H    4  pz     Ryd( 4p)     0.00000       7.49358
   185    H    4  dxy    Ryd( 3d)     0.00016       3.58568
   186    H    4  dxy    Ryd( 4d)     0.00000       8.47419
   187    H    4  dxz    Ryd( 3d)     0.00004       3.87227
   188    H    4  dxz    Ryd( 4d)     0.00000       8.66138
   189    H    4  dyz    Ryd( 3d)     0.00002       3.09788
   190    H    4  dyz    Ryd( 4d)     0.00000       7.63252
   191    H    4  dx2y2  Ryd( 3d)     0.00002       4.12408
   192    H    4  dx2y2  Ryd( 4d)     0.00001       8.64184
   193    H    4  dz2    Ryd( 3d)     0.00002       3.38335
   194    H    4  dz2    Ryd( 4d)     0.00000       8.04495
   195    H    4  f(0)   Ryd( 4f)     0.00000       6.42304
   196    H    4  f(C1)  Ryd( 4f)     0.00001       6.87761
   197    H    4  f(S1)  Ryd( 4f)     0.00000       6.14850
   198    H    4  f(C2)  Ryd( 4f)     0.00001       6.61931
   199    H    4  f(S2)  Ryd( 4f)     0.00000       6.67920
   200    H    4  f(C3)  Ryd( 4f)     0.00001       6.82629
   201    H    4  f(S3)  Ryd( 4f)     0.00000       6.86422
 
   202    H    5  S      Val( 1S)     0.40039       0.01744
   203    H    5  S      Ryd( 3S)     0.00012       2.23696
   204    H    5  S      Ryd( 2S)     0.00005       0.82749
   205    H    5  S      Ryd( 4S)     0.00001       4.59048
   206    H    5  px     Ryd( 2p)     0.00003       2.73035
   207    H    5  px     Ryd( 3p)     0.00004       3.41510
   208    H    5  px     Ryd( 4p)     0.00001       7.79141
   209    H    5  py     Ryd( 2p)     0.00031       2.13587
   210    H    5  py     Ryd( 3p)     0.00002       3.03657
   211    H    5  py     Ryd( 4p)     0.00000       7.43977
   212    H    5  pz     Ryd( 2p)     0.00003       3.53963
   213    H    5  pz     Ryd( 3p)     0.00021       4.32439
   214    H    5  pz     Ryd( 4p)     0.00000       8.12195
   215    H    5  dxy    Ryd( 3d)     0.00001       3.03346
   216    H    5  dxy    Ryd( 4d)     0.00000       7.79101
   217    H    5  dxz    Ryd( 3d)     0.00004       3.71736
   218    H    5  dxz    Ryd( 4d)     0.00000       8.39648
   219    H    5  dyz    Ryd( 3d)     0.00011       3.44749
   220    H    5  dyz    Ryd( 4d)     0.00000       8.18539
   221    H    5  dx2y2  Ryd( 3d)     0.00004       3.22249
   222    H    5  dx2y2  Ryd( 4d)     0.00000       7.83325
   223    H    5  dz2    Ryd( 3d)     0.00005       3.85347
   224    H    5  dz2    Ryd( 4d)     0.00000       8.48762
   225    H    5  f(0)   Ryd( 4f)     0.00001       6.85162
   226    H    5  f(C1)  Ryd( 4f)     0.00001       6.76749
   227    H    5  f(S1)  Ryd( 4f)     0.00001       6.74563
   228    H    5  f(C2)  Ryd( 4f)     0.00001       6.59767
   229    H    5  f(S2)  Ryd( 4f)     0.00000       6.55925
   230    H    5  f(C3)  Ryd( 4f)     0.00000       6.23714
   231    H    5  f(S3)  Ryd( 4f)     0.00000       6.21516
 
   232    H    6  S      Val( 1S)     0.39334       0.03613
   233    H    6  S      Ryd( 2S)     0.00051       1.06780
   234    H    6  S      Ryd( 3S)     0.00005       1.41681
   235    H    6  S      Ryd( 4S)     0.00001       5.08532
   236    H    6  px     Ryd( 3p)     0.00009       4.17203
   237    H    6  px     Ryd( 2p)     0.00002       2.66085
   238    H    6  px     Ryd( 4p)     0.00001       7.62821
   239    H    6  py     Ryd( 3p)     0.00002       3.50770
   240    H    6  py     Ryd( 2p)     0.00005       1.93192
   241    H    6  py     Ryd( 4p)     0.00000       7.18247
   242    H    6  pz     Ryd( 3p)     0.00016       4.84239
   243    H    6  pz     Ryd( 2p)     0.00003       2.91289
   244    H    6  pz     Ryd( 4p)     0.00000       7.84005
   245    H    6  dxy    Ryd( 3d)     0.00005       3.07023
   246    H    6  dxy    Ryd( 4d)     0.00000       7.92570
   247    H    6  dxz    Ryd( 3d)     0.00002       3.72913
   248    H    6  dxz    Ryd( 4d)     0.00001       8.43325
   249    H    6  dyz    Ryd( 3d)     0.00011       3.32458
   250    H    6  dyz    Ryd( 4d)     0.00000       8.15149
   251    H    6  dx2y2  Ryd( 3d)     0.00003       3.27778
   252    H    6  dx2y2  Ryd( 4d)     0.00000       7.98884
   253    H    6  dz2    Ryd( 3d)     0.00007       3.65942
   254    H    6  dz2    Ryd( 4d)     0.00000       8.45896
   255    H    6  f(0)   Ryd( 4f)     0.00001       6.84400
   256    H    6  f(C1)  Ryd( 4f)     0.00001       6.72519
   257    H    6  f(S1)  Ryd( 4f)     0.00001       6.68636
   258    H    6  f(C2)  Ryd( 4f)     0.00001       6.55525
   259    H    6  f(S2)  Ryd( 4f)     0.00000       6.52708
   260    H    6  f(C3)  Ryd( 4f)     0.00000       6.36798
   261    H    6  f(S3)  Ryd( 4f)     0.00000       6.33572
 
   262    H    7  S      Val( 1S)     0.30531       0.05406
   263    H    7  S      Ryd( 3S)     0.00028       3.17340
   264    H    7  S      Ryd( 2S)     0.00004       1.52864
   265    H    7  S      Ryd( 4S)     0.00000       3.54810
   266    H    7  px     Ryd( 2p)     0.00031       1.15477
   267    H    7  px     Ryd( 3p)     0.00005       5.22978
   268    H    7  px     Ryd( 4p)     0.00001       7.58845
   269    H    7  py     Ryd( 2p)     0.00018       0.91238
   270    H    7  py     Ryd( 3p)     0.00008       4.65628
   271    H    7  py     Ryd( 4p)     0.00000       6.66211
   272    H    7  pz     Ryd( 2p)     0.00104       1.21430
   273    H    7  pz     Ryd( 3p)     0.00005       6.49316
   274    H    7  pz     Ryd( 4p)     0.00001       7.92925
   275    H    7  dxy    Ryd( 3d)     0.00002       3.97280
   276    H    7  dxy    Ryd( 4d)     0.00000       7.18300
   277    H    7  dxz    Ryd( 3d)     0.00002       4.75543
   278    H    7  dxz    Ryd( 4d)     0.00001       8.18584
   279    H    7  dyz    Ryd( 3d)     0.00002       4.49848
   280    H    7  dyz    Ryd( 4d)     0.00000       7.67331
   281    H    7  dx2y2  Ryd( 3d)     0.00001       4.34710
   282    H    7  dx2y2  Ryd( 4d)     0.00000       7.17459
   283    H    7  dz2    Ryd( 3d)     0.00002       4.96694
   284    H    7  dz2    Ryd( 4d)     0.00001       8.16370
   285    H    7  f(0)   Ryd( 4f)     0.00002       6.98281
   286    H    7  f(C1)  Ryd( 4f)     0.00002       7.01245
   287    H    7  f(S1)  Ryd( 4f)     0.00001       6.80696
   288    H    7  f(C2)  Ryd( 4f)     0.00001       6.61293
   289    H    7  f(S2)  Ryd( 4f)     0.00001       6.60974
   290    H    7  f(C3)  Ryd( 4f)     0.00000       6.29683
   291    H    7  f(S3)  Ryd( 4f)     0.00000       6.23679

 WARNING:  Population inversion found on atom  C    1
           Population inversion found on atom  N    3
           Population inversion found on atom  H    4
           Population inversion found on atom  H    5
           Population inversion found on atom  H    6
           Population inversion found on atom  H    7


 Summary of Natural Population Analysis:                  
                                                          
                                       Natural Population 
                Natural  -----------------------------------------------
    Atom  No    Charge         Core      Valence    Rydberg      Total
 -----------------------------------------------------------------------
      C    1   -0.14894      0.99973     2.13504    0.01416     3.14894
      N    2   -0.10279      0.99977     2.59035    0.01267     3.60279
      N    3   -0.30302      0.99982     2.78375    0.01945     3.80302
      H    4    0.15843      0.00000     0.33964    0.00193     0.34157
      H    5    0.09848      0.00000     0.40039    0.00113     0.40152
      H    6    0.10536      0.00000     0.39334    0.00130     0.39464
      H    7    0.19247      0.00000     0.30531    0.00222     0.30753
 =======================================================================
   * Total *   -0.00000      2.99932     8.94782    0.05286    12.00000

                                 Natural Population      
 --------------------------------------------------------
   Core                       2.99932 ( 99.9774% of   3)
   Valence                    8.94782 ( 99.4202% of   9)
   Natural Minimal Basis     11.94714 ( 99.5595% of  12)
   Natural Rydberg Basis      0.05286 (  0.4405% of  12)
 --------------------------------------------------------

    Atom  No          Natural Electron Configuration
 ----------------------------------------------------------------------------
      C    1      [core]2S( 0.52)2p( 1.62)3p( 0.01)
      N    2      [core]2S( 0.61)2p( 1.98)
      N    3      [core]2S( 0.77)2p( 2.02)3p( 0.01)3d( 0.01)
      H    4            1S( 0.34)
      H    5            1S( 0.40)
      H    6            1S( 0.39)
      H    7            1S( 0.31)


 NBO analysis skipped by request.
 Leave Link  607 at Tue Jan  3 09:24:33 2023, MaxMem=   536870912 cpu:               3.9 elap:               1.9
 (Enter /opt/software/gaussian/g16.c01/l701.exe)
 ... and contract with generalized density number  0.
 Compute integral first derivatives.
 R6Disp: Adding Grimme-D2 dispersion energy 1st derivatives to the gradient.
 Leave Link  701 at Tue Jan  3 09:24:33 2023, MaxMem=   536870912 cpu:               0.5 elap:               0.3
 (Enter /opt/software/gaussian/g16.c01/l702.exe)
 L702 exits ... SP integral derivatives will be done elsewhere.
 Leave Link  702 at Tue Jan  3 09:24:34 2023, MaxMem=   536870912 cpu:               0.1 elap:               0.0
 (Enter /opt/software/gaussian/g16.c01/l703.exe)
 Integral derivatives from FoFJK, PRISM(SPDF).
 Compute integral first derivatives, UseDBF=F ICtDFT=           0.
 Calling FoFJK, ICntrl=      2127 FMM=F ISym2X=0 I1Cent= 0 IOpClX= 1 NMat=1 NMatS=1 NMatT=0.
 FoFJK:  IHMeth= 1 ICntrl=    2127 DoSepK=T KAlg= 0 I1Cent=           0 FoldK=F
 IRaf=         1 NMat=       1 IRICut=       1 DoRegI=T DoRafI=F ISym2E= 0 IDoP0=0 IntGTp=1.
 FoFCou: FMM=F IPFlag=           0 FMFlag=      100000 FMFlg1=         800
         NFxFlg=           0 DoJE=F BraDBF=F KetDBF=F FulRan=T
         wScrn=  0.000000 ICntrl=      2527 IOpCl=  0 I1Cent=           0 NGrid=           0
         NMat0=    1 NMatS0=      1 NMatT0=    0 NMatD0=    1 NMtDS0=    0 NMtDT0=    0
 Symmetry not used in FoFCou.
 Leave Link  703 at Tue Jan  3 09:27:19 2023, MaxMem=   536870912 cpu:             330.3 elap:             165.2
 (Enter /opt/software/gaussian/g16.c01/l716.exe)
 Dipole        = 1.02888555D-01 3.24063376D-01 1.20580528D+00
 -------------------------------------------------------------------
 Center     Atomic                   Forces (Hartrees/Bohr)
 Number     Number              X              Y              Z
 -------------------------------------------------------------------
      1        6          -0.000117457   -0.000071225   -0.000275016
      2        7          -0.001663914    0.001100906    0.004152738
      3        7           0.001821503    0.000164204    0.000572735
      4        1          -0.004055212    0.000074287    0.000364076
      5        1           0.002970899   -0.001681045   -0.006328426
      6        1           0.003775421    0.001592569    0.005864607
      7        1          -0.002731241   -0.001179696   -0.004350713
 -------------------------------------------------------------------
 Cartesian Forces:  Max     0.006328426 RMS     0.002863904
 Z-matrix is all fixed cartesians, so copy forces.
 Force constants in Cartesian coordinates: 
                1             2             3             4             5 
      1  0.979681D+00
      2 -0.379301D-03  0.213865D+00
      3 -0.190645D-01  0.142607D+00  0.707620D+00
      4 -0.643805D+00  0.579070D-02  0.334547D-01  0.112567D+01
      5  0.632347D-02 -0.106234D+00 -0.223587D-01 -0.331382D-01  0.255501D+00
      6  0.354270D-01 -0.223469D-01 -0.184344D+00 -0.143773D+00  0.210309D+00
      7  0.271848D-02  0.887848D-02  0.332925D-01 -0.285848D+00  0.632473D-01
      8  0.405863D-03  0.125485D-01  0.280651D-02  0.556667D-01 -0.952295D-01
      9  0.171151D-02  0.262289D-02  0.215325D-01  0.212339D+00 -0.116800D+00
     10  0.000000D+00 -0.399533D-04  0.107186D-04 -0.760156D-02 -0.133499D-02
     11 -0.399096D-04  0.681015D-02 -0.182702D-02  0.704590D-02  0.450257D-02
     12  0.107071D-04 -0.182705D-02  0.490159D-03  0.265068D-01  0.370720D-02
     13 -0.151899D+00  0.232181D-01  0.887550D-01  0.227506D-02  0.740187D-02
     14  0.222321D-01 -0.700228D-01 -0.649731D-01  0.189247D-03  0.144423D-01
     15  0.850866D-01 -0.649992D-01 -0.296927D+00  0.973426D-03 -0.504849D-03
     16 -0.184388D+00 -0.297881D-01 -0.108208D+00 -0.207961D-02 -0.693893D-02
     17 -0.287722D-01 -0.722180D-01 -0.562752D-01  0.243717D-03  0.170004D-01
     18 -0.104411D+00 -0.562483D-01 -0.264302D+00  0.132579D-02  0.166311D-04
     19 -0.230818D-02 -0.767988D-02 -0.282404D-01 -0.188615D+00 -0.355605D-01
     20  0.229955D-03  0.152509D-01  0.203553D-04 -0.357981D-01 -0.899827D-01
     21  0.124008D-02  0.191593D-03  0.159310D-01 -0.130826D+00 -0.743693D-01
                6             7             8             9            10 
      6  0.986309D+00
      7  0.240594D+00  0.668956D+00
      8 -0.116633D+00 -0.324380D-01  0.846813D-01
      9 -0.504269D+00 -0.134507D+00  0.140554D+00  0.574006D+00
     10 -0.473293D-02 -0.410677D+00 -0.278084D-01 -0.950666D-01  0.418278D+00
     11  0.352379D-02 -0.361895D-01 -0.231711D-01 -0.184397D-01  0.291372D-01
     12  0.167545D-01 -0.126306D+00 -0.186231D-01 -0.846654D-01  0.998012D-01
     13  0.278675D-01  0.000000D+00 -0.447309D-04  0.120004D-04  0.000000D+00
     14 -0.347895D-03 -0.447767D-04  0.764067D-02 -0.204983D-02  0.000000D+00
     15  0.126317D-01  0.120092D-04 -0.204924D-02  0.549768D-03  0.000000D+00
     16 -0.254401D-01  0.000000D+00  0.448748D-04 -0.120390D-04  0.000000D+00
     17 -0.139769D-03  0.448434D-04 -0.765204D-02  0.205288D-02  0.000000D+00
     18  0.170683D-01 -0.120329D-04  0.205329D-02 -0.550853D-03  0.000000D+00
     19 -0.129942D+00  0.248506D-01  0.417370D-02  0.155231D-01  0.000000D+00
     20 -0.743652D-01 -0.349835D-02  0.211822D-01 -0.794026D-02  0.462088D-04
     21 -0.344150D+00 -0.130734D-01 -0.810855D-02 -0.660326D-02 -0.123974D-04
               11            12            13            14            15 
     11  0.197348D-01
     12  0.146298D-01  0.679877D-01
     13  0.000000D+00  0.000000D+00  0.120347D+00
     14  0.000000D+00  0.000000D+00 -0.258292D-01  0.469624D-01
     15  0.000000D+00  0.000000D+00 -0.983283D-01  0.699484D-01  0.291298D+00
     16  0.000000D+00  0.000000D+00  0.292766D-01  0.340314D-02  0.122695D-01
     17  0.000000D+00  0.000000D+00 -0.479540D-02  0.941143D-02 -0.465711D-02
     18  0.000000D+00  0.000000D+00 -0.182930D-01 -0.484049D-02 -0.694563D-02
     19  0.463037D-04 -0.124225D-04  0.000000D+00  0.494397D-04 -0.132598D-04
     20 -0.787642D-02  0.211311D-02  0.493749D-04 -0.843392D-02  0.226199D-02
     21  0.211317D-02 -0.566929D-03 -0.132473D-04  0.226283D-02 -0.606894D-03
               16            17            18            19            20 
     16  0.157191D+00
     17  0.333285D-01  0.450118D-01
     18  0.121377D+00  0.612854D-01  0.254122D+00
     19  0.000000D+00 -0.495133D-04  0.132860D-04  0.166072D+00
     20 -0.495337D-04  0.844647D-02 -0.226646D-02  0.390205D-01  0.614135D-01
     21  0.132899D-04 -0.226619D-02  0.608092D-03  0.142672D+00  0.801764D-01
               21 
     21  0.335388D+00
 Leave Link  716 at Tue Jan  3 09:27:19 2023, MaxMem=   536870912 cpu:               0.1 elap:               0.1
 (Enter /opt/software/gaussian/g16.c01/l103.exe)

 GradGradGradGradGradGradGradGradGradGradGradGradGradGradGradGradGradGrad
 Berny optimization.
 Search for a local minimum.
 Step number   1 out of a maximum of    2
 All quantities printed in internal units (Hartrees-Bohrs-Radians)
 Second derivative matrix not updated -- first step.
 ITU=  0
     Eigenvalues ---    0.02409   0.03062   0.03370   0.05977   0.08903
     Eigenvalues ---    0.11483   0.14278   0.19866   0.30111   0.35087
     Eigenvalues ---    0.61127   0.81664   1.00827   1.49337   1.92763
 Angle between quadratic step and forces=  43.20 degrees.
 Linear search not attempted -- first point.
 B after Tr=    -0.000099    0.000173    0.000625
         Rot=    1.000000    0.000001   -0.000216    0.000059 Ang=   0.03 deg.
 Variable       Old X    -DE/DX   Delta X   Delta X   Delta X     New X
                                 (Linear)    (Quad)   (Total)
    X1        2.02695  -0.00012   0.00000   0.00813   0.00789   2.03484
    Y1       -0.13266  -0.00007   0.00000  -0.00040  -0.00047  -0.13312
    Z1       -0.28915  -0.00028   0.00000  -0.00172  -0.00198  -0.29113
    X2        4.49366  -0.00166   0.00000  -0.00223  -0.00256   4.49110
    Y2       -0.16959   0.00110   0.00000  -0.00053  -0.00088  -0.17047
    Z2       -0.48072   0.00415   0.00000  -0.00188  -0.00320  -0.48391
    X3        5.82670   0.00182   0.00000  -0.00664  -0.00789   5.81880
    Y3       -0.69631   0.00016   0.00000  -0.00036  -0.00087  -0.69718
    Z3       -2.47314   0.00057   0.00000  -0.00118  -0.00307  -2.47621
    X4        7.67994  -0.00406   0.00000  -0.02305  -0.02406   7.65588
    Y4       -0.55307   0.00007   0.00000   0.00662   0.00589  -0.54717
    Z4       -1.97975   0.00036   0.00000   0.02521   0.02253  -1.95722
    X5        1.20935   0.00297   0.00000   0.01982   0.02042   1.22977
    Y5        0.34989  -0.00168   0.00000  -0.00479  -0.00476   0.34513
    Z5        1.52789  -0.00633   0.00000  -0.01820  -0.01811   1.50978
    X6        0.91282   0.00378   0.00000   0.01576   0.01476   0.92758
    Y6       -0.58578   0.00159   0.00000   0.00461   0.00467  -0.58110
    Z6       -1.95346   0.00586   0.00000   0.01687   0.01710  -1.93636
    X7        5.41879  -0.00273   0.00000  -0.00898  -0.00855   5.41023
    Y7        0.27567  -0.00118   0.00000  -0.00314  -0.00360   0.27208
    Z7        1.15865  -0.00435   0.00000  -0.01155  -0.01327   1.14538
         Item               Value     Threshold  Converged?
 Maximum Force            0.006328     0.000450     NO 
 RMS     Force            0.002864     0.000300     NO 
 Maximum Displacement     0.024059     0.001800     NO 
 RMS     Displacement     0.011627     0.001200     NO 
 Predicted change in Energy=-2.558096D-04
 GradGradGradGradGradGradGradGradGradGradGradGradGradGradGradGradGradGrad

 Leave Link  103 at Tue Jan  3 09:27:19 2023, MaxMem=   536870912 cpu:               0.1 elap:               0.1
 (Enter /opt/software/gaussian/g16.c01/l9999.exe)
 Unable to Open any file for archive entry.
 1\1\GINC-GRA704\Force\UwB97XD\Gen\C1H4N2\BHAVUK\03-Jan-2023\0\\#p uwb9
 7xd/chkbasis force guess=read geom=check scf=(maxcycle=900,verytightli
 neq,xqc) integral=grid=ultrafine symmetry=None density=current pop=(cm
 5,hlygat,mbs,npa) output=wfx\\0001_q000_m01_k00_opt_uwb97xd_def2svpd/0
 001_q000_m01_k00_force_uwb97xd_def2qzvp stable-force\\0,1\C,1.07261686
 95,-0.0701991232,-0.153012633\N,2.3779437514,-0.0897456927,-0.25438549
 31\N,3.0833554789,-0.3684697824,-1.3087287982\H,4.0640493508,-0.292669
 7434,-1.0476368317\H,0.6399628731,0.1851542916,0.8085260928\H,0.483043
 8364,-0.3099796861,-1.0337247999\H,2.8674978397,0.1458797364,0.6131324
 666\\Version=ES64L-G16RevC.01\HF=-149.9447638\S2=0.\S2-1=0.\S2A=0.\RMS
 D=1.112e-09\RMSF=2.864e-03\Dipole=0.1028886,0.3240634,1.2058053\Quadru
 pole=3.9194926,-1.461959,-2.4575336,1.7739281,6.5223719,-0.3369225\PG=
 Unknown\\@
 The archive entry for this job was punched.

 Writing a WFNX file to "0001_q000_m01_k00_force_uwb97xd_def2qzvp.wfx"


 THE LENGTH OF A MEETING IS PROPORTIONAL TO THE
 SQUARE OF THE PARTICIPANTS.
 Job cpu time:       0 days  0 hours  6 minutes 42.8 seconds.
 Elapsed time:       0 days  0 hours  3 minutes 21.4 seconds.
 File lengths (MBytes):  RWF=     84 Int=      0 D2E=      0 Chk=     11 Scr=      1
 Normal termination of Gaussian 16 at Tue Jan  3 09:27:19 2023.
