 Entering Gaussian System, Link 0=g16
 Input=0001_q000_m01_k00_force_uhf_def2svp.com
 Output=0001_q000_m01_k00_force_uhf_def2svp.log
 Initial command:
 /opt/software/gaussian/g16.c01/l1.exe "/localscratch/bhavuk.2151340.0/Gau-13001.inp" -scrdir="/localscratch/bhavuk.2151340.0/"
 Entering Link 1 = /opt/software/gaussian/g16.c01/l1.exe PID=     13002.
  
 Copyright (c) 1988-2019, Gaussian, Inc.  All Rights Reserved.
  
 This is part of the Gaussian(R) 16 program.  It is based on
 the Gaussian(R) 09 system (copyright 2009, Gaussian, Inc.),
 the Gaussian(R) 03 system (copyright 2003, Gaussian, Inc.),
 the Gaussian(R) 98 system (copyright 1998, Gaussian, Inc.),
 the Gaussian(R) 94 system (copyright 1995, Gaussian, Inc.),
 the Gaussian 92(TM) system (copyright 1992, Gaussian, Inc.),
 the Gaussian 90(TM) system (copyright 1990, Gaussian, Inc.),
 the Gaussian 88(TM) system (copyright 1988, Gaussian, Inc.),
 the Gaussian 86(TM) system (copyright 1986, Carnegie Mellon
 University), and the Gaussian 82(TM) system (copyright 1983,
 Carnegie Mellon University). Gaussian is a federally registered
 trademark of Gaussian, Inc.
  
 This software contains proprietary and confidential information,
 including trade secrets, belonging to Gaussian, Inc.
  
 This software is provided under written license and may be
 used, copied, transmitted, or stored only in accord with that
 written license.
  
 The following legend is applicable only to US Government
 contracts under FAR:
  
                    RESTRICTED RIGHTS LEGEND
  
 Use, reproduction and disclosure by the US Government is
 subject to restrictions as set forth in subparagraphs (a)
 and (c) of the Commercial Computer Software - Restricted
 Rights clause in FAR 52.227-19.
  
 Gaussian, Inc.
 340 Quinnipiac St., Bldg. 40, Wallingford CT 06492
  
  
 ---------------------------------------------------------------
 Warning -- This program may not be used in any manner that
 competes with the business of Gaussian, Inc. or will provide
 assistance to any competitor of Gaussian, Inc.  The licensee
 of this program is prohibited from giving any competitor of
 Gaussian, Inc. access to this program.  By using this program,
 the user acknowledges that Gaussian, Inc. is engaged in the
 business of creating and licensing software in the field of
 computational chemistry and represents and warrants to the
 licensee that it is not a competitor of Gaussian, Inc. and that
 it will not use this program in any manner prohibited above.
 ---------------------------------------------------------------
  

 Cite this work as:
 Gaussian 16, Revision C.01,
 M. J. Frisch, G. W. Trucks, H. B. Schlegel, G. E. Scuseria, 
 M. A. Robb, J. R. Cheeseman, G. Scalmani, V. Barone, 
 G. A. Petersson, H. Nakatsuji, X. Li, M. Caricato, A. V. Marenich, 
 J. Bloino, B. G. Janesko, R. Gomperts, B. Mennucci, H. P. Hratchian, 
 J. V. Ortiz, A. F. Izmaylov, J. L. Sonnenberg, D. Williams-Young, 
 F. Ding, F. Lipparini, F. Egidi, J. Goings, B. Peng, A. Petrone, 
 T. Henderson, D. Ranasinghe, V. G. Zakrzewski, J. Gao, N. Rega, 
 G. Zheng, W. Liang, M. Hada, M. Ehara, K. Toyota, R. Fukuda, 
 J. Hasegawa, M. Ishida, T. Nakajima, Y. Honda, O. Kitao, H. Nakai, 
 T. Vreven, K. Throssell, J. A. Montgomery, Jr., J. E. Peralta, 
 F. Ogliaro, M. J. Bearpark, J. J. Heyd, E. N. Brothers, K. N. Kudin, 
 V. N. Staroverov, T. A. Keith, R. Kobayashi, J. Normand, 
 K. Raghavachari, A. P. Rendell, J. C. Burant, S. S. Iyengar, 
 J. Tomasi, M. Cossi, J. M. Millam, M. Klene, C. Adamo, R. Cammi, 
 J. W. Ochterski, R. L. Martin, K. Morokuma, O. Farkas, 
 J. B. Foresman, and D. J. Fox, Gaussian, Inc., Wallingford CT, 2019.
 
 ******************************************
 Gaussian 16:  ES64L-G16RevC.01  3-Jul-2019
                 3-Jan-2023 
 ******************************************
 %chk=0001_q000_m01_k00_force_uhf_def2svp.chk
 %nprocshared=2
 Will use up to    2 processors via shared memory.
 %mem=4GB
 ----------------------------------------------------------------------
 #p uhf/gen stable=opt scf=(maxcycle=900,verytightlineq,xqc) integral=g
 rid=ultrafine symmetry=None density=current iop(99/18=-1) output=wfn
 ----------------------------------------------------------------------
 1/38=1,172=1/1;
 2/12=2,15=3,17=6,18=5,40=1/2;
 3/5=7,11=2,25=1,30=1,75=-5,116=2/1,2,3;
 4//1;
 5/5=2,7=900,8=3,13=1,17=3,38=5/2,8;
 6/7=2,8=2,9=2,10=2,22=-1,28=1/1;
 8/6=1,10=90,11=11/1;
 9/8=-3,42=1,46=1/14;
 5/5=2,7=900,8=3,17=43,38=5/8(-2);
 6/7=2,8=2,9=2,10=2,22=-1,28=1/1;
 99/5=1,6=100,9=1,18=-1/99;
 Leave Link    1 at Tue Jan  3 09:03:33 2023, MaxMem=   536870912 cpu:               0.1 elap:               0.1
 (Enter /opt/software/gaussian/g16.c01/l101.exe)
 ----------------------------------------------------------------------
 0001_q000_m01_k00_opt_uwb97xd_def2svpd/0001_q000_m01_k00_force_uhf_def
 2svp stable-force
 ----------------------------------------------------------------------
 Symbolic Z-matrix:
 Charge =  0 Multiplicity = 1
 C                     1.07262  -0.0702   -0.15301 
 N                     2.37794  -0.08975  -0.25439 
 N                     3.08336  -0.36847  -1.30873 
 H                     4.06405  -0.29267  -1.04764 
 H                     0.63996   0.18515   0.80853 
 H                     0.48304  -0.30998  -1.03372 
 H                     2.8675    0.14588   0.61313 
 
 ITRead=  0  0  0  0  0  0  0
 MicOpt= -1 -1 -1 -1 -1 -1 -1
 NAtoms=      7 NQM=        7 NQMF=       0 NMMI=      0 NMMIF=      0
                NMic=       0 NMicF=      0.
                    Isotopes and Nuclear Properties:
 (Nuclear quadrupole moments (NQMom) in fm**2, nuclear magnetic moments (NMagM)
  in nuclear magnetons)

  Atom         1           2           3           4           5           6           7
 IAtWgt=          12          14          14           1           1           1           1
 AtmWgt=  12.0000000  14.0030740  14.0030740   1.0078250   1.0078250   1.0078250   1.0078250
 NucSpn=           0           2           2           1           1           1           1
 AtZEff=  -0.0000000  -0.0000000  -0.0000000  -0.0000000  -0.0000000  -0.0000000  -0.0000000
 NQMom=    0.0000000   2.0440000   2.0440000   0.0000000   0.0000000   0.0000000   0.0000000
 NMagM=    0.0000000   0.4037610   0.4037610   2.7928460   2.7928460   2.7928460   2.7928460
 AtZNuc=   6.0000000   7.0000000   7.0000000   1.0000000   1.0000000   1.0000000   1.0000000
 Leave Link  101 at Tue Jan  3 09:03:34 2023, MaxMem=   536870912 cpu:               0.5 elap:               0.3
 (Enter /opt/software/gaussian/g16.c01/l202.exe)
                          Input orientation:                          
 ---------------------------------------------------------------------
 Center     Atomic      Atomic             Coordinates (Angstroms)
 Number     Number       Type             X           Y           Z
 ---------------------------------------------------------------------
      1          6           0        1.072617   -0.070199   -0.153013
      2          7           0        2.377944   -0.089746   -0.254385
      3          7           0        3.083355   -0.368470   -1.308729
      4          1           0        4.064049   -0.292670   -1.047637
      5          1           0        0.639963    0.185154    0.808526
      6          1           0        0.483044   -0.309980   -1.033725
      7          1           0        2.867498    0.145880    0.613132
 ---------------------------------------------------------------------
                    Distance matrix (angstroms):
                    1          2          3          4          5
     1  C    0.000000
     2  N    1.309403   0.000000
     3  N    2.338315   1.298820   0.000000
     4  H    3.130258   1.874401   1.017681   0.000000
     5  H    1.084874   2.055706   3.280158   3.924032   0.000000
     6  H    1.086621   2.060708   2.615467   3.581074   1.914071
     7  H    1.963483   1.023606   2.001175   2.093374   2.236433
                    6          7
     6  H    0.000000
     7  H    2.933525   0.000000
 Symmetry turned off by external request.
 Stoichiometry    CH4N2
 Rotational constants (GHZ):          71.2642239          11.2793619           9.7380671
 Leave Link  202 at Tue Jan  3 09:03:34 2023, MaxMem=   536870912 cpu:               0.0 elap:               0.0
 (Enter /opt/software/gaussian/g16.c01/l301.exe)
 General basis read from cards:  (5D, 7F)
 Centers:       4      5      6      7
 S 3 1.00
     Exponent=  1.3010701000D+01 Coefficients=  1.9682158000D-02
     Exponent=  1.9622572000D+00 Coefficients=  1.3796524000D-01
     Exponent=  4.4453796000D-01 Coefficients=  4.7831935000D-01
 S 1 1.00
     Exponent=  1.2194962000D-01 Coefficients=  1.0000000000D+00
 P 1 1.00
     Exponent=  8.0000000000D-01 Coefficients=  1.0000000000D+00
 ****
 Centers:       1
 S 5 1.00
     Exponent=  1.2384016938D+03 Coefficients=  5.4568832082D-03
     Exponent=  1.8629004992D+02 Coefficients=  4.0638409211D-02
     Exponent=  4.2251176346D+01 Coefficients=  1.8025593888D-01
     Exponent=  1.1676557932D+01 Coefficients=  4.6315121755D-01
     Exponent=  3.5930506482D+00 Coefficients=  4.4087173314D-01
 S 1 1.00
     Exponent=  4.0245147363D-01 Coefficients=  1.0000000000D+00
 S 1 1.00
     Exponent=  1.3090182668D-01 Coefficients=  1.0000000000D+00
 P 3 1.00
     Exponent=  9.4680970621D+00 Coefficients=  3.8387871728D-02
     Exponent=  2.0103545142D+00 Coefficients=  2.1117025112D-01
     Exponent=  5.4771004707D-01 Coefficients=  5.1328172114D-01
 P 1 1.00
     Exponent=  1.5268613795D-01 Coefficients=  1.0000000000D+00
 D 1 1.00
     Exponent=  8.0000000000D-01 Coefficients=  1.0000000000D+00
 ****
 Centers:       2      3
 S 5 1.00
     Exponent=  1.7128415853D+03 Coefficients= -5.3934125305D-03
     Exponent=  2.5764812677D+02 Coefficients= -4.0221581118D-02
     Exponent=  5.8458245853D+01 Coefficients= -1.7931144990D-01
     Exponent=  1.6198367905D+01 Coefficients= -4.6376317823D-01
     Exponent=  5.0052600809D+00 Coefficients= -4.4171422662D-01
 S 1 1.00
     Exponent=  5.8731856571D-01 Coefficients=  1.0000000000D+00
 S 1 1.00
     Exponent=  1.8764592253D-01 Coefficients=  1.0000000000D+00
 P 3 1.00
     Exponent=  1.3571470233D+01 Coefficients= -4.0072398852D-02
     Exponent=  2.9257372874D+00 Coefficients= -2.1807045028D-01
     Exponent=  7.9927750754D-01 Coefficients= -5.1294466049D-01
 P 1 1.00
     Exponent=  2.1954348034D-01 Coefficients=  1.0000000000D+00
 D 1 1.00
     Exponent=  1.0000000000D+00 Coefficients=  1.0000000000D+00
 ****
 Ernie: Thresh=  0.10000D-02 Tol=  0.10000D-05 Strict=F.
    62 basis functions,   103 primitive gaussians,    65 cartesian basis functions
    12 alpha electrons       12 beta electrons
       nuclear repulsion energy        73.3825490640 Hartrees.
 IExCor=    0 DFT=F Ex=HF Corr=None ExCW=0 ScaHFX=  1.000000
 ScaDFX=  1.000000  1.000000  1.000000  1.000000 ScalE2=  1.000000  1.000000
 IRadAn=      5 IRanWt=     -1 IRanGd=            0 ICorTp=0 IEmpDi=  4
 NAtoms=    7 NActive=    7 NUniq=    7 SFac= 1.00D+00 NAtFMM=   60 NAOKFM=F Big=F
 Integral buffers will be    131072 words long.
 Raffenetti 2 integral format.
 Two-electron integral symmetry is turned off.
 Leave Link  301 at Tue Jan  3 09:03:34 2023, MaxMem=   536870912 cpu:               0.1 elap:               0.1
 (Enter /opt/software/gaussian/g16.c01/l302.exe)
 NPDir=0 NMtPBC=     1 NCelOv=     1 NCel=       1 NClECP=     1 NCelD=      1
         NCelK=      1 NCelE2=     1 NClLst=     1 CellRange=     0.0.
 One-electron integrals computed using PRISM.
 NBasis=    62 RedAO= T EigKep=  5.91D-03  NBF=    62
 NBsUse=    62 1.00D-06 EigRej= -1.00D+00 NBFU=    62
 Leave Link  302 at Tue Jan  3 09:03:34 2023, MaxMem=   536870912 cpu:               0.2 elap:               0.1
 (Enter /opt/software/gaussian/g16.c01/l303.exe)
 DipDrv:  MaxL=1.
 Leave Link  303 at Tue Jan  3 09:03:34 2023, MaxMem=   536870912 cpu:               0.1 elap:               0.0
 (Enter /opt/software/gaussian/g16.c01/l401.exe)
 ExpMin= 1.22D-01 ExpMax= 1.71D+03 ExpMxC= 2.58D+02 IAcc=3 IRadAn=         5 AccDes= 0.00D+00
 Harris functional with IExCor=  205 and IRadAn=       5 diagonalized for initial guess.
 HarFok:  IExCor=  205 AccDes= 0.00D+00 IRadAn=         5 IDoV= 1 UseB2=F ITyADJ=14
 ICtDFT=  3500011 ScaDFX=  1.000000  1.000000  1.000000  1.000000
 FoFCou: FMM=F IPFlag=           0 FMFlag=      100000 FMFlg1=           0
         NFxFlg=           0 DoJE=T BraDBF=F KetDBF=T FulRan=T
         wScrn=  0.000000 ICntrl=       500 IOpCl=  0 I1Cent=   200000004 NGrid=           0
         NMat0=    1 NMatS0=      1 NMatT0=    0 NMatD0=    1 NMtDS0=    0 NMtDT0=    0
 Symmetry not used in FoFCou.
 Harris En= -149.089318656888    
 JPrj=0 DoOrth=F DoCkMO=F.
 Initial guess <Sx>= 0.0000 <Sy>= 0.0000 <Sz>= 0.0000 <S**2>= 0.0000 S= 0.0000
 Leave Link  401 at Tue Jan  3 09:03:34 2023, MaxMem=   536870912 cpu:               0.6 elap:               0.3
 (Enter /opt/software/gaussian/g16.c01/l502.exe)
 Keep R1 and R2 ints in memory in canonical form, NReq=4666217.
 FoFCou: FMM=F IPFlag=           0 FMFlag=           0 FMFlg1=           0
         NFxFlg=           0 DoJE=F BraDBF=F KetDBF=F FulRan=T
         wScrn=  0.000000 ICntrl=       600 IOpCl=  0 I1Cent=           0 NGrid=           0
         NMat0=    1 NMatS0=   1953 NMatT0=    0 NMatD0=    1 NMtDS0=    0 NMtDT0=    0
 Symmetry not used in FoFCou.
 Two-electron integral symmetry not used.
 UHF open shell SCF:
 Using DIIS extrapolation, IDIIS=  1040.
 NGot=   536870912 LenX=   533045055 LenY=   533040389
 Requested convergence on RMS density matrix=1.00D-08 within 128 cycles.
 Requested convergence on MAX density matrix=1.00D-06.
 Requested convergence on             energy=1.00D-06.
 No special actions if energy rises.

 Cycle   1  Pass 1  IDiag  1:
 E= -148.737143386913    
 DIIS: error= 5.38D-02 at cycle   1 NSaved=   1.
 NSaved= 1 IEnMin= 1 EnMin= -148.737143386913     IErMin= 1 ErrMin= 5.38D-02
 ErrMax= 5.38D-02  0.00D+00 EMaxC= 1.00D-01 BMatC= 6.46D-01 BMatP= 6.46D-01
 IDIUse=3 WtCom= 4.62D-01 WtEn= 5.38D-01
 Coeff-Com:  0.100D+01
 Coeff-En:   0.100D+01
 Coeff:      0.100D+01
 Gap=     0.393 Goal=   None    Shift=    0.000
 Gap=     0.393 Goal=   None    Shift=    0.000
 GapD=    0.393 DampG=1.000 DampE=0.500 DampFc=0.5000 IDamp=-1.
 Damping current iteration by 5.00D-01
 RMSDP=7.43D-03 MaxDP=1.16D-01              OVMax= 1.18D-01

 Cycle   2  Pass 1  IDiag  1:
 E= -148.803057931914     Delta-E=       -0.065914545001 Rises=F Damp=T
 DIIS: error= 1.84D-02 at cycle   2 NSaved=   2.
 NSaved= 2 IEnMin= 2 EnMin= -148.803057931914     IErMin= 2 ErrMin= 1.84D-02
 ErrMax= 1.84D-02  0.00D+00 EMaxC= 1.00D-01 BMatC= 1.13D-01 BMatP= 6.46D-01
 IDIUse=3 WtCom= 8.16D-01 WtEn= 1.84D-01
 Coeff-Com: -0.539D+00 0.154D+01
 Coeff-En:   0.000D+00 0.100D+01
 Coeff:     -0.440D+00 0.144D+01
 Gap=     0.429 Goal=   None    Shift=    0.000
 Gap=     0.429 Goal=   None    Shift=    0.000
 RMSDP=2.50D-03 MaxDP=3.48D-02 DE=-6.59D-02 OVMax= 3.62D-02

 Cycle   3  Pass 1  IDiag  1:
 E= -148.859822746574     Delta-E=       -0.056764814660 Rises=F Damp=F
 DIIS: error= 2.19D-03 at cycle   3 NSaved=   3.
 NSaved= 3 IEnMin= 3 EnMin= -148.859822746574     IErMin= 3 ErrMin= 2.19D-03
 ErrMax= 2.19D-03  0.00D+00 EMaxC= 1.00D-01 BMatC= 2.68D-03 BMatP= 1.13D-01
 IDIUse=3 WtCom= 9.78D-01 WtEn= 2.19D-02
 Coeff-Com: -0.750D-01 0.127D+00 0.948D+00
 Coeff-En:   0.000D+00 0.000D+00 0.100D+01
 Coeff:     -0.733D-01 0.125D+00 0.949D+00
 Gap=     0.413 Goal=   None    Shift=    0.000
 Gap=     0.413 Goal=   None    Shift=    0.000
 RMSDP=4.99D-04 MaxDP=7.49D-03 DE=-5.68D-02 OVMax= 7.03D-03

 Cycle   4  Pass 1  IDiag  1:
 E= -148.860343141330     Delta-E=       -0.000520394756 Rises=F Damp=F
 DIIS: error= 1.17D-03 at cycle   4 NSaved=   4.
 NSaved= 4 IEnMin= 4 EnMin= -148.860343141330     IErMin= 4 ErrMin= 1.17D-03
 ErrMax= 1.17D-03  0.00D+00 EMaxC= 1.00D-01 BMatC= 4.56D-04 BMatP= 2.68D-03
 IDIUse=3 WtCom= 9.88D-01 WtEn= 1.17D-02
 Coeff-Com: -0.585D-03-0.209D-01 0.276D+00 0.746D+00
 Coeff-En:   0.000D+00 0.000D+00 0.000D+00 0.100D+01
 Coeff:     -0.578D-03-0.206D-01 0.272D+00 0.749D+00
 Gap=     0.415 Goal=   None    Shift=    0.000
 Gap=     0.415 Goal=   None    Shift=    0.000
 RMSDP=1.93D-04 MaxDP=3.06D-03 DE=-5.20D-04 OVMax= 6.87D-03

 Cycle   5  Pass 1  IDiag  1:
 E= -148.860486935662     Delta-E=       -0.000143794333 Rises=F Damp=F
 DIIS: error= 4.21D-04 at cycle   5 NSaved=   5.
 NSaved= 5 IEnMin= 5 EnMin= -148.860486935662     IErMin= 5 ErrMin= 4.21D-04
 ErrMax= 4.21D-04  0.00D+00 EMaxC= 1.00D-01 BMatC= 6.28D-05 BMatP= 4.56D-04
 IDIUse=3 WtCom= 9.96D-01 WtEn= 4.21D-03
 Coeff-Com:  0.434D-02-0.579D-02-0.120D+00 0.588D-01 0.106D+01
 Coeff-En:   0.000D+00 0.000D+00 0.000D+00 0.000D+00 0.100D+01
 Coeff:      0.432D-02-0.576D-02-0.119D+00 0.585D-01 0.106D+01
 Gap=     0.415 Goal=   None    Shift=    0.000
 Gap=     0.415 Goal=   None    Shift=    0.000
 RMSDP=1.23D-04 MaxDP=2.32D-03 DE=-1.44D-04 OVMax= 1.59D-03

 Cycle   6  Pass 1  IDiag  1:
 E= -148.860514078375     Delta-E=       -0.000027142713 Rises=F Damp=F
 DIIS: error= 2.22D-04 at cycle   6 NSaved=   6.
 NSaved= 6 IEnMin= 6 EnMin= -148.860514078375     IErMin= 6 ErrMin= 2.22D-04
 ErrMax= 2.22D-04  0.00D+00 EMaxC= 1.00D-01 BMatC= 8.33D-06 BMatP= 6.28D-05
 IDIUse=3 WtCom= 9.98D-01 WtEn= 2.22D-03
 Coeff-Com:  0.618D-03 0.212D-02-0.663D-01-0.454D-01 0.155D+00 0.954D+00
 Coeff-En:   0.000D+00 0.000D+00 0.000D+00 0.000D+00 0.000D+00 0.100D+01
 Coeff:      0.616D-03 0.212D-02-0.662D-01-0.453D-01 0.154D+00 0.954D+00
 Gap=     0.415 Goal=   None    Shift=    0.000
 Gap=     0.415 Goal=   None    Shift=    0.000
 RMSDP=5.71D-05 MaxDP=8.64D-04 DE=-2.71D-05 OVMax= 1.77D-03

 Cycle   7  Pass 1  IDiag  1:
 E= -148.860520013341     Delta-E=       -0.000005934966 Rises=F Damp=F
 DIIS: error= 1.15D-04 at cycle   7 NSaved=   7.
 NSaved= 7 IEnMin= 7 EnMin= -148.860520013341     IErMin= 7 ErrMin= 1.15D-04
 ErrMax= 1.15D-04  0.00D+00 EMaxC= 1.00D-01 BMatC= 2.96D-06 BMatP= 8.33D-06
 IDIUse=3 WtCom= 9.99D-01 WtEn= 1.15D-03
 Coeff-Com: -0.128D-02 0.171D-02 0.306D-01 0.148D-01-0.353D+00 0.976D-01
 Coeff-Com:  0.121D+01
 Coeff-En:   0.000D+00 0.000D+00 0.000D+00 0.000D+00 0.000D+00 0.000D+00
 Coeff-En:   0.100D+01
 Coeff:     -0.128D-02 0.171D-02 0.305D-01 0.148D-01-0.352D+00 0.975D-01
 Coeff:      0.121D+01
 Gap=     0.415 Goal=   None    Shift=    0.000
 Gap=     0.415 Goal=   None    Shift=    0.000
 RMSDP=4.47D-05 MaxDP=9.63D-04 DE=-5.93D-06 OVMax= 9.70D-04

 Cycle   8  Pass 1  IDiag  1:
 E= -148.860522014624     Delta-E=       -0.000002001283 Rises=F Damp=F
 DIIS: error= 2.15D-05 at cycle   8 NSaved=   8.
 NSaved= 8 IEnMin= 8 EnMin= -148.860522014624     IErMin= 8 ErrMin= 2.15D-05
 ErrMax= 2.15D-05  0.00D+00 EMaxC= 1.00D-01 BMatC= 2.06D-07 BMatP= 2.96D-06
 IDIUse=1 WtCom= 1.00D+00 WtEn= 0.00D+00
 Coeff-Com: -0.235D-04-0.318D-03 0.570D-02 0.123D-01-0.615D-02-0.741D-01
 Coeff-Com: -0.258D+00 0.132D+01
 Coeff:     -0.235D-04-0.318D-03 0.570D-02 0.123D-01-0.615D-02-0.741D-01
 Coeff:     -0.258D+00 0.132D+01
 Gap=     0.415 Goal=   None    Shift=    0.000
 Gap=     0.415 Goal=   None    Shift=    0.000
 RMSDP=1.54D-05 MaxDP=2.99D-04 DE=-2.00D-06 OVMax= 4.16D-04

 Cycle   9  Pass 1  IDiag  1:
 E= -148.860522203429     Delta-E=       -0.000000188805 Rises=F Damp=F
 DIIS: error= 6.20D-06 at cycle   9 NSaved=   9.
 NSaved= 9 IEnMin= 9 EnMin= -148.860522203429     IErMin= 9 ErrMin= 6.20D-06
 ErrMax= 6.20D-06  0.00D+00 EMaxC= 1.00D-01 BMatC= 1.43D-08 BMatP= 2.06D-07
 IDIUse=1 WtCom= 1.00D+00 WtEn= 0.00D+00
 Coeff-Com:  0.109D-03-0.664D-04-0.329D-02-0.332D-02 0.114D-01 0.455D-01
 Coeff-Com: -0.103D-01-0.431D+00 0.139D+01
 Coeff:      0.109D-03-0.664D-04-0.329D-02-0.332D-02 0.114D-01 0.455D-01
 Coeff:     -0.103D-01-0.431D+00 0.139D+01
 Gap=     0.415 Goal=   None    Shift=    0.000
 Gap=     0.415 Goal=   None    Shift=    0.000
 RMSDP=2.66D-06 MaxDP=2.87D-05 DE=-1.89D-07 OVMax= 8.05D-05

 Cycle  10  Pass 1  IDiag  1:
 E= -148.860522213199     Delta-E=       -0.000000009770 Rises=F Damp=F
 DIIS: error= 1.87D-06 at cycle  10 NSaved=  10.
 NSaved=10 IEnMin=10 EnMin= -148.860522213199     IErMin=10 ErrMin= 1.87D-06
 ErrMax= 1.87D-06  0.00D+00 EMaxC= 1.00D-01 BMatC= 1.10D-09 BMatP= 1.43D-08
 IDIUse=1 WtCom= 1.00D+00 WtEn= 0.00D+00
 Coeff-Com: -0.602D-05-0.106D-04 0.726D-03 0.341D-03-0.552D-02-0.812D-03
 Coeff-Com:  0.144D-01 0.324D-01-0.444D+00 0.140D+01
 Coeff:     -0.602D-05-0.106D-04 0.726D-03 0.341D-03-0.552D-02-0.812D-03
 Coeff:      0.144D-01 0.324D-01-0.444D+00 0.140D+01
 Gap=     0.415 Goal=   None    Shift=    0.000
 Gap=     0.415 Goal=   None    Shift=    0.000
 RMSDP=6.77D-07 MaxDP=8.40D-06 DE=-9.77D-09 OVMax= 2.00D-05

 Cycle  11  Pass 1  IDiag  1:
 E= -148.860522213950     Delta-E=       -0.000000000751 Rises=F Damp=F
 DIIS: error= 4.23D-07 at cycle  11 NSaved=  11.
 NSaved=11 IEnMin=11 EnMin= -148.860522213950     IErMin=11 ErrMin= 4.23D-07
 ErrMax= 4.23D-07  0.00D+00 EMaxC= 1.00D-01 BMatC= 4.32D-11 BMatP= 1.10D-09
 IDIUse=1 WtCom= 1.00D+00 WtEn= 0.00D+00
 Coeff-Com: -0.127D-05-0.222D-05 0.779D-04 0.161D-03 0.258D-03-0.212D-02
 Coeff-Com: -0.476D-02 0.267D-01 0.158D-01-0.390D+00 0.135D+01
 Coeff:     -0.127D-05-0.222D-05 0.779D-04 0.161D-03 0.258D-03-0.212D-02
 Coeff:     -0.476D-02 0.267D-01 0.158D-01-0.390D+00 0.135D+01
 Gap=     0.415 Goal=   None    Shift=    0.000
 Gap=     0.415 Goal=   None    Shift=    0.000
 RMSDP=1.24D-07 MaxDP=1.92D-06 DE=-7.51D-10 OVMax= 3.34D-06

 Cycle  12  Pass 1  IDiag  1:
 E= -148.860522213980     Delta-E=       -0.000000000030 Rises=F Damp=F
 DIIS: error= 4.41D-08 at cycle  12 NSaved=  12.
 NSaved=12 IEnMin=12 EnMin= -148.860522213980     IErMin=12 ErrMin= 4.41D-08
 ErrMax= 4.41D-08  0.00D+00 EMaxC= 1.00D-01 BMatC= 8.02D-13 BMatP= 4.32D-11
 IDIUse=1 WtCom= 1.00D+00 WtEn= 0.00D+00
 Coeff-Com:  0.963D-06 0.204D-07-0.410D-04-0.670D-04 0.912D-04 0.753D-03
 Coeff-Com:  0.808D-03-0.881D-02 0.927D-02 0.722D-01-0.399D+00 0.132D+01
 Coeff:      0.963D-06 0.204D-07-0.410D-04-0.670D-04 0.912D-04 0.753D-03
 Coeff:      0.808D-03-0.881D-02 0.927D-02 0.722D-01-0.399D+00 0.132D+01
 Gap=     0.415 Goal=   None    Shift=    0.000
 Gap=     0.415 Goal=   None    Shift=    0.000
 RMSDP=1.57D-08 MaxDP=2.02D-07 DE=-3.03D-11 OVMax= 3.78D-07

 Cycle  13  Pass 1  IDiag  1:
 E= -148.860522213980     Delta-E=       -0.000000000000 Rises=F Damp=F
 DIIS: error= 4.96D-09 at cycle  13 NSaved=  13.
 NSaved=13 IEnMin=13 EnMin= -148.860522213980     IErMin=13 ErrMin= 4.96D-09
 ErrMax= 4.96D-09  0.00D+00 EMaxC= 1.00D-01 BMatC= 1.26D-14 BMatP= 8.02D-13
 IDIUse=1 WtCom= 1.00D+00 WtEn= 0.00D+00
 Coeff-Com: -0.207D-06-0.139D-07 0.977D-05 0.135D-04-0.312D-04-0.152D-03
 Coeff-Com: -0.856D-04 0.171D-02-0.295D-02-0.912D-02 0.700D-01-0.323D+00
 Coeff-Com:  0.126D+01
 Coeff:     -0.207D-06-0.139D-07 0.977D-05 0.135D-04-0.312D-04-0.152D-03
 Coeff:     -0.856D-04 0.171D-02-0.295D-02-0.912D-02 0.700D-01-0.323D+00
 Coeff:      0.126D+01
 Gap=     0.415 Goal=   None    Shift=    0.000
 Gap=     0.415 Goal=   None    Shift=    0.000
 RMSDP=2.60D-09 MaxDP=3.82D-08 DE=-1.14D-13 OVMax= 3.68D-08

 SCF Done:  E(UHF) =  -148.860522214     A.U. after   13 cycles
            NFock= 13  Conv=0.26D-08     -V/T= 2.0047
 <Sx>= 0.0000 <Sy>= 0.0000 <Sz>= 0.0000 <S**2>=-0.0000 S=-0.0000
 <L.S>=  0.00000000000    
 KE= 1.481632522192D+02 PE=-4.945521928643D+02 EE= 1.241458693670D+02
 Annihilation of the first spin contaminant:
 S**2 before annihilation    -0.0000,   after    -0.0000
 Leave Link  502 at Tue Jan  3 09:03:35 2023, MaxMem=   536870912 cpu:               0.9 elap:               0.6
 (Enter /opt/software/gaussian/g16.c01/l508.exe)
 QCSCF skips out because SCF is already converged.
 Leave Link  508 at Tue Jan  3 09:03:35 2023, MaxMem=   536870912 cpu:               0.0 elap:               0.0
 (Enter /opt/software/gaussian/g16.c01/l601.exe)
 Copying SCF densities to generalized density rwf, IOpCl= 1 IROHF=0.

 **********************************************************************

            Population analysis using the SCF Density.

 **********************************************************************

 Alpha  occ. eigenvalues --  -15.70762 -15.52692 -11.26495  -1.35020  -1.06487
 Alpha  occ. eigenvalues --   -0.85931  -0.75127  -0.65597  -0.58402  -0.57778
 Alpha  occ. eigenvalues --   -0.42511  -0.28058
 Alpha virt. eigenvalues --    0.13478   0.14768   0.22242   0.24678   0.26534
 Alpha virt. eigenvalues --    0.39153   0.54951   0.60861   0.67057   0.70896
 Alpha virt. eigenvalues --    0.74334   0.80707   0.87026   0.91292   0.94607
 Alpha virt. eigenvalues --    1.00150   1.00334   1.05036   1.08809   1.18819
 Alpha virt. eigenvalues --    1.22838   1.28959   1.42552   1.51400   1.52890
 Alpha virt. eigenvalues --    1.65329   1.77083   1.77634   1.91566   1.92874
 Alpha virt. eigenvalues --    2.09717   2.16997   2.25245   2.28011   2.33813
 Alpha virt. eigenvalues --    2.41259   2.50781   2.56143   2.64573   2.78845
 Alpha virt. eigenvalues --    2.80573   2.90406   3.06267   3.21562   3.26408
 Alpha virt. eigenvalues --    3.28165   3.44569   3.55513   3.76233   3.99723
  Beta  occ. eigenvalues --  -15.70762 -15.52692 -11.26495  -1.35020  -1.06487
  Beta  occ. eigenvalues --   -0.85931  -0.75127  -0.65597  -0.58402  -0.57778
  Beta  occ. eigenvalues --   -0.42511  -0.28058
  Beta virt. eigenvalues --    0.13478   0.14768   0.22242   0.24678   0.26534
  Beta virt. eigenvalues --    0.39153   0.54951   0.60861   0.67057   0.70896
  Beta virt. eigenvalues --    0.74334   0.80707   0.87026   0.91292   0.94607
  Beta virt. eigenvalues --    1.00150   1.00334   1.05036   1.08809   1.18819
  Beta virt. eigenvalues --    1.22838   1.28959   1.42552   1.51400   1.52890
  Beta virt. eigenvalues --    1.65329   1.77083   1.77634   1.91566   1.92874
  Beta virt. eigenvalues --    2.09717   2.16997   2.25245   2.28011   2.33813
  Beta virt. eigenvalues --    2.41259   2.50781   2.56143   2.64573   2.78845
  Beta virt. eigenvalues --    2.80573   2.90406   3.06267   3.21562   3.26408
  Beta virt. eigenvalues --    3.28165   3.44569   3.55513   3.76233   3.99723
          Condensed to atoms (all electrons):
               1          2          3          4          5          6
     1  C    4.861459   0.520731  -0.114442   0.007645   0.416462   0.412955
     2  N    0.520731   5.987540   0.213720  -0.021204  -0.025962  -0.019428
     3  N   -0.114442   0.213720   6.914473   0.327347   0.004376   0.007024
     4  H    0.007645  -0.021204   0.327347   0.609552  -0.000545  -0.000780
     5  H    0.416462  -0.025962   0.004376  -0.000545   0.572528  -0.027723
     6  H    0.412955  -0.019428   0.007024  -0.000780  -0.027723   0.534357
     7  H   -0.039736   0.359200  -0.011372  -0.021130  -0.006796   0.006590
               7
     1  C   -0.039736
     2  N    0.359200
     3  N   -0.011372
     4  H   -0.021130
     5  H   -0.006796
     6  H    0.006590
     7  H    0.546231
          Atomic-Atomic Spin Densities.
               1          2          3          4          5          6
     1  C    0.000000   0.000000   0.000000   0.000000   0.000000   0.000000
     2  N    0.000000   0.000000   0.000000   0.000000   0.000000   0.000000
     3  N    0.000000   0.000000   0.000000   0.000000   0.000000   0.000000
     4  H    0.000000   0.000000   0.000000   0.000000   0.000000   0.000000
     5  H    0.000000   0.000000   0.000000   0.000000   0.000000   0.000000
     6  H    0.000000   0.000000   0.000000   0.000000   0.000000   0.000000
     7  H    0.000000   0.000000   0.000000   0.000000   0.000000   0.000000
               7
     1  C    0.000000
     2  N    0.000000
     3  N    0.000000
     4  H    0.000000
     5  H    0.000000
     6  H    0.000000
     7  H    0.000000
 Mulliken charges and spin densities:
               1          2
     1  C   -0.065074   0.000000
     2  N   -0.014597   0.000000
     3  N   -0.341126   0.000000
     4  H    0.099116   0.000000
     5  H    0.067660   0.000000
     6  H    0.087006   0.000000
     7  H    0.167014   0.000000
 Sum of Mulliken charges =  -0.00000   0.00000
 Mulliken charges and spin densities with hydrogens summed into heavy atoms:
               1          2
     1  C    0.089591   0.000000
     2  N    0.152418   0.000000
     3  N   -0.242009   0.000000
 Electronic spatial extent (au):  <R**2>=            598.8403
 Charge=             -0.0000 electrons
 Dipole moment (field-independent basis, Debye):
    X=              0.1597    Y=              0.9559    Z=              3.5598  Tot=              3.6894
 Quadrupole moment (field-independent basis, Debye-Ang):
   XX=            -14.3794   YY=            -21.1522   ZZ=            -23.1791
   XY=              2.7517   XZ=             10.1340   YZ=             -0.6630
 Traceless Quadrupole moment (field-independent basis, Debye-Ang):
   XX=              5.1908   YY=             -1.5820   ZZ=             -3.6089
   XY=              2.7517   XZ=             10.1340   YZ=             -0.6630
 Octapole moment (field-independent basis, Debye-Ang**2):
  XXX=            -90.4874  YYY=             10.8934  ZZZ=             42.0401  XYY=            -45.1530
  XXY=             10.1939  XXZ=             36.1374  XZZ=            -54.5297  YZZ=              5.5824
  YYZ=             12.0939  XYZ=             -2.9594
 Hexadecapole moment (field-independent basis, Debye-Ang**3):
 XXXX=           -476.1659 YYYY=            -27.2435 ZZZZ=           -112.8174 XXXY=             41.5994
 XXXZ=            145.6500 YYYX=             29.7698 YYYZ=            -12.2185 ZZZX=            120.1525
 ZZZY=            -14.2059 XXYY=           -123.1715 XXZZ=           -159.6851 YYZZ=            -22.6946
 XXYZ=            -11.5001 YYXZ=             34.6734 ZZXY=             15.6245
 N-N= 7.338254906404D+01 E-N=-4.945521929135D+02  KE= 1.481632522192D+02
                          Isotropic Fermi Contact Couplings
        Atom                 a.u.       MegaHertz       Gauss      10(-4) cm-1
     1  C(13)              0.00000       0.00000       0.00000       0.00000
     2  N(14)              0.00000       0.00000       0.00000       0.00000
     3  N(14)              0.00000       0.00000       0.00000       0.00000
     4  H(1)               0.00000       0.00000       0.00000       0.00000
     5  H(1)               0.00000       0.00000       0.00000       0.00000
     6  H(1)               0.00000       0.00000       0.00000       0.00000
     7  H(1)               0.00000       0.00000       0.00000       0.00000
 --------------------------------------------------------
       Center         ----  Spin Dipole Couplings  ----
                      3XX-RR        3YY-RR        3ZZ-RR
 --------------------------------------------------------
     1   Atom        0.000000      0.000000      0.000000
     2   Atom        0.000000      0.000000      0.000000
     3   Atom        0.000000      0.000000      0.000000
     4   Atom        0.000000      0.000000      0.000000
     5   Atom        0.000000      0.000000      0.000000
     6   Atom        0.000000      0.000000      0.000000
     7   Atom        0.000000      0.000000      0.000000
 --------------------------------------------------------
                        XY            XZ            YZ
 --------------------------------------------------------
     1   Atom        0.000000      0.000000      0.000000
     2   Atom        0.000000      0.000000      0.000000
     3   Atom        0.000000      0.000000      0.000000
     4   Atom        0.000000      0.000000      0.000000
     5   Atom        0.000000      0.000000      0.000000
     6   Atom        0.000000      0.000000      0.000000
     7   Atom        0.000000      0.000000      0.000000
 --------------------------------------------------------


 ---------------------------------------------------------------------------------
              Anisotropic Spin Dipole Couplings in Principal Axis System
 ---------------------------------------------------------------------------------

       Atom             a.u.   MegaHertz   Gauss  10(-4) cm-1        Axes

              Baa     0.0000     0.000     0.000     0.000  1.0000  0.0000  0.0000
     1 C(13)  Bbb     0.0000     0.000     0.000     0.000 -0.0000  1.0000  0.0000
              Bcc     0.0000     0.000     0.000     0.000  0.0000  0.0000  1.0000
 
              Baa     0.0000     0.000     0.000     0.000  1.0000  0.0000  0.0000
     2 N(14)  Bbb     0.0000     0.000     0.000     0.000 -0.0000  1.0000  0.0000
              Bcc     0.0000     0.000     0.000     0.000  0.0000  0.0000  1.0000
 
              Baa     0.0000     0.000     0.000     0.000  1.0000  0.0000  0.0000
     3 N(14)  Bbb     0.0000     0.000     0.000     0.000 -0.0000  1.0000  0.0000
              Bcc     0.0000     0.000     0.000     0.000  0.0000  0.0000  1.0000
 
              Baa     0.0000     0.000     0.000     0.000  1.0000  0.0000  0.0000
     4 H(1)   Bbb     0.0000     0.000     0.000     0.000 -0.0000  1.0000  0.0000
              Bcc     0.0000     0.000     0.000     0.000  0.0000  0.0000  1.0000
 
              Baa     0.0000     0.000     0.000     0.000  1.0000  0.0000  0.0000
     5 H(1)   Bbb     0.0000     0.000     0.000     0.000 -0.0000  1.0000  0.0000
              Bcc     0.0000     0.000     0.000     0.000  0.0000  0.0000  1.0000
 
              Baa     0.0000     0.000     0.000     0.000  1.0000  0.0000  0.0000
     6 H(1)   Bbb     0.0000     0.000     0.000     0.000 -0.0000  1.0000  0.0000
              Bcc     0.0000     0.000     0.000     0.000  0.0000  0.0000  1.0000
 
              Baa     0.0000     0.000     0.000     0.000  1.0000  0.0000  0.0000
     7 H(1)   Bbb     0.0000     0.000     0.000     0.000 -0.0000  1.0000  0.0000
              Bcc     0.0000     0.000     0.000     0.000  0.0000  0.0000  1.0000
 

 ---------------------------------------------------------------------------------

 No NMR shielding tensors so no spin-rotation constants.
 Leave Link  601 at Tue Jan  3 09:03:35 2023, MaxMem=   536870912 cpu:               0.3 elap:               0.1
 (Enter /opt/software/gaussian/g16.c01/l801.exe)
 Range of M.O.s used for correlation:     1    62
 NBasis=    62 NAE=    12 NBE=    12 NFC=     0 NFV=     0
 NROrb=     62 NOA=    12 NOB=    12 NVA=    50 NVB=    50
 Leave Link  801 at Tue Jan  3 09:03:35 2023, MaxMem=   536870912 cpu:               0.1 elap:               0.0
 (Enter /opt/software/gaussian/g16.c01/l914.exe)
 UHF ground state
 Doing stability rather than CIS.
 Keep R1 and R2 ints in memory in canonical form, NReq=4666557.
 FoFCou: FMM=F IPFlag=           0 FMFlag=           0 FMFlg1=           0
         NFxFlg=           0 DoJE=F BraDBF=F KetDBF=F FulRan=T
         wScrn=  0.000000 ICntrl=       600 IOpCl=  0 I1Cent=           0 NGrid=           0
         NMat0=    1 NMatS0=   1953 NMatT0=    0 NMatD0=    1 NMtDS0=    0 NMtDT0=    0
 Symmetry not used in FoFCou.
 Two-electron integral symmetry not used.
 MDV=   536870912 DFT=F DoStab=T Mixed=F DoRPA=F DoScal=F NonHer=F
 Making orbital integer symmetry assigments:
    12 initial guesses have been made.
 Convergence on wavefunction:    0.001000000000000
 Davidson Disk Diagonalization:  ConvIn= 1.00D-03 SkipCon=T Conv= 1.00D-03.
 Max sub-space:  2000 roots to seek:    12 dimension of matrix:         1200
 Iteration     1 Dimension    12 NMult     0 NNew     12
 CISAX will form    12 AO SS matrices at one time.
 NMat=    12 NSing=    12 JSym2X= 0.
 Excitation Energies [eV] at current iteration:
 Root      1 :    -1.601545186137736
 Root      2 :     5.324088254265972
 Root      3 :     5.694145448948509
 Root      4 :     5.803295372878956
 Root      5 :     6.993649585194956
 Root      6 :     7.531491143945179
 Root      7 :     7.787331680708867
 Root      8 :     8.287814944134240
 Root      9 :     8.414148825699170
 Root     10 :     8.521053007106998
 Root     11 :     9.262349269511791
 Root     12 :    10.679140998974134
 Iteration     2 Dimension    24 NMult    12 NNew     12
 CISAX will form    12 AO SS matrices at one time.
 NMat=    12 NSing=    12 JSym2X= 0.
 Root      1 not converged, maximum delta is    0.051737244792100
 Excitation Energies [eV] at current iteration:
 Root      1 :    -2.341145462419469   Change is   -0.739600276281732
 Root      2 :     4.799071851763137   Change is   -0.525016402502836
 Root      3 :     5.219982275644982   Change is   -0.583313097233974
 Root      4 :     5.536405083002617   Change is   -0.157740365945892
 Root      5 :     6.056158691060211   Change is   -4.622982307913924
 Root      6 :     6.626245789680916   Change is   -0.367403795514040
 Root      7 :     6.876460591023667   Change is   -0.655030552921512
 Root      8 :     7.177421930482428   Change is   -0.609909750226439
 Root      9 :     7.757977447472780   Change is   -0.656171378226391
 Root     10 :     7.969506477796446   Change is   -0.318308466337795
 Root     11 :     8.289157078651765   Change is   -0.231895928455232
 Root     12 :     8.825586405032080   Change is   -0.436762864479710
 Iteration     3 Dimension    27 NMult    24 NNew      3
 CISAX will form     3 AO SS matrices at one time.
 NMat=     3 NSing=     3 JSym2X= 0.
 Root      1 not converged, maximum delta is    0.021598327068477
 Excitation Energies [eV] at current iteration:
 Root      1 :    -2.389541813583798   Change is   -0.048396351164329
 Root      2 :     4.746180443716220   Change is   -0.052891408046917
 Root      3 :     5.184581321209836   Change is   -0.035400954435146
 Iteration     4 Dimension    30 NMult    27 NNew      3
 CISAX will form     3 AO SS matrices at one time.
 NMat=     3 NSing=     3 JSym2X= 0.
 Root      1 not converged, maximum delta is    0.010339183192947
 Excitation Energies [eV] at current iteration:
 Root      1 :    -2.395488012624312   Change is   -0.005946199040515
 Root      2 :     4.738674273779811   Change is   -0.007506169936410
 Root      3 :     5.179373531188468   Change is   -0.005207790021368
 Iteration     5 Dimension    33 NMult    30 NNew      3
 CISAX will form     3 AO SS matrices at one time.
 NMat=     3 NSing=     3 JSym2X= 0.
 Root      1 not converged, maximum delta is    0.003049158172894
 Excitation Energies [eV] at current iteration:
 Root      1 :    -2.396124750351213   Change is   -0.000636737726901
 Root      2 :     4.737501770522898   Change is   -0.001172503256913
 Root      3 :     5.178681738521405   Change is   -0.000691792667063
 Cease iterating as an instability has been found.
 ***********************************************************************
 Stability analysis using <AA,BB:AA,BB> singles matrix:
 ***********************************************************************
 1PDM for each excited state written to RWF  633
 Ground to excited state transition densities written to RWF  633

 Eigenvectors of the stability matrix:
 
 Excited state symmetry could not be determined.
 Eigenvector   1:  3.000-?Sym  Eigenvalue=-0.0880560  <S**2>=2.000
     12A -> 13A        0.68559
     12A -> 22A        0.10540
     12B -> 13B       -0.68559
     12B -> 22B       -0.10540
 
 Excited state symmetry could not be determined.
 Eigenvector   2:  3.000-?Sym  Eigenvalue= 0.1741000  <S**2>=2.000
     11A -> 13A        0.50902
     12A -> 14A       -0.43710
     11B -> 13B       -0.50902
     12B -> 14B        0.43710
 
 Excited state symmetry could not be determined.
 Eigenvector   3:  3.000-?Sym  Eigenvalue= 0.1903131  <S**2>=2.000
     11A -> 13A        0.40815
     12A -> 14A        0.49236
     12A -> 15A        0.14019
     12A -> 16A        0.18127
     12A -> 17A       -0.11543
     11B -> 13B       -0.40815
     12B -> 14B       -0.49236
     12B -> 15B       -0.14019
     12B -> 16B       -0.18127
     12B -> 17B        0.11543
 The wavefunction has an internal instability.
 Leave Link  914 at Tue Jan  3 09:03:35 2023, MaxMem=   536870912 cpu:               0.6 elap:               0.3
 (Enter /opt/software/gaussian/g16.c01/l508.exe)
 Keep R1 and R2 ints in memory in canonical form, NReq=4666617.
 FoFCou: FMM=F IPFlag=           0 FMFlag=           0 FMFlg1=           0
         NFxFlg=           0 DoJE=F BraDBF=F KetDBF=F FulRan=T
         wScrn=  0.000000 ICntrl=       600 IOpCl=  0 I1Cent=           0 NGrid=           0
         NMat0=    1 NMatS0=   1953 NMatT0=    0 NMatD0=    1 NMtDS0=    0 NMtDT0=    0
 Symmetry not used in FoFCou.
 Two-electron integral symmetry not used.
 Very tight linear equation convergence will be used.
 UHF wavefunction.
 Quadratic Convergence SCF Method.
 Line search only if initial step raises energy.
 Perform preliminary linear searches along instability eigenvector.
     ILin= 1 X=0.000D+00 Y=-1.488605222140D+02 DE= 0.00D+00
     ILin= 2 X=1.000D-01 Y=-1.488613872784D+02 DE=-8.65D-04
     ILin= 3 X=1.414D-01 Y=-1.488622215968D+02 DE=-1.70D-03
     ILin= 4 X=2.000D-01 Y=-1.488637990655D+02 DE=-3.28D-03
     ILin= 5 X=2.828D-01 Y=-1.488665967288D+02 DE=-6.07D-03
     ILin= 6 X=4.000D-01 Y=-1.488708209145D+02 DE=-1.03D-02
     ILin= 7 X=5.657D-01 Y=-1.488742287624D+02 DE=-1.37D-02
     ILin= 8 X=8.000D-01 Y=-1.488641371619D+02 DE=-3.61D-03
     Reject polynomial IMin12=  6  7 Big=T Turn=T Min=-6.437D-01 FVal=-1.488761073975D+02 Lims=  4.00D-01  8.00D-01
     ILin= 9 X=1.131D+00 Y=-1.487980983432D+02 DE= 6.24D-02
     Reject polynomial IMin12=  6  7 Big=T Turn=T Min=-5.983D-01 FVal=-1.488749701087D+02 Lims=  4.00D-01  8.00D-01
     ILin=10 X=1.600D+00 Y=-1.486021932343D+02 DE= 2.58D-01
     An  expanding polynomial of degree 10 produced  0.5726
 Iteration F X= 5.726D-01 EE=-1.488742359339744D+02
     ILin= 1 X=0.000D+00 Y=-1.488605222140D+02 DE= 0.00D+00
     ILin= 2 X=1.000D-01 Y=-1.488613872755D+02 DE=-8.65D-04
     ILin= 3 X=1.414D-01 Y=-1.488622215886D+02 DE=-1.70D-03
 The two search directions are symmetric.
 Iteration B X= 5.726D-01 EE=-1.488742359339744D+02
 Take forward step, X= 5.726D-01 Step= 5.726D-01
 Iteration   1 EE= -148.874235934134                                    Grad=5.681D-02 Max rot=    0.9937 deg.
 Gradient too large for Newton-Raphson -- use scaled steepest descent instead.
 Alpha Gap=     0.486 HL deriv= 1.00D-02
  Beta Gap=     0.520 HL deriv= 5.59D-03
     ILin= 1 X=0.000D+00 Y=-1.488742359341D+02 DE= 0.00D+00 F= -4.73D-03
     ILin= 2 X=3.000D-01 Y=-1.488755021975D+02 DE=-1.27D-03 F= -3.72D-03 OKLS=F
     ILin= 3 X=6.000D-01 Y=-1.488764655737D+02 DE=-2.23D-03 F= -2.71D-03
     ILin= 4 X=1.200D+00 Y=-1.488774825932D+02 DE=-3.25D-03 F= -6.83D-04
     ILin= 5 X=2.400D+00 Y=-1.488758706997D+02 DE=-1.63D-03 F=  3.37D-03
     An  expanding polynomial of degree  5 produced  1.4025
 Iteration   2 EE= -148.877551779619     Delta-E=       -0.003315845486 Grad=2.912D-02 Max rot=    0.7463 deg.
 Gradient too large for Newton-Raphson -- use scaled steepest descent instead.
 Alpha Gap=     0.486 HL deriv= 2.14D-02
  Beta Gap=     0.515 HL deriv= 7.20D-03
     ILin= 1 X=0.000D+00 Y=-1.488775517796D+02 DE= 0.00D+00 F= -1.64D-03
     ILin= 2 X=6.000D-01 Y=-1.488782284535D+02 DE=-6.77D-04 F= -6.15D-04 OKLS=F
     ILin= 3 X=1.300D+00 Y=-1.488782407647D+02 DE=-6.89D-04 F=  5.80D-04
     Accept linear search using points  2 and  3.
     An  expanding polynomial of degree  3 produced  0.9557
 Iteration   3 EE= -148.878339296382     Delta-E=       -0.000787516763 Grad=2.265D-02 Max rot=    0.3211 deg.
 Gradient too large for Newton-Raphson -- use scaled steepest descent instead.
 Alpha Gap=     0.488 HL deriv= 1.15D-02
  Beta Gap=     0.527 HL deriv= 7.73D-03
     ILin= 1 X=0.000D+00 Y=-1.488783392964D+02 DE= 0.00D+00 F= -7.59D-04
     ILin= 2 X=1.200D+00 Y=-1.488788246986D+02 DE=-4.85D-04 F= -4.95D-05 OKLS=T
     Reject lnstep IMin12=  1  2 Big=T Turn=F Min= 1.246D+00 FVal=-1.488788256633D+02 Lims=  0.00D+00  1.20D+00
     ILin= 3 X=2.300D+00 Y=-1.488785206307D+02 DE=-1.81D-04 F=  6.03D-04
     An  expanding polynomial of degree  3 produced  1.2832
     Minimum is close to point  2 DX=  8.32D-02 DF= -2.05D-06 DXR=  6.48D-02 DFR=  4.22D-03 which will be used.
 Iteration   4 EE= -148.878824698581     Delta-E=       -0.000485402198 Grad=1.644D-02 Max rot=    0.4598 deg.
 Gradient too large for Newton-Raphson -- use scaled steepest descent instead.
 Alpha Gap=     0.491 HL deriv= 1.48D-02
  Beta Gap=     0.527 HL deriv= 4.42D-03
     ILin= 1 X=0.000D+00 Y=-1.488788246986D+02 DE= 0.00D+00 F= -5.91D-04
     ILin= 2 X=1.100D+00 Y=-1.488791429529D+02 DE=-3.18D-04 F=  1.26D-05 OKLS=T
     Accept linear search using points  1 and  2.
     An  expanding polynomial of degree  2 produced  1.0823
     Minimum is close to point  2 DX= -1.77D-02 DF= -1.01D-07 DXR=  1.63D-02 DFR=  3.17D-04 which will be used.
 Iteration   5 EE= -148.879142952918     Delta-E=       -0.000318254338 Grad=1.686D-02 Max rot=    0.2055 deg.
 Gradient too large for Newton-Raphson -- use scaled steepest descent instead.
 Alpha Gap=     0.492 HL deriv= 7.29D-03
  Beta Gap=     0.536 HL deriv= 5.09D-03
     ILin= 1 X=0.000D+00 Y=-1.488791429529D+02 DE= 0.00D+00 F= -3.99D-04
     ILin= 2 X=1.200D+00 Y=-1.488793543262D+02 DE=-2.11D-04 F=  4.63D-05 OKLS=T
     Accept linear search using points  1 and  2.
     An  expanding polynomial of degree  2 produced  1.1152
     Minimum is close to point  2 DX= -8.48D-02 DF= -1.62D-06 DXR=  7.60D-02 DFR=  7.66D-03 which will be used.
 Iteration   6 EE= -148.879354326154     Delta-E=       -0.000211373236 Grad=1.276D-02 Max rot=    0.3339 deg.
 Gradient too large for Newton-Raphson -- use scaled steepest descent instead.
 Alpha Gap=     0.495 HL deriv= 1.02D-02
  Beta Gap=     0.535 HL deriv= 2.35D-03
     ILin= 1 X=0.000D+00 Y=-1.488793543262D+02 DE= 0.00D+00 F= -3.22D-04
     ILin= 2 X=1.100D+00 Y=-1.488794981926D+02 DE=-1.44D-04 F=  6.06D-05 OKLS=T
     Accept linear search using points  1 and  2.
     An  expanding polynomial of degree  2 produced  0.9526
 Iteration   7 EE= -148.879503349768     Delta-E=       -0.000149023614 Grad=1.021D-02 Max rot=    0.1444 deg.
 Gradient too large for Newton-Raphson -- use scaled steepest descent instead.
 Alpha Gap=     0.495 HL deriv= 5.10D-03
  Beta Gap=     0.542 HL deriv= 3.01D-03
     ILin= 1 X=0.000D+00 Y=-1.488795033498D+02 DE= 0.00D+00 F= -1.53D-04
     ILin= 2 X=1.000D+00 Y=-1.488795948067D+02 DE=-9.15D-05 F= -3.01D-05 OKLS=T
     Reject lnstep IMin12=  1  2 Big=T Turn=F Min= 1.246D+00 FVal=-1.488795985101D+02 Lims=  0.00D+00  1.00D+00
     ILin= 3 X=2.100D+00 Y=-1.488795537122D+02 DE=-5.04D-05 F=  1.05D-04
     An  expanding polynomial of degree  3 produced  1.2455
 Iteration   8 EE= -148.879598510046     Delta-E=       -0.000095160278 Grad=7.881D-03 Max rot=    0.2175 deg.
 QCNR:  CnvC1=3.46D-10 CnvC2=3.46D-09
 LinEq1:  Iter=  0 NonCon=     1 RMS=2.86D-04 Max=7.97D-03 NDo=     1
 AX will form     1 AO Fock derivatives at one time.
 LinEq1:  Iter=  1 NonCon=     1 RMS=1.59D-04 Max=1.79D-03 NDo=     1
 LinEq1:  Iter=  2 NonCon=     1 RMS=7.68D-06 Max=1.44D-04 NDo=     1
 LinEq1:  Iter=  3 NonCon=     1 RMS=2.10D-06 Max=3.16D-05 NDo=     1
 LinEq1:  Iter=  4 NonCon=     1 RMS=7.54D-07 Max=1.22D-05 NDo=     1
 LinEq1:  Iter=  5 NonCon=     1 RMS=1.80D-07 Max=2.32D-06 NDo=     1
 LinEq1:  Iter=  6 NonCon=     1 RMS=5.62D-08 Max=5.60D-07 NDo=     1
 LinEq1:  Iter=  7 NonCon=     1 RMS=2.02D-08 Max=2.05D-07 NDo=     1
 LinEq1:  Iter=  8 NonCon=     1 RMS=4.61D-09 Max=3.91D-08 NDo=     1
 LinEq1:  Iter=  9 NonCon=     1 RMS=1.08D-09 Max=1.03D-08 NDo=     1
 LinEq1:  Iter= 10 NonCon=     0 RMS=2.21D-10 Max=1.77D-09 NDo=     1
 Linear equations converged to 3.464D-10 3.464D-09 after    10 iterations.
 Angle between quadratic step and gradient=  53.67 degrees.
     ILin= 1 X=0.000D+00 Y=-1.488795985100D+02 DE= 0.00D+00 F= -3.65D-04
     ILin= 2 X=1.000D+00 Y=-1.488797766613D+02 DE=-1.78D-04 F=  1.26D-05 OKLS=T
     Accept linear search using points  1 and  2.
     An  expanding polynomial of degree  2 produced  0.9678
     Minimum is close to point  2 DX= -3.22D-02 DF= -2.02D-07 DXR=  3.33D-02 DFR=  1.14D-03 which will be used.
 Iteration   9 EE= -148.879776661300     Delta-E=       -0.000178151254 Grad=2.977D-04 Max rot=    0.0074 deg.
 QCNR:  CnvC1=3.46D-10 CnvC2=3.46D-09
 LinEq1:  Iter=  0 NonCon=     1 RMS=1.08D-05 Max=2.36D-04 NDo=     1
 LinEq1:  Iter=  1 NonCon=     1 RMS=3.78D-06 Max=8.73D-05 NDo=     1
 LinEq1:  Iter=  2 NonCon=     1 RMS=1.41D-06 Max=1.84D-05 NDo=     1
 LinEq1:  Iter=  3 NonCon=     1 RMS=3.45D-07 Max=6.85D-06 NDo=     1
 LinEq1:  Iter=  4 NonCon=     1 RMS=1.62D-07 Max=3.16D-06 NDo=     1
 LinEq1:  Iter=  5 NonCon=     1 RMS=6.02D-08 Max=5.87D-07 NDo=     1
 LinEq1:  Iter=  6 NonCon=     1 RMS=1.89D-08 Max=1.52D-07 NDo=     1
 LinEq1:  Iter=  7 NonCon=     1 RMS=5.14D-09 Max=5.11D-08 NDo=     1
 LinEq1:  Iter=  8 NonCon=     1 RMS=1.78D-09 Max=1.79D-08 NDo=     1
 LinEq1:  Iter=  9 NonCon=     1 RMS=4.39D-10 Max=4.25D-09 NDo=     1
 LinEq1:  Iter= 10 NonCon=     0 RMS=7.83D-11 Max=6.62D-10 NDo=     1
 Linear equations converged to 3.464D-10 3.464D-09 after    10 iterations.
 Angle between quadratic step and gradient=  44.85 degrees.
     ILin= 1 X=0.000D+00 Y=-1.488797766613D+02 DE= 0.00D+00 F= -6.30D-07
     ILin= 2 X=1.000D+00 Y=-1.488797769769D+02 DE=-3.16D-07 F= -1.53D-09 OKLS=T
     Reject lnstep IMin12=  1  2 Big=T Turn=F Min= 1.002D+00 FVal=-1.488797769769D+02 Lims=  0.00D+00  1.00D+00
     ILin= 3 X=2.000D+00 Y=-1.488797766654D+02 DE=-4.09D-09 F=  6.24D-07
     An  expanding polynomial of degree  3 produced  1.0033
     Minimum is close to point  2 DX=  3.26D-03 DF= -3.35D-12 DXR=  3.25D-03 DFR=  1.06D-05 which will be used.
 Iteration  10 EE= -148.879776976855     Delta-E=       -0.000000315555 Grad=6.308D-07 Max rot=    0.0000 deg.
 QCNR:  CnvC1=6.31D-12 CnvC2=6.31D-11
 LinEq1:  Iter=  0 NonCon=     1 RMS=2.78D-08 Max=6.91D-07 NDo=     1
 LinEq1:  Iter=  1 NonCon=     1 RMS=4.91D-09 Max=7.48D-08 NDo=     1
 LinEq1:  Iter=  2 NonCon=     1 RMS=1.50D-09 Max=2.60D-08 NDo=     1
 LinEq1:  Iter=  3 NonCon=     1 RMS=5.87D-10 Max=8.97D-09 NDo=     1
 LinEq1:  Iter=  4 NonCon=     1 RMS=2.29D-10 Max=3.02D-09 NDo=     1
 LinEq1:  Iter=  5 NonCon=     1 RMS=7.81D-11 Max=7.94D-10 NDo=     1
 LinEq1:  Iter=  6 NonCon=     1 RMS=2.82D-11 Max=2.85D-10 NDo=     1
 LinEq1:  Iter=  7 NonCon=     1 RMS=9.43D-12 Max=1.01D-10 NDo=     1
 LinEq1:  Iter=  8 NonCon=     0 RMS=3.83D-12 Max=3.80D-11 NDo=     1
 Linear equations converged to 6.308D-12 6.308D-11 after     8 iterations.
 Angle between quadratic step and gradient=  36.00 degrees.
     ILin= 1 X=0.000D+00 Y=-1.488797769769D+02 DE= 0.00D+00 F= -3.92D-12
     ILin= 2 X=1.000D+00 Y=-1.488797769769D+02 DE=-1.59D-12
 Iteration  11 EE= -148.879776976857     Delta-E=       -0.000000000002 Grad=4.890D-09 Max rot=    0.0000 deg.
 Rotation gradient small -- convergence achieved.
 SCF Done:  E(UHF) =  -148.879776977     a.u. after   11 cycles
            Convg  =    0.4890D-08                    61 Fock formations.
              S**2 =  0.6742                  -V/T =  2.0032
 <Sx>= 0.0000 <Sy>= 0.0000 <Sz>= 0.0000 <S**2>= 0.6742 S= 0.4613
 <L.S>=  0.00000000000    
 Annihilation of the first spin contaminant:
 S**2 before annihilation     0.6742,   after     0.0557
 Leave Link  508 at Tue Jan  3 09:03:36 2023, MaxMem=   536870912 cpu:               0.8 elap:               0.5
 (Enter /opt/software/gaussian/g16.c01/l801.exe)
 Range of M.O.s used for correlation:     1    62
 NBasis=    62 NAE=    12 NBE=    12 NFC=     0 NFV=     0
 NROrb=     62 NOA=    12 NOB=    12 NVA=    50 NVB=    50
 Leave Link  801 at Tue Jan  3 09:03:36 2023, MaxMem=   536870912 cpu:               0.1 elap:               0.0
 (Enter /opt/software/gaussian/g16.c01/l914.exe)
 UHF ground state
 Doing stability rather than CIS.
 Keep R1 and R2 ints in memory in canonical form, NReq=4666557.
 FoFCou: FMM=F IPFlag=           0 FMFlag=           0 FMFlg1=           0
         NFxFlg=           0 DoJE=F BraDBF=F KetDBF=F FulRan=T
         wScrn=  0.000000 ICntrl=       600 IOpCl=  0 I1Cent=           0 NGrid=           0
         NMat0=    1 NMatS0=   1953 NMatT0=    0 NMatD0=    1 NMtDS0=    0 NMtDT0=    0
 Symmetry not used in FoFCou.
 Two-electron integral symmetry not used.
 MDV=   536870912 DFT=F DoStab=T Mixed=F DoRPA=F DoScal=F NonHer=F
 Making orbital integer symmetry assigments:
    12 initial guesses have been made.
 Convergence on wavefunction:    0.001000000000000
 Davidson Disk Diagonalization:  ConvIn= 1.00D-03 SkipCon=T Conv= 1.00D-03.
 Max sub-space:  2000 roots to seek:    12 dimension of matrix:         1200
 Iteration     1 Dimension    12 NMult     0 NNew     12
 CISAX will form    12 AO SS matrices at one time.
 NMat=    12 NSing=    12 JSym2X= 0.
 Excitation Energies [eV] at current iteration:
 Root      1 :     5.075306461095734
 Root      2 :     5.219396680930955
 Root      3 :     6.084107121864198
 Root      4 :     6.959438546925624
 Root      5 :     7.604955122158062
 Root      6 :     8.622238594243326
 Root      7 :     8.792117623077985
 Root      8 :     9.070202911682891
 Root      9 :     9.299120754178443
 Root     10 :     9.458350924872125
 Root     11 :    10.657297988026691
 Root     12 :    10.887934729433212
 Iteration     2 Dimension    24 NMult    12 NNew     12
 CISAX will form    12 AO SS matrices at one time.
 NMat=    12 NSing=    12 JSym2X= 0.
 Root      1 not converged, maximum delta is    0.215137165666822
 Excitation Energies [eV] at current iteration:
 Root      1 :     3.764692723322500   Change is   -1.310613737773235
 Root      2 :     4.422436414218674   Change is   -0.796960266712281
 Root      3 :     5.738201709582436   Change is   -0.345905412281762
 Root      4 :     6.119431788624027   Change is   -2.672685834453959
 Root      5 :     6.465846120650453   Change is   -0.493592426275171
 Root      6 :     7.022891603366579   Change is   -0.582063518791482
 Root      7 :     7.656442002519826   Change is   -1.801908922352299
 Root      8 :     7.968250499242215   Change is   -0.653988095001111
 Root      9 :     8.427463721553378   Change is   -0.642739190129512
 Root     10 :     8.860604657085707   Change is   -0.438516097092736
 Root     11 :    10.025663352374407   Change is   -0.631634635652285
 Root     12 :    10.351148137127824   Change is   -0.536786592305388
 Iteration     3 Dimension    27 NMult    24 NNew      3
 CISAX will form     3 AO SS matrices at one time.
 NMat=     3 NSing=     3 JSym2X= 0.
 Root      1 not converged, maximum delta is    0.185957965627281
 Excitation Energies [eV] at current iteration:
 Root      1 :     3.267693412537914   Change is   -0.496999310784586
 Root      2 :     4.355253694923646   Change is   -0.067182719295028
 Root      3 :     5.705890751886911   Change is   -0.032310957695525
 Iteration     4 Dimension    30 NMult    27 NNew      3
 CISAX will form     3 AO SS matrices at one time.
 NMat=     3 NSing=     3 JSym2X= 0.
 Root      1 not converged, maximum delta is    0.081408985209832
 Excitation Energies [eV] at current iteration:
 Root      1 :     3.148676756646793   Change is   -0.119016655891120
 Root      2 :     4.347532714651392   Change is   -0.007720980272254
 Root      3 :     5.412777288080433
 Iteration     5 Dimension    33 NMult    30 NNew      3
 CISAX will form     3 AO SS matrices at one time.
 NMat=     3 NSing=     3 JSym2X= 0.
 Root      1 not converged, maximum delta is    0.030184927203786
 Excitation Energies [eV] at current iteration:
 Root      1 :     3.129377338606044   Change is   -0.019299418040749
 Root      2 :     4.346484178109594   Change is   -0.001048536541798
 Root      3 :     4.955032353184915   Change is   -0.457744934895518
 Iteration     6 Dimension    36 NMult    33 NNew      3
 CISAX will form     3 AO SS matrices at one time.
 NMat=     3 NSing=     3 JSym2X= 0.
 Root      1 not converged, maximum delta is    0.003786365556627
 Excitation Energies [eV] at current iteration:
 Root      1 :     3.126666028056818   Change is   -0.002711310549226
 Root      2 :     4.346366176566645   Change is   -0.000118001542948
 Root      3 :     4.897542244070719   Change is   -0.057490109114197
 Iteration     7 Dimension    39 NMult    36 NNew      3
 CISAX will form     3 AO SS matrices at one time.
 NMat=     3 NSing=     3 JSym2X= 0.
 Root      1 not converged, maximum delta is    0.001924043582730
 Excitation Energies [eV] at current iteration:
 Root      1 :     3.126151049826494   Change is   -0.000514978230325
 Root      2 :     4.346354711634738   Change is   -0.000011464931908
 Root      3 :     4.880903495158647   Change is   -0.016638748912072
 Iteration     8 Dimension    42 NMult    39 NNew      3
 CISAX will form     3 AO SS matrices at one time.
 NMat=     3 NSing=     3 JSym2X= 0.
 Root      1 has converged.
 Excitation Energies [eV] at current iteration:
 Root      1 :     3.126073338756026   Change is   -0.000077711070468
 Root      2 :     4.346353702802595   Change is   -0.000001008832142
 Root      3 :     4.877190776615055   Change is   -0.003712718543592
 Convergence achieved on expansion vectors.
 ***********************************************************************
 Stability analysis using <AA,BB:AA,BB> singles matrix:
 ***********************************************************************
 1PDM for each excited state written to RWF  633
 Ground to excited state transition densities written to RWF  633

 Eigenvectors of the stability matrix:
 
 Excited state symmetry could not be determined.
 Eigenvector   1:  1.975-?Sym  Eigenvalue= 0.1148811  <S**2>=0.725
     10A -> 14A        0.30987
     12A -> 14A        0.88918
     12B -> 14B       -0.15463
 The wavefunction is stable under the perturbations considered.
 Leave Link  914 at Tue Jan  3 09:03:36 2023, MaxMem=   536870912 cpu:               0.7 elap:               0.3
 (Enter /opt/software/gaussian/g16.c01/l508.exe)
 The wavefunction is already stable.
 Leave Link  508 at Tue Jan  3 09:03:36 2023, MaxMem=   536870912 cpu:               0.0 elap:               0.0
 (Enter /opt/software/gaussian/g16.c01/l601.exe)
 Copying SCF densities to generalized density rwf, IOpCl= 1 IROHF=0.

 **********************************************************************

            Population analysis using the SCF Density.

 **********************************************************************

 Alpha  occ. eigenvalues --  -15.64218 -15.54036 -11.25272  -1.32342  -1.04562
 Alpha  occ. eigenvalues --   -0.84168  -0.74723  -0.64505  -0.56963  -0.56337
 Alpha  occ. eigenvalues --   -0.42654  -0.29441
 Alpha virt. eigenvalues --    0.15889   0.19196   0.22336   0.24461   0.27139
 Alpha virt. eigenvalues --    0.39727   0.55862   0.61197   0.67222   0.67838
 Alpha virt. eigenvalues --    0.74825   0.81478   0.87472   0.92269   0.94532
 Alpha virt. eigenvalues --    1.01392   1.03126   1.04465   1.12925   1.20133
 Alpha virt. eigenvalues --    1.23124   1.29665   1.41855   1.52768   1.54304
 Alpha virt. eigenvalues --    1.65141   1.78011   1.78891   1.91571   1.93406
 Alpha virt. eigenvalues --    2.10670   2.17976   2.25960   2.29202   2.34904
 Alpha virt. eigenvalues --    2.42497   2.50968   2.56160   2.66193   2.79621
 Alpha virt. eigenvalues --    2.82118   2.90913   3.08114   3.23384   3.28783
 Alpha virt. eigenvalues --    3.28836   3.46853   3.55244   3.77795   4.01003
  Beta  occ. eigenvalues --  -15.64745 -15.56548 -11.23188  -1.34432  -1.06767
  Beta  occ. eigenvalues --   -0.82821  -0.74729  -0.64453  -0.60943  -0.56274
  Beta  occ. eigenvalues --   -0.45693  -0.35209
  Beta virt. eigenvalues --    0.15760   0.18273   0.22961   0.24514   0.27361
  Beta virt. eigenvalues --    0.40745   0.54192   0.63010   0.67781   0.75885
  Beta virt. eigenvalues --    0.77334   0.82462   0.88846   0.92946   0.93988
  Beta virt. eigenvalues --    0.97799   1.00747   1.03247   1.05681   1.19636
  Beta virt. eigenvalues --    1.22062   1.28168   1.45695   1.52747   1.54955
  Beta virt. eigenvalues --    1.64128   1.78020   1.78086   1.91624   1.94108
  Beta virt. eigenvalues --    2.11276   2.19643   2.27570   2.30384   2.33941
  Beta virt. eigenvalues --    2.43123   2.49301   2.57523   2.65904   2.76945
  Beta virt. eigenvalues --    2.80796   2.89891   3.06290   3.23795   3.25675
  Beta virt. eigenvalues --    3.28793   3.45754   3.53783   3.77366   4.00685
          Condensed to atoms (all electrons):
               1          2          3          4          5          6
     1  C    4.943407   0.371598  -0.084111   0.007262   0.416520   0.412041
     2  N    0.371598   6.290780   0.208103  -0.023463  -0.026000  -0.020491
     3  N   -0.084111   0.208103   6.744417   0.330151   0.004394   0.005104
     4  H    0.007262  -0.023463   0.330151   0.599085  -0.000495  -0.000661
     5  H    0.416520  -0.026000   0.004394  -0.000495   0.583621  -0.028729
     6  H    0.412041  -0.020491   0.005104  -0.000661  -0.028729   0.553173
     7  H   -0.040201   0.373734  -0.018564  -0.019559  -0.007647   0.006878
               7
     1  C   -0.040201
     2  N    0.373734
     3  N   -0.018564
     4  H   -0.019559
     5  H   -0.007647
     6  H    0.006878
     7  H    0.553783
          Atomic-Atomic Spin Densities.
               1          2          3          4          5          6
     1  C    1.157656  -0.182748  -0.010872   0.000767   0.006223   0.002853
     2  N   -0.182748  -0.179612   0.233153  -0.001342  -0.004028  -0.003730
     3  N   -0.010872   0.233153  -0.957583   0.002065  -0.000579   0.002198
     4  H    0.000767  -0.001342   0.002065   0.044828  -0.000013  -0.000106
     5  H    0.006223  -0.004028  -0.000579  -0.000013  -0.082680   0.000613
     6  H    0.002853  -0.003730   0.002198  -0.000106   0.000613  -0.077854
     7  H   -0.003540   0.002008  -0.001616  -0.000694   0.000668  -0.000112
               7
     1  C   -0.003540
     2  N    0.002008
     3  N   -0.001616
     4  H   -0.000694
     5  H    0.000668
     6  H   -0.000112
     7  H    0.012906
 Mulliken charges and spin densities:
               1          2
     1  C   -0.026517   0.970339
     2  N   -0.174262  -0.136299
     3  N   -0.189495  -0.733232
     4  H    0.107679   0.045505
     5  H    0.058335  -0.079795
     6  H    0.072686  -0.076138
     7  H    0.151575   0.009620
 Sum of Mulliken charges =   0.00000  -0.00000
 Mulliken charges and spin densities with hydrogens summed into heavy atoms:
               1          2
     1  C    0.104503   0.814407
     2  N   -0.022687  -0.126679
     3  N   -0.081816  -0.687728
 Electronic spatial extent (au):  <R**2>=            595.8013
 Charge=              0.0000 electrons
 Dipole moment (field-independent basis, Debye):
    X=              0.7304    Y=              0.7520    Z=              2.7872  Tot=              2.9778
 Quadrupole moment (field-independent basis, Debye-Ang):
   XX=            -11.7107   YY=            -20.7483   ZZ=            -22.1642
   XY=              2.0460   XZ=              7.5283   YZ=             -0.4724
 Traceless Quadrupole moment (field-independent basis, Debye-Ang):
   XX=              6.4970   YY=             -2.5406   ZZ=             -3.9564
   XY=              2.0460   XZ=              7.5283   YZ=             -0.4724
 Octapole moment (field-independent basis, Debye-Ang**2):
  XXX=            -78.9232  YYY=             10.2820  ZZZ=             40.0997  XYY=            -43.7886
  XXY=              7.8620  XXZ=             27.5966  XZZ=            -51.0835  YZZ=              5.4449
  YYZ=             11.3659  XYZ=             -2.3037
 Hexadecapole moment (field-independent basis, Debye-Ang**3):
 XXXX=           -427.8463 YYYY=            -26.1105 ZZZZ=           -109.7759 XXXY=             33.7241
 XXXZ=            117.0241 YYYX=             27.7738 YYYZ=            -11.5436 ZZZX=            114.0165
 ZZZY=            -14.2492 XXYY=           -118.6558 XXZZ=           -148.7800 YYZZ=            -21.7262
 XXYZ=             -9.4643 YYXZ=             32.3101 ZZXY=             15.2119
 N-N= 7.338254906404D+01 E-N=-4.949769409286D+02  KE= 1.484025280743D+02
                          Isotropic Fermi Contact Couplings
        Atom                 a.u.       MegaHertz       Gauss      10(-4) cm-1
     1  C(13)              0.24898     139.94838      49.93706      46.68175
     2  N(14)             -0.07796     -12.59394      -4.49383      -4.20089
     3  N(14)             -0.34159     -55.18386     -19.69098     -18.40736
     4  H(1)               0.01660      37.09912      13.23789      12.37493
     5  H(1)              -0.02249     -50.27432     -17.93913     -16.76971
     6  H(1)              -0.02262     -50.55941     -18.04086     -16.86480
     7  H(1)               0.00436       9.75468       3.48071       3.25381
 --------------------------------------------------------
       Center         ----  Spin Dipole Couplings  ----
                      3XX-RR        3YY-RR        3ZZ-RR
 --------------------------------------------------------
     1   Atom       -0.473862      0.808833     -0.334971
     2   Atom        0.157745     -0.268442      0.110697
     3   Atom        0.765840     -1.438962      0.673122
     4   Atom       -0.079854      0.018308      0.061546
     5   Atom       -0.051522      0.006048      0.045474
     6   Atom       -0.040547      0.006275      0.034271
     7   Atom        0.023389      0.001060     -0.024449
 --------------------------------------------------------
                        XY            XZ            YZ
 --------------------------------------------------------
     1   Atom       -0.005277      0.010465     -0.330577
     2   Atom        0.001163     -0.005584      0.109579
     3   Atom        0.007204     -0.024954      0.610449
     4   Atom       -0.013201     -0.047126      0.012180
     5   Atom       -0.010195     -0.036811      0.011142
     6   Atom        0.014293      0.054248      0.008465
     7   Atom       -0.001449     -0.005842     -0.007415
 --------------------------------------------------------


 ---------------------------------------------------------------------------------
              Anisotropic Spin Dipole Couplings in Principal Axis System
 ---------------------------------------------------------------------------------

       Atom             a.u.   MegaHertz   Gauss  10(-4) cm-1        Axes

              Baa    -0.4754   -63.792   -22.763   -21.279  0.9860 -0.0377 -0.1623
     1 C(13)  Bbb    -0.4222   -56.650   -20.214   -18.896  0.1666  0.2564  0.9521
              Bcc     0.8975   120.442    42.977    40.175 -0.0057  0.9658 -0.2591
 
              Baa    -0.2978   -11.487    -4.099    -3.832 -0.0056  0.9658 -0.2591
     2 N(14)  Bbb     0.1387     5.350     1.909     1.785  0.2584  0.2517  0.9327
              Bcc     0.1591     6.137     2.190     2.047  0.9660 -0.0617 -0.2510
 
              Baa    -1.6028   -61.816   -22.057   -20.619 -0.0057  0.9658 -0.2591
     3 N(14)  Bbb     0.7595    29.293    10.453     9.771  0.9611  0.0769  0.2655
              Bcc     0.8433    32.523    11.605    10.848 -0.2763  0.2475  0.9286
 
              Baa    -0.0949   -50.614   -18.060   -16.883  0.9561  0.0812  0.2817
     4 H(1)   Bbb     0.0151     8.066     2.878     2.691 -0.0057  0.9658 -0.2591
              Bcc     0.0797    42.548    15.182    14.193 -0.2931  0.2461  0.9238
 
              Baa    -0.0645   -34.388   -12.271   -11.471  0.9472  0.0883  0.3082
     5 H(1)   Bbb     0.0031     1.665     0.594     0.555 -0.0057  0.9659 -0.2590
              Bcc     0.0613    32.724    11.677    10.915 -0.3206  0.2436  0.9154
 
              Baa    -0.0700   -37.375   -13.336   -12.467  0.8851 -0.1157 -0.4509
     6 H(1)   Bbb     0.0039     2.091     0.746     0.698 -0.0057  0.9658 -0.2592
              Bcc     0.0661    35.284    12.590    11.770  0.4654  0.2319  0.8541
 
              Baa    -0.0272   -14.494    -5.172    -4.835  0.1182  0.2580  0.9589
     7 H(1)   Bbb     0.0031     1.632     0.582     0.544 -0.0056  0.9658 -0.2592
              Bcc     0.0241    12.862     4.589     4.290  0.9930 -0.0252 -0.1156
 

 ---------------------------------------------------------------------------------

 No NMR shielding tensors so no spin-rotation constants.
 Leave Link  601 at Tue Jan  3 09:03:37 2023, MaxMem=   536870912 cpu:               0.4 elap:               0.2
 (Enter /opt/software/gaussian/g16.c01/l9999.exe)

 Test job not archived.
 1\1\GINC-GRA733\Stability\UHF\Gen\C1H4N2\BHAVUK\03-Jan-2023\0\\#p uhf/
 gen stable=opt scf=(maxcycle=900,verytightlineq,xqc) integral=grid=ult
 rafine symmetry=None density=current iop(99/18=-1) output=wfn\\0001_q0
 00_m01_k00_opt_uwb97xd_def2svpd/0001_q000_m01_k00_force_uhf_def2svp st
 able-force\\0,1\C,0,1.0726168695,-0.0701991232,-0.153012633\N,0,2.3779
 437514,-0.0897456927,-0.2543854931\N,0,3.0833554789,-0.3684697824,-1.3
 087287982\H,0,4.0640493508,-0.2926697434,-1.0476368317\H,0,0.639962873
 1,0.1851542916,0.8085260928\H,0,0.4830438364,-0.3099796861,-1.03372479
 99\H,0,2.8674978397,0.1458797364,0.6131324666\\Version=ES64L-G16RevC.0
 1\HF=-148.879777\S2=0.674184\S2-1=0.\S2A=0.055704\RMSD=1.412e-10\Dipol
 e=0.2873601,0.2958441,1.0965762\Quadrupole=4.830396,-1.8888814,-2.9415
 145,1.5211762,5.5971128,-0.3512403\PG=Unknown\\@

 Writing a WFN file to "0001_q000_m01_k00_force_uhf_def2svp.wfn"


 WHEN ALL ELSE FAILS, LOOK AT THE SCHRODINGER EQUATION.
     -- RUSSELL T. PACK, APRIL 1978
 Job cpu time:       0 days  0 hours  0 minutes  5.8 seconds.
 Elapsed time:       0 days  0 hours  0 minutes  3.2 seconds.
 File lengths (MBytes):  RWF=     49 Int=      0 D2E=      0 Chk=      2 Scr=      1
 Normal termination of Gaussian 16 at Tue Jan  3 09:03:37 2023.
 Initial command:
 /opt/software/gaussian/g16.c01/l1.exe "/localscratch/bhavuk.2151340.0/Gau-13001.inp" -scrdir="/localscratch/bhavuk.2151340.0/"
 Entering Link 1 = /opt/software/gaussian/g16.c01/l1.exe PID=     13024.
  
 Copyright (c) 1988-2019, Gaussian, Inc.  All Rights Reserved.
  
 This is part of the Gaussian(R) 16 program.  It is based on
 the Gaussian(R) 09 system (copyright 2009, Gaussian, Inc.),
 the Gaussian(R) 03 system (copyright 2003, Gaussian, Inc.),
 the Gaussian(R) 98 system (copyright 1998, Gaussian, Inc.),
 the Gaussian(R) 94 system (copyright 1995, Gaussian, Inc.),
 the Gaussian 92(TM) system (copyright 1992, Gaussian, Inc.),
 the Gaussian 90(TM) system (copyright 1990, Gaussian, Inc.),
 the Gaussian 88(TM) system (copyright 1988, Gaussian, Inc.),
 the Gaussian 86(TM) system (copyright 1986, Carnegie Mellon
 University), and the Gaussian 82(TM) system (copyright 1983,
 Carnegie Mellon University). Gaussian is a federally registered
 trademark of Gaussian, Inc.
  
 This software contains proprietary and confidential information,
 including trade secrets, belonging to Gaussian, Inc.
  
 This software is provided under written license and may be
 used, copied, transmitted, or stored only in accord with that
 written license.
  
 The following legend is applicable only to US Government
 contracts under FAR:
  
                    RESTRICTED RIGHTS LEGEND
  
 Use, reproduction and disclosure by the US Government is
 subject to restrictions as set forth in subparagraphs (a)
 and (c) of the Commercial Computer Software - Restricted
 Rights clause in FAR 52.227-19.
  
 Gaussian, Inc.
 340 Quinnipiac St., Bldg. 40, Wallingford CT 06492
  
  
 ---------------------------------------------------------------
 Warning -- This program may not be used in any manner that
 competes with the business of Gaussian, Inc. or will provide
 assistance to any competitor of Gaussian, Inc.  The licensee
 of this program is prohibited from giving any competitor of
 Gaussian, Inc. access to this program.  By using this program,
 the user acknowledges that Gaussian, Inc. is engaged in the
 business of creating and licensing software in the field of
 computational chemistry and represents and warrants to the
 licensee that it is not a competitor of Gaussian, Inc. and that
 it will not use this program in any manner prohibited above.
 ---------------------------------------------------------------
  

 Cite this work as:
 Gaussian 16, Revision C.01,
 M. J. Frisch, G. W. Trucks, H. B. Schlegel, G. E. Scuseria, 
 M. A. Robb, J. R. Cheeseman, G. Scalmani, V. Barone, 
 G. A. Petersson, H. Nakatsuji, X. Li, M. Caricato, A. V. Marenich, 
 J. Bloino, B. G. Janesko, R. Gomperts, B. Mennucci, H. P. Hratchian, 
 J. V. Ortiz, A. F. Izmaylov, J. L. Sonnenberg, D. Williams-Young, 
 F. Ding, F. Lipparini, F. Egidi, J. Goings, B. Peng, A. Petrone, 
 T. Henderson, D. Ranasinghe, V. G. Zakrzewski, J. Gao, N. Rega, 
 G. Zheng, W. Liang, M. Hada, M. Ehara, K. Toyota, R. Fukuda, 
 J. Hasegawa, M. Ishida, T. Nakajima, Y. Honda, O. Kitao, H. Nakai, 
 T. Vreven, K. Throssell, J. A. Montgomery, Jr., J. E. Peralta, 
 F. Ogliaro, M. J. Bearpark, J. J. Heyd, E. N. Brothers, K. N. Kudin, 
 V. N. Staroverov, T. A. Keith, R. Kobayashi, J. Normand, 
 K. Raghavachari, A. P. Rendell, J. C. Burant, S. S. Iyengar, 
 J. Tomasi, M. Cossi, J. M. Millam, M. Klene, C. Adamo, R. Cammi, 
 J. W. Ochterski, R. L. Martin, K. Morokuma, O. Farkas, 
 J. B. Foresman, and D. J. Fox, Gaussian, Inc., Wallingford CT, 2019.
 
 ******************************************
 Gaussian 16:  ES64L-G16RevC.01  3-Jul-2019
                 3-Jan-2023 
 ******************************************
 %chk=0001_q000_m01_k00_force_uhf_def2svp.chk
 %nprocshared=2
 Will use up to    2 processors via shared memory.
 %mem=4GB
 ----------------------------------------------------------------------
 #p uhf/chkbasis force guess=read geom=check scf=(maxcycle=900,verytigh
 tlineq,xqc) integral=grid=ultrafine symmetry=None density=current pop=
 (cm5,hlygat,mbs,npa) output=wfx
 ----------------------------------------------------------------------
 1/10=7,29=2,30=1,38=1/1,3;
 2/12=2,15=3,40=1/2;
 3/5=7,6=2,11=2,14=-4,25=1,30=1,67=1,71=1,75=-5,116=2/1,2,3;
 4/5=1/1;
 5/5=2,7=900,8=3,13=1,17=3,38=6/2,8;
 6/7=2,8=2,9=2,10=2,15=8,20=15,22=-1,27=100,28=1,40=-1,79=1/1,2,7;
 7/29=1,30=1/1,2,3,16;
 1/10=7,30=1/3;
 99/6=200/99;
 Leave Link    1 at Tue Jan  3 09:03:37 2023, MaxMem=   536870912 cpu:               0.2 elap:               0.1
 (Enter /opt/software/gaussian/g16.c01/l101.exe)
 ----------------------------------------------------------------------
 0001_q000_m01_k00_opt_uwb97xd_def2svpd/0001_q000_m01_k00_force_uhf_def
 2svp stable-force
 ----------------------------------------------------------------------
 Structure from the checkpoint file:  "0001_q000_m01_k00_force_uhf_def2svp.chk"
 Charge =  0 Multiplicity = 1
 Z-Matrix found in chk file.
 C,0,1.0726168695,-0.0701991232,-0.153012633
 N,0,2.3779437514,-0.0897456927,-0.2543854931
 N,0,3.0833554789,-0.3684697824,-1.3087287982
 H,0,4.0640493508,-0.2926697434,-1.0476368317
 H,0,0.6399628731,0.1851542916,0.8085260928
 H,0,0.4830438364,-0.3099796861,-1.0337247999
 H,0,2.8674978397,0.1458797364,0.6131324666
 Recover connectivity data from disk.
 ITRead=  0  0  0  0  0  0  0
 MicOpt= -1 -1 -1 -1 -1 -1 -1
 NAtoms=      7 NQM=        7 NQMF=       0 NMMI=      0 NMMIF=      0
                NMic=       0 NMicF=      0.
                    Isotopes and Nuclear Properties:
 (Nuclear quadrupole moments (NQMom) in fm**2, nuclear magnetic moments (NMagM)
  in nuclear magnetons)

  Atom         1           2           3           4           5           6           7
 IAtWgt=          12          14          14           1           1           1           1
 AtmWgt=  12.0000000  14.0030740  14.0030740   1.0078250   1.0078250   1.0078250   1.0078250
 NucSpn=           0           2           2           1           1           1           1
 AtZEff=   3.6000000   4.5500000   4.5500000   1.0000000   1.0000000   1.0000000   1.0000000
 NQMom=    0.0000000   2.0440000   2.0440000   0.0000000   0.0000000   0.0000000   0.0000000
 NMagM=    0.0000000   0.4037610   0.4037610   2.7928460   2.7928460   2.7928460   2.7928460
 AtZNuc=   6.0000000   7.0000000   7.0000000   1.0000000   1.0000000   1.0000000   1.0000000
 Leave Link  101 at Tue Jan  3 09:03:37 2023, MaxMem=   536870912 cpu:               0.4 elap:               0.2
 (Enter /opt/software/gaussian/g16.c01/l103.exe)

 GradGradGradGradGradGradGradGradGradGradGradGradGradGradGradGradGradGrad
 Berny optimization.
 Initialization pass.
 Trust Radius=3.00D-01 FncErr=1.00D-07 GrdErr=1.00D-07 EigMax=2.50D+02 EigMin=1.00D-04
 Number of steps in this run=      2 maximum allowed number of steps=      2.
 GradGradGradGradGradGradGradGradGradGradGradGradGradGradGradGradGradGrad

 Leave Link  103 at Tue Jan  3 09:03:37 2023, MaxMem=   536870912 cpu:               0.0 elap:               0.0
 (Enter /opt/software/gaussian/g16.c01/l202.exe)
                          Input orientation:                          
 ---------------------------------------------------------------------
 Center     Atomic      Atomic             Coordinates (Angstroms)
 Number     Number       Type             X           Y           Z
 ---------------------------------------------------------------------
      1          6           0        1.072617   -0.070199   -0.153013
      2          7           0        2.377944   -0.089746   -0.254385
      3          7           0        3.083355   -0.368470   -1.308729
      4          1           0        4.064049   -0.292670   -1.047637
      5          1           0        0.639963    0.185154    0.808526
      6          1           0        0.483044   -0.309980   -1.033725
      7          1           0        2.867498    0.145880    0.613132
 ---------------------------------------------------------------------
                    Distance matrix (angstroms):
                    1          2          3          4          5
     1  C    0.000000
     2  N    1.309403   0.000000
     3  N    2.338315   1.298820   0.000000
     4  H    3.130258   1.874401   1.017681   0.000000
     5  H    1.084874   2.055706   3.280158   3.924032   0.000000
     6  H    1.086621   2.060708   2.615467   3.581074   1.914071
     7  H    1.963483   1.023606   2.001175   2.093374   2.236433
                    6          7
     6  H    0.000000
     7  H    2.933525   0.000000
 Symmetry turned off by external request.
 Stoichiometry    CH4N2
 Rotational constants (GHZ):          71.2642239          11.2793619           9.7380671
 Leave Link  202 at Tue Jan  3 09:03:37 2023, MaxMem=   536870912 cpu:               0.0 elap:               0.0
 (Enter /opt/software/gaussian/g16.c01/l301.exe)
 Basis read from chk: "0001_q000_m01_k00_force_uhf_def2svp.chk" (5D, 7F)
 No pseudopotential information found on chk file.
    62 basis functions,   103 primitive gaussians,    65 cartesian basis functions
    12 alpha electrons       12 beta electrons
       nuclear repulsion energy        73.3825490640 Hartrees.
 IExCor=    0 DFT=F Ex=HF Corr=None ExCW=0 ScaHFX=  1.000000
 ScaDFX=  1.000000  1.000000  1.000000  1.000000 ScalE2=  1.000000  1.000000
 IRadAn=      5 IRanWt=     -1 IRanGd=            0 ICorTp=0 IEmpDi=  4
 NAtoms=    7 NActive=    7 NUniq=    7 SFac= 1.00D+00 NAtFMM=   60 NAOKFM=F Big=F
 Integral buffers will be    131072 words long.
 Raffenetti 2 integral format.
 Two-electron integral symmetry is turned off.
 No density basis found on file  20724.
 Leave Link  301 at Tue Jan  3 09:03:37 2023, MaxMem=   536870912 cpu:               0.1 elap:               0.1
 (Enter /opt/software/gaussian/g16.c01/l302.exe)
 NPDir=0 NMtPBC=     1 NCelOv=     1 NCel=       1 NClECP=     1 NCelD=      1
         NCelK=      1 NCelE2=     1 NClLst=     1 CellRange=     0.0.
 One-electron integrals computed using PRISM.
 NBasis=    62 RedAO= T EigKep=  5.91D-03  NBF=    62
 NBsUse=    62 1.00D-06 EigRej= -1.00D+00 NBFU=    62
 Leave Link  302 at Tue Jan  3 09:03:37 2023, MaxMem=   536870912 cpu:               0.2 elap:               0.1
[...]
    47    H    4  pz     Ryd( 2p)     0.00029       2.04970
 
    48    H    5  S      Val( 1S)     0.39421       0.14020
    49    H    5  S      Ryd( 2S)     0.00029       0.42212
    50    H    5  px     Ryd( 2p)     0.00013       2.13849
    51    H    5  py     Ryd( 2p)     0.00035       1.91649
    52    H    5  pz     Ryd( 2p)     0.00049       2.53286
 
    53    H    6  S      Val( 1S)     0.38807       0.16145
    54    H    6  S      Ryd( 2S)     0.00079       0.43629
    55    H    6  px     Ryd( 2p)     0.00017       2.24601
    56    H    6  py     Ryd( 2p)     0.00025       1.92660
    57    H    6  pz     Ryd( 2p)     0.00043       2.45966
 
    58    H    7  S      Val( 1S)     0.31464       0.18863
    59    H    7  S      Ryd( 2S)     0.00201       0.46759
    60    H    7  px     Ryd( 2p)     0.00028       2.32626
    61    H    7  py     Ryd( 2p)     0.00017       1.92086
    62    H    7  pz     Ryd( 2p)     0.00080       2.50713


 Summary of Natural Population Analysis:                  
                                                          
                                       Natural Population 
                Natural  -----------------------------------------------
    Atom  No    Charge         Core      Valence    Rydberg      Total
 -----------------------------------------------------------------------
      C    1   -0.50589      0.99969     2.48451    0.02169     3.50589
      N    2   -0.13781      0.99966     2.62613    0.01203     3.63781
      N    3    0.10920      0.99981     2.37675    0.01424     3.39080
      H    4    0.13759      0.00000     0.36002    0.00239     0.36241
      H    5    0.10453      0.00000     0.39421    0.00126     0.39547
      H    6    0.11028      0.00000     0.38807    0.00165     0.38972
      H    7    0.18210      0.00000     0.31464    0.00326     0.31790
 =======================================================================
   * Total *   -0.00000      2.99917     8.94432    0.05651    12.00000

                                 Natural Population      
 --------------------------------------------------------
   Core                       2.99917 ( 99.9722% of   3)
   Valence                    8.94432 ( 99.3814% of   9)
   Natural Minimal Basis     11.94349 ( 99.5291% of  12)
   Natural Rydberg Basis      0.05651 (  0.4709% of  12)
 --------------------------------------------------------

    Atom  No          Natural Electron Configuration
 ----------------------------------------------------------------------------
      C    1      [core]2S( 0.53)2p( 1.95)3p( 0.02)
      N    2      [core]2S( 0.59)2p( 2.03)3p( 0.01)
      N    3      [core]2S( 0.74)2p( 1.64)3p( 0.01)
      H    4            1S( 0.36)
      H    5            1S( 0.39)
      H    6            1S( 0.39)
      H    7            1S( 0.31)


 NBO analysis skipped by request.


 ***************************************************
 *******         Beta  spin orbitals         *******
 ***************************************************


 NATURAL POPULATIONS:  Natural atomic orbital occupancies 
                                                          
   NAO  Atom  No  lang   Type(AO)    Occupancy      Energy
 ----------------------------------------------------------
     1    C    1  S      Cor( 1S)     0.99970     -11.11604
     2    C    1  S      Val( 2S)     0.47193      -0.10395
     3    C    1  S      Ryd( 3S)     0.00115       0.66985
     4    C    1  px     Val( 2p)     0.41630       0.09672
     5    C    1  px     Ryd( 3p)     0.00422       0.64241
     6    C    1  py     Val( 2p)     0.22277       0.11651
     7    C    1  py     Ryd( 3p)     0.00085       0.75326
     8    C    1  pz     Val( 2p)     0.54035       0.03728
     9    C    1  pz     Ryd( 3p)     0.00240       0.97988
    10    C    1  dxy    Ryd( 3d)     0.00123       2.32946
    11    C    1  dxz    Ryd( 3d)     0.00049       2.84091
    12    C    1  dyz    Ryd( 3d)     0.00020       2.34176
    13    C    1  dx2y2  Ryd( 3d)     0.00093       2.56613
    14    C    1  dz2    Ryd( 3d)     0.00080       2.70090
 
    15    N    2  S      Cor( 1S)     0.99965     -15.48086
    16    N    2  S      Val( 2S)     0.60344      -0.59438
    17    N    2  S      Ryd( 3S)     0.00193       1.09106
    18    N    2  px     Val( 2p)     0.67897      -0.32561
    19    N    2  px     Ryd( 3p)     0.00122       1.15257
    20    N    2  py     Val( 2p)     0.80905      -0.36891
    21    N    2  py     Ryd( 3p)     0.00214       1.05657
    22    N    2  pz     Val( 2p)     0.64836      -0.26823
    23    N    2  pz     Ryd( 3p)     0.00159       1.43397
    24    N    2  dxy    Ryd( 3d)     0.00095       2.69425
    25    N    2  dxz    Ryd( 3d)     0.00084       3.27131
    26    N    2  dyz    Ryd( 3d)     0.00058       2.72808
    27    N    2  dx2y2  Ryd( 3d)     0.00053       3.06028
    28    N    2  dz2    Ryd( 3d)     0.00089       3.07281
 
    29    N    3  S      Cor( 1S)     0.99981     -15.41186
    30    N    3  S      Val( 2S)     0.77086      -0.71545
    31    N    3  S      Ryd( 3S)     0.00296       1.06966
    32    N    3  px     Val( 2p)     0.62004      -0.13845
    33    N    3  px     Ryd( 3p)     0.00329       1.15338
    34    N    3  py     Val( 2p)     0.95180      -0.41464
    35    N    3  py     Ryd( 3p)     0.00332       0.99512
    36    N    3  pz     Val( 2p)     0.71877      -0.22375
    37    N    3  pz     Ryd( 3p)     0.00200       1.04569
    38    N    3  dxy    Ryd( 3d)     0.00022       2.68263
    39    N    3  dxz    Ryd( 3d)     0.00112       3.11952
    40    N    3  dyz    Ryd( 3d)     0.00089       2.70067
    41    N    3  dx2y2  Ryd( 3d)     0.00031       3.06106
    42    N    3  dz2    Ryd( 3d)     0.00113       2.93818
 
    43    H    4  S      Val( 1S)     0.32812       0.19546
    44    H    4  S      Ryd( 2S)     0.00077       0.47797
    45    H    4  px     Ryd( 2p)     0.00106       2.65968
    46    H    4  py     Ryd( 2p)     0.00061       1.88836
    47    H    4  pz     Ryd( 2p)     0.00032       2.05212
 
    48    H    5  S      Val( 1S)     0.43677       0.10855
    49    H    5  S      Ryd( 2S)     0.00026       0.42071
    50    H    5  px     Ryd( 2p)     0.00016       2.13553
    51    H    5  py     Ryd( 2p)     0.00005       1.92418
    52    H    5  pz     Ryd( 2p)     0.00052       2.53332
 
    53    H    6  S      Val( 1S)     0.43068       0.12934
    54    H    6  S      Ryd( 2S)     0.00062       0.43489
    55    H    6  px     Ryd( 2p)     0.00021       2.24351
    56    H    6  py     Ryd( 2p)     0.00004       1.93365
    57    H    6  pz     Ryd( 2p)     0.00047       2.45945
 
    58    H    7  S      Val( 1S)     0.30615       0.19501
    59    H    7  S      Ryd( 2S)     0.00180       0.46833
    60    H    7  px     Ryd( 2p)     0.00025       2.32687
    61    H    7  py     Ryd( 2p)     0.00032       1.91978
    62    H    7  pz     Ryd( 2p)     0.00081       2.50749


 Summary of Natural Population Analysis:                  
                                                          
                                       Natural Population 
                Natural  -----------------------------------------------
    Atom  No    Charge         Core      Valence    Rydberg      Total
 -----------------------------------------------------------------------
      C    1    0.33669      0.99970     1.65135    0.01227     2.66331
      N    2   -0.25015      0.99965     2.73982    0.01068     3.75015
      N    3   -0.57652      0.99981     3.06147    0.01524     4.07652
      H    4    0.16911      0.00000     0.32812    0.00277     0.33089
      H    5    0.06223      0.00000     0.43677    0.00100     0.43777
      H    6    0.06797      0.00000     0.43068    0.00135     0.43203
      H    7    0.19066      0.00000     0.30615    0.00319     0.30934
 =======================================================================
   * Total *   -0.00000      2.99915     8.95437    0.04648    12.00000

                                 Natural Population      
 --------------------------------------------------------
   Core                       2.99915 ( 99.9717% of   3)
   Valence                    8.95437 ( 99.4930% of   9)
   Natural Minimal Basis     11.95352 ( 99.6127% of  12)
   Natural Rydberg Basis      0.04648 (  0.3873% of  12)
 --------------------------------------------------------

    Atom  No          Natural Electron Configuration
 ----------------------------------------------------------------------------
      C    1      [core]2S( 0.47)2p( 1.18)3p( 0.01)
      N    2      [core]2S( 0.60)2p( 2.14)
      N    3      [core]2S( 0.77)2p( 2.29)3p( 0.01)
      H    4            1S( 0.33)
      H    5            1S( 0.44)
      H    6            1S( 0.43)
      H    7            1S( 0.31)


 NBO analysis skipped by request.
 Leave Link  607 at Tue Jan  3 09:03:40 2023, MaxMem=   536870912 cpu:               3.6 elap:               1.8
 (Enter /opt/software/gaussian/g16.c01/l701.exe)
 ... and contract with generalized density number  0.
 Compute integral first derivatives.
 Leave Link  701 at Tue Jan  3 09:03:41 2023, MaxMem=   536870912 cpu:               0.2 elap:               0.1
 (Enter /opt/software/gaussian/g16.c01/l702.exe)
 L702 exits ... SP integral derivatives will be done elsewhere.
 Leave Link  702 at Tue Jan  3 09:03:41 2023, MaxMem=   536870912 cpu:               0.1 elap:               0.0
 (Enter /opt/software/gaussian/g16.c01/l703.exe)
 Integral derivatives from FoFJK, PRISM(SPDF).
 Compute integral first derivatives, UseDBF=F ICtDFT=           0.
 Calling FoFJK, ICntrl=      2127 FMM=F ISym2X=0 I1Cent= 0 IOpClX= 1 NMat=1 NMatS=1 NMatT=0.
 FoFJK:  IHMeth= 1 ICntrl=    2127 DoSepK=F KAlg= 0 I1Cent=           0 FoldK=F
 IRaf=         0 NMat=       1 IRICut=       1 DoRegI=T DoRafI=F ISym2E= 0 IDoP0=0 IntGTp=1.
 FoFCou: FMM=F IPFlag=           0 FMFlag=      100000 FMFlg1=         800
         NFxFlg=           0 DoJE=F BraDBF=F KetDBF=F FulRan=T
         wScrn=  0.000000 ICntrl=      2127 IOpCl=  1 I1Cent=           0 NGrid=           0
         NMat0=    1 NMatS0=      1 NMatT0=    0 NMatD0=    1 NMtDS0=    0 NMtDT0=    0
 Symmetry not used in FoFCou.
 Leave Link  703 at Tue Jan  3 09:03:41 2023, MaxMem=   536870912 cpu:               0.6 elap:               0.3
 (Enter /opt/software/gaussian/g16.c01/l716.exe)
 Dipole        = 2.87360101D-01 2.95844101D-01 1.09657616D+00
 -------------------------------------------------------------------
 Center     Atomic                   Forces (Hartrees/Bohr)
 Number     Number              X              Y              Z
 -------------------------------------------------------------------
      1        6          -0.048773156   -0.001245419   -0.003573131
      2        7           0.056685054    0.006499580    0.022986562
      3        7           0.005544644   -0.000780045   -0.003027900
      4        1          -0.009840721   -0.000443476   -0.001439370
      5        1           0.000998379   -0.001616244   -0.006048985
      6        1           0.001593726    0.001675789    0.006210667
      7        1          -0.006207927   -0.004090184   -0.015107844
 -------------------------------------------------------------------
 Cartesian Forces:  Max     0.056685054 RMS     0.017840862
 Z-matrix is all fixed cartesians, so copy forces.
 Force constants in Cartesian coordinates: 
                1             2             3             4             5 
      1  0.979681D+00
      2 -0.379301D-03  0.213865D+00
      3 -0.190645D-01  0.142607D+00  0.707620D+00
      4 -0.643805D+00  0.579070D-02  0.334547D-01  0.112567D+01
      5  0.632347D-02 -0.106234D+00 -0.223587D-01 -0.331382D-01  0.255501D+00
      6  0.354270D-01 -0.223469D-01 -0.184344D+00 -0.143773D+00  0.210309D+00
      7  0.271848D-02  0.887848D-02  0.332925D-01 -0.285848D+00  0.632473D-01
      8  0.405863D-03  0.125485D-01  0.280651D-02  0.556667D-01 -0.952295D-01
      9  0.171151D-02  0.262289D-02  0.215325D-01  0.212339D+00 -0.116800D+00
     10  0.000000D+00 -0.399533D-04  0.107186D-04 -0.760156D-02 -0.133499D-02
     11 -0.399096D-04  0.681015D-02 -0.182702D-02  0.704590D-02  0.450257D-02
     12  0.107071D-04 -0.182705D-02  0.490159D-03  0.265068D-01  0.370720D-02
     13 -0.151899D+00  0.232181D-01  0.887550D-01  0.227506D-02  0.740187D-02
     14  0.222321D-01 -0.700228D-01 -0.649731D-01  0.189247D-03  0.144423D-01
     15  0.850866D-01 -0.649992D-01 -0.296927D+00  0.973426D-03 -0.504849D-03
     16 -0.184388D+00 -0.297881D-01 -0.108208D+00 -0.207961D-02 -0.693893D-02
     17 -0.287722D-01 -0.722180D-01 -0.562752D-01  0.243717D-03  0.170004D-01
     18 -0.104411D+00 -0.562483D-01 -0.264302D+00  0.132579D-02  0.166311D-04
     19 -0.230818D-02 -0.767988D-02 -0.282404D-01 -0.188615D+00 -0.355605D-01
     20  0.229955D-03  0.152509D-01  0.203553D-04 -0.357981D-01 -0.899827D-01
     21  0.124008D-02  0.191593D-03  0.159310D-01 -0.130826D+00 -0.743693D-01
                6             7             8             9            10 
      6  0.986309D+00
      7  0.240594D+00  0.668956D+00
      8 -0.116633D+00 -0.324380D-01  0.846813D-01
      9 -0.504269D+00 -0.134507D+00  0.140554D+00  0.574006D+00
     10 -0.473293D-02 -0.410677D+00 -0.278084D-01 -0.950666D-01  0.418278D+00
     11  0.352379D-02 -0.361895D-01 -0.231711D-01 -0.184397D-01  0.291372D-01
     12  0.167545D-01 -0.126306D+00 -0.186231D-01 -0.846654D-01  0.998012D-01
     13  0.278675D-01  0.000000D+00 -0.447309D-04  0.120004D-04  0.000000D+00
     14 -0.347895D-03 -0.447767D-04  0.764067D-02 -0.204983D-02  0.000000D+00
     15  0.126317D-01  0.120092D-04 -0.204924D-02  0.549768D-03  0.000000D+00
     16 -0.254401D-01  0.000000D+00  0.448748D-04 -0.120390D-04  0.000000D+00
     17 -0.139769D-03  0.448434D-04 -0.765204D-02  0.205288D-02  0.000000D+00
     18  0.170683D-01 -0.120329D-04  0.205329D-02 -0.550853D-03  0.000000D+00
     19 -0.129942D+00  0.248506D-01  0.417370D-02  0.155231D-01  0.000000D+00
     20 -0.743652D-01 -0.349835D-02  0.211822D-01 -0.794026D-02  0.462088D-04
     21 -0.344150D+00 -0.130734D-01 -0.810855D-02 -0.660326D-02 -0.123974D-04
               11            12            13            14            15 
     11  0.197348D-01
     12  0.146298D-01  0.679877D-01
     13  0.000000D+00  0.000000D+00  0.120347D+00
     14  0.000000D+00  0.000000D+00 -0.258292D-01  0.469624D-01
     15  0.000000D+00  0.000000D+00 -0.983283D-01  0.699484D-01  0.291298D+00
     16  0.000000D+00  0.000000D+00  0.292766D-01  0.340314D-02  0.122695D-01
     17  0.000000D+00  0.000000D+00 -0.479540D-02  0.941143D-02 -0.465711D-02
     18  0.000000D+00  0.000000D+00 -0.182930D-01 -0.484049D-02 -0.694563D-02
     19  0.463037D-04 -0.124225D-04  0.000000D+00  0.494397D-04 -0.132598D-04
     20 -0.787642D-02  0.211311D-02  0.493749D-04 -0.843392D-02  0.226199D-02
     21  0.211317D-02 -0.566929D-03 -0.132473D-04  0.226283D-02 -0.606894D-03
               16            17            18            19            20 
     16  0.157191D+00
     17  0.333285D-01  0.450118D-01
     18  0.121377D+00  0.612854D-01  0.254122D+00
     19  0.000000D+00 -0.495133D-04  0.132860D-04  0.166072D+00
     20 -0.495337D-04  0.844647D-02 -0.226646D-02  0.390205D-01  0.614135D-01
     21  0.132899D-04 -0.226619D-02  0.608092D-03  0.142672D+00  0.801764D-01
               21 
     21  0.335388D+00
 Leave Link  716 at Tue Jan  3 09:03:41 2023, MaxMem=   536870912 cpu:               0.1 elap:               0.0
 (Enter /opt/software/gaussian/g16.c01/l103.exe)

 GradGradGradGradGradGradGradGradGradGradGradGradGradGradGradGradGradGrad
 Berny optimization.
 Search for a local minimum.
 Step number   1 out of a maximum of    2
 All quantities printed in internal units (Hartrees-Bohrs-Radians)
 Second derivative matrix not updated -- first step.
 ITU=  0
     Eigenvalues ---    0.02409   0.03062   0.03370   0.05977   0.08903
     Eigenvalues ---    0.11483   0.14278   0.19866   0.30111   0.35087
     Eigenvalues ---    0.61127   0.81664   1.00827   1.49337   1.92763
 Angle between quadratic step and forces=  58.62 degrees.
 Linear search not attempted -- first point.
 B after Tr=     0.003282    0.001470    0.005413
         Rot=    1.000000   -0.000001    0.000176   -0.000047 Ang=  -0.02 deg.
 Variable       Old X    -DE/DX   Delta X   Delta X   Delta X     New X
                                 (Linear)    (Quad)   (Total)
    X1        2.02695  -0.04877   0.00000  -0.02789  -0.02449   2.00246
    Y1       -0.13266  -0.00125   0.00000  -0.00128   0.00038  -0.13228
    Z1       -0.28915  -0.00357   0.00000  -0.00416   0.00196  -0.28719
    X2        4.49366   0.05669   0.00000   0.04624   0.04969   4.54336
    Y2       -0.16959   0.00650   0.00000   0.00942   0.01132  -0.15828
    Z2       -0.48072   0.02299   0.00000   0.03410   0.04112  -0.43960
    X3        5.82670   0.00554   0.00000  -0.00665  -0.00243   5.82426
    Y3       -0.69631  -0.00078   0.00000  -0.00045   0.00158  -0.69473
    Z3       -2.47314  -0.00303   0.00000  -0.00151   0.00595  -2.46719
    X4        7.67994  -0.00984   0.00000  -0.02174  -0.01769   7.66225
    Y4       -0.55307  -0.00044   0.00000  -0.00786  -0.00566  -0.55872
    Z4       -1.97975  -0.00144   0.00000  -0.02888  -0.02077  -2.00052
    X5        1.20935   0.00100   0.00000  -0.06359  -0.06087   1.14849
    Y5        0.34989  -0.00162   0.00000  -0.01038  -0.00881   0.34108
    Z5        1.52789  -0.00605   0.00000  -0.03737  -0.03155   1.49634
    X6        0.91282   0.00159   0.00000  -0.00666  -0.00263   0.91019
    Y6       -0.58578   0.00168   0.00000   0.00077   0.00233  -0.58344
    Z6       -1.95346   0.00621   0.00000   0.00303   0.00877  -1.94469
    X7        5.41879  -0.00621   0.00000   0.05558   0.05843   5.47721
    Y7        0.27567  -0.00409   0.00000  -0.00312  -0.00114   0.27454
    Z7        1.15865  -0.01511   0.00000  -0.01282  -0.00548   1.15318
         Item               Value     Threshold  Converged?
 Maximum Force            0.056685     0.000450     NO 
 RMS     Force            0.017841     0.000300     NO 
 Maximum Displacement     0.060867     0.001800     NO 
 RMS     Displacement     0.025843     0.001200     NO 
 Predicted change in Energy=-2.560143D-03
 GradGradGradGradGradGradGradGradGradGradGradGradGradGradGradGradGradGrad

 Leave Link  103 at Tue Jan  3 09:03:41 2023, MaxMem=   536870912 cpu:               0.0 elap:               0.0
 (Enter /opt/software/gaussian/g16.c01/l9999.exe)
 Unable to Open any file for archive entry.
 1\1\GINC-GRA733\Force\UHF\Gen\C1H4N2\BHAVUK\03-Jan-2023\0\\#p uhf/chkb
 asis force guess=read geom=check scf=(maxcycle=900,verytightlineq,xqc)
  integral=grid=ultrafine symmetry=None density=current pop=(cm5,hlygat
 ,mbs,npa) output=wfx\\0001_q000_m01_k00_opt_uwb97xd_def2svpd/0001_q000
 _m01_k00_force_uhf_def2svp stable-force\\0,1\C,1.0726168695,-0.0701991
 232,-0.153012633\N,2.3779437514,-0.0897456927,-0.2543854931\N,3.083355
 4789,-0.3684697824,-1.3087287982\H,4.0640493508,-0.2926697434,-1.04763
 68317\H,0.6399628731,0.1851542916,0.8085260928\H,0.4830438364,-0.30997
 96861,-1.0337247999\H,2.8674978397,0.1458797364,0.6131324666\\Version=
 ES64L-G16RevC.01\HF=-148.879777\S2=0.674184\S2-1=0.\S2A=0.055704\RMSD=
 4.803e-11\RMSF=1.784e-02\Dipole=0.2873601,0.2958441,1.0965762\Quadrupo
 le=4.830396,-1.8888814,-2.9415145,1.5211762,5.5971128,-0.3512403\PG=Un
 known\\@
 The archive entry for this job was punched.

 Writing a WFNX file to "0001_q000_m01_k00_force_uhf_def2svp.wfx"


 When cryptography is outlawed, bayl bhgynjf jvyy unir cevinpl.
 Job cpu time:       0 days  0 hours  0 minutes  8.0 seconds.
 Elapsed time:       0 days  0 hours  0 minutes  3.8 seconds.
 File lengths (MBytes):  RWF=      6 Int=      0 D2E=      0 Chk=      2 Scr=      1
 Normal termination of Gaussian 16 at Tue Jan  3 09:03:41 2023.
