 Entering Gaussian System, Link 0=g16
 Input=0001_q000_m01_k00_force_ub3lyp_def2tzvpd.com
 Output=0001_q000_m01_k00_force_ub3lyp_def2tzvpd.log
 Initial command:
 /opt/software/gaussian/g16.c01/l1.exe "/localscratch/bhavuk.2151336.0/Gau-16757.inp" -scrdir="/localscratch/bhavuk.2151336.0/"
 Entering Link 1 = /opt/software/gaussian/g16.c01/l1.exe PID=     16758.
  
 Copyright (c) 1988-2019, Gaussian, Inc.  All Rights Reserved.
  
 This is part of the Gaussian(R) 16 program.  It is based on
 the Gaussian(R) 09 system (copyright 2009, Gaussian, Inc.),
 the Gaussian(R) 03 system (copyright 2003, Gaussian, Inc.),
 the Gaussian(R) 98 system (copyright 1998, Gaussian, Inc.),
 the Gaussian(R) 94 system (copyright 1995, Gaussian, Inc.),
 the Gaussian 92(TM) system (copyright 1992, Gaussian, Inc.),
 the Gaussian 90(TM) system (copyright 1990, Gaussian, Inc.),
 the Gaussian 88(TM) system (copyright 1988, Gaussian, Inc.),
 the Gaussian 86(TM) system (copyright 1986, Carnegie Mellon
 University), and the Gaussian 82(TM) system (copyright 1983,
 Carnegie Mellon University). Gaussian is a federally registered
 trademark of Gaussian, Inc.
  
 This software contains proprietary and confidential information,
 including trade secrets, belonging to Gaussian, Inc.
  
 This software is provided under written license and may be
 used, copied, transmitted, or stored only in accord with that
 written license.
  
 The following legend is applicable only to US Government
 contracts under FAR:
  
                    RESTRICTED RIGHTS LEGEND
  
 Use, reproduction and disclosure by the US Government is
 subject to restrictions as set forth in subparagraphs (a)
 and (c) of the Commercial Computer Software - Restricted
 Rights clause in FAR 52.227-19.
  
 Gaussian, Inc.
 340 Quinnipiac St., Bldg. 40, Wallingford CT 06492
  
  
 ---------------------------------------------------------------
 Warning -- This program may not be used in any manner that
 competes with the business of Gaussian, Inc. or will provide
 assistance to any competitor of Gaussian, Inc.  The licensee
 of this program is prohibited from giving any competitor of
 Gaussian, Inc. access to this program.  By using this program,
 the user acknowledges that Gaussian, Inc. is engaged in the
 business of creating and licensing software in the field of
 computational chemistry and represents and warrants to the
 licensee that it is not a competitor of Gaussian, Inc. and that
 it will not use this program in any manner prohibited above.
 ---------------------------------------------------------------
  

 Cite this work as:
 Gaussian 16, Revision C.01,
 M. J. Frisch, G. W. Trucks, H. B. Schlegel, G. E. Scuseria, 
 M. A. Robb, J. R. Cheeseman, G. Scalmani, V. Barone, 
 G. A. Petersson, H. Nakatsuji, X. Li, M. Caricato, A. V. Marenich, 
 J. Bloino, B. G. Janesko, R. Gomperts, B. Mennucci, H. P. Hratchian, 
 J. V. Ortiz, A. F. Izmaylov, J. L. Sonnenberg, D. Williams-Young, 
 F. Ding, F. Lipparini, F. Egidi, J. Goings, B. Peng, A. Petrone, 
 T. Henderson, D. Ranasinghe, V. G. Zakrzewski, J. Gao, N. Rega, 
 G. Zheng, W. Liang, M. Hada, M. Ehara, K. Toyota, R. Fukuda, 
 J. Hasegawa, M. Ishida, T. Nakajima, Y. Honda, O. Kitao, H. Nakai, 
 T. Vreven, K. Throssell, J. A. Montgomery, Jr., J. E. Peralta, 
 F. Ogliaro, M. J. Bearpark, J. J. Heyd, E. N. Brothers, K. N. Kudin, 
 V. N. Staroverov, T. A. Keith, R. Kobayashi, J. Normand, 
 K. Raghavachari, A. P. Rendell, J. C. Burant, S. S. Iyengar, 
 J. Tomasi, M. Cossi, J. M. Millam, M. Klene, C. Adamo, R. Cammi, 
 J. W. Ochterski, R. L. Martin, K. Morokuma, O. Farkas, 
 J. B. Foresman, and D. J. Fox, Gaussian, Inc., Wallingford CT, 2019.
 
 ******************************************
 Gaussian 16:  ES64L-G16RevC.01  3-Jul-2019
                 3-Jan-2023 
 ******************************************
 %chk=0001_q000_m01_k00_force_ub3lyp_def2tzvpd.chk
 %nprocshared=2
 Will use up to    2 processors via shared memory.
 %mem=4GB
 ----------------------------------------------------------------------
 #p ub3lyp/gen stable=opt scf=(maxcycle=900,verytightlineq,xqc) integra
 l=grid=ultrafine symmetry=None density=current iop(99/18=-1) output=wf
 n
 ----------------------------------------------------------------------
 1/38=1,172=1/1;
 2/12=2,15=3,17=6,18=5,40=1/2;
 3/5=7,11=2,25=1,30=1,74=-5,75=-5,116=2/1,2,3;
 4//1;
 5/5=2,7=900,8=3,13=1,17=3,38=5/2,8;
 6/7=2,8=2,9=2,10=2,22=-1,28=1/1;
 8/6=1,10=90,11=11/1;
 9/8=-3,42=1,46=1/14;
 5/5=2,7=900,8=3,17=43,38=5/8(-2);
 6/7=2,8=2,9=2,10=2,22=-1,28=1/1;
 99/5=1,6=100,9=1,18=-1/99;
 Leave Link    1 at Tue Jan  3 09:03:22 2023, MaxMem=   536870912 cpu:               0.2 elap:               0.2
 (Enter /opt/software/gaussian/g16.c01/l101.exe)
 ----------------------------------------------------------------------
 0001_q000_m01_k00_opt_uwb97xd_def2svpd/0001_q000_m01_k00_force_ub3lyp_
 def2tzvpd stable-force
 ----------------------------------------------------------------------
 Symbolic Z-matrix:
 Charge =  0 Multiplicity = 1
 C                     1.07262  -0.0702   -0.15301 
 N                     2.37794  -0.08975  -0.25439 
 N                     3.08336  -0.36847  -1.30873 
 H                     4.06405  -0.29267  -1.04764 
 H                     0.63996   0.18515   0.80853 
 H                     0.48304  -0.30998  -1.03372 
 H                     2.8675    0.14588   0.61313 
 
 ITRead=  0  0  0  0  0  0  0
 MicOpt= -1 -1 -1 -1 -1 -1 -1
 NAtoms=      7 NQM=        7 NQMF=       0 NMMI=      0 NMMIF=      0
                NMic=       0 NMicF=      0.
                    Isotopes and Nuclear Properties:
 (Nuclear quadrupole moments (NQMom) in fm**2, nuclear magnetic moments (NMagM)
  in nuclear magnetons)

  Atom         1           2           3           4           5           6           7
 IAtWgt=          12          14          14           1           1           1           1
 AtmWgt=  12.0000000  14.0030740  14.0030740   1.0078250   1.0078250   1.0078250   1.0078250
 NucSpn=           0           2           2           1           1           1           1
 AtZEff=  -0.0000000  -0.0000000  -0.0000000  -0.0000000  -0.0000000  -0.0000000  -0.0000000
 NQMom=    0.0000000   2.0440000   2.0440000   0.0000000   0.0000000   0.0000000   0.0000000
 NMagM=    0.0000000   0.4037610   0.4037610   2.7928460   2.7928460   2.7928460   2.7928460
 AtZNuc=   6.0000000   7.0000000   7.0000000   1.0000000   1.0000000   1.0000000   1.0000000
 Leave Link  101 at Tue Jan  3 09:03:22 2023, MaxMem=   536870912 cpu:               0.4 elap:               0.2
 (Enter /opt/software/gaussian/g16.c01/l202.exe)
                          Input orientation:                          
 ---------------------------------------------------------------------
 Center     Atomic      Atomic             Coordinates (Angstroms)
 Number     Number       Type             X           Y           Z
 ---------------------------------------------------------------------
      1          6           0        1.072617   -0.070199   -0.153013
      2          7           0        2.377944   -0.089746   -0.254385
      3          7           0        3.083355   -0.368470   -1.308729
      4          1           0        4.064049   -0.292670   -1.047637
      5          1           0        0.639963    0.185154    0.808526
      6          1           0        0.483044   -0.309980   -1.033725
      7          1           0        2.867498    0.145880    0.613132
 ---------------------------------------------------------------------
                    Distance matrix (angstroms):
                    1          2          3          4          5
     1  C    0.000000
     2  N    1.309403   0.000000
     3  N    2.338315   1.298820   0.000000
     4  H    3.130258   1.874401   1.017681   0.000000
     5  H    1.084874   2.055706   3.280158   3.924032   0.000000
     6  H    1.086621   2.060708   2.615467   3.581074   1.914071
     7  H    1.963483   1.023606   2.001175   2.093374   2.236433
                    6          7
     6  H    0.000000
     7  H    2.933525   0.000000
 Symmetry turned off by external request.
 Stoichiometry    CH4N2
 Rotational constants (GHZ):          71.2642239          11.2793619           9.7380671
 Leave Link  202 at Tue Jan  3 09:03:22 2023, MaxMem=   536870912 cpu:               0.0 elap:               0.0
 (Enter /opt/software/gaussian/g16.c01/l301.exe)
 General basis read from cards:  (5D, 7F)
 Centers:       4      5      6      7
 S 3 1.00
     Exponent=  3.4061341000D+01 Coefficients=  6.0251978000D-03
     Exponent=  5.1235746000D+00 Coefficients=  4.5021094000D-02
     Exponent=  1.1646626000D+00 Coefficients=  2.0189726000D-01
 S 1 1.00
     Exponent=  3.2723041000D-01 Coefficients=  1.0000000000D+00
 S 1 1.00
     Exponent=  1.0307241000D-01 Coefficients=  1.0000000000D+00
 P 1 1.00
     Exponent=  8.0000000000D-01 Coefficients=  1.0000000000D+00
 P 1 1.00
     Exponent=  9.5774129632D-02 Coefficients=  1.0000000000D+00
 ****
 Centers:       1
 S 6 1.00
     Exponent=  1.3575349682D+04 Coefficients=  2.2245814352D-04
     Exponent=  2.0352333680D+03 Coefficients=  1.7232738252D-03
     Exponent=  4.6322562359D+02 Coefficients=  8.9255715314D-03
     Exponent=  1.3120019598D+02 Coefficients=  3.5727984502D-02
     Exponent=  4.2853015891D+01 Coefficients=  1.1076259931D-01
     Exponent=  1.5584185766D+01 Coefficients=  2.4295627626D-01
 S 2 1.00
     Exponent=  6.2067138508D+00 Coefficients=  4.1440263448D-01
     Exponent=  2.5764896527D+00 Coefficients=  2.3744968655D-01
 S 1 1.00
     Exponent=  5.7696339419D-01 Coefficients=  1.0000000000D+00
 S 1 1.00
     Exponent=  2.2972831358D-01 Coefficients=  1.0000000000D+00
 S 1 1.00
     Exponent=  9.5164440028D-02 Coefficients=  1.0000000000D+00
 S 1 1.00
     Exponent=  4.8475401370D-02 Coefficients=  1.0000000000D+00
 P 4 1.00
     Exponent=  3.4697232244D+01 Coefficients=  5.3333657805D-03
     Exponent=  7.9582622826D+00 Coefficients=  3.5864109092D-02
     Exponent=  2.3780826883D+00 Coefficients=  1.4215873329D-01
     Exponent=  8.1433208183D-01 Coefficients=  3.4270471845D-01
 P 1 1.00
     Exponent=  2.8887547253D-01 Coefficients=  4.6445822433D-01
 P 1 1.00
     Exponent=  1.0056823671D-01 Coefficients=  2.4955789874D-01
 D 1 1.00
     Exponent=  1.0970000000D+00 Coefficients=  1.0000000000D+00
 D 1 1.00
     Exponent=  3.1800000000D-01 Coefficients=  1.0000000000D+00
 D 1 1.00
     Exponent=  9.0985336424D-02 Coefficients=  1.0000000000D+00
 F 1 1.00
     Exponent=  7.6100000000D-01 Coefficients=  1.0000000000D+00
 ****
 Centers:       2      3
 S 6 1.00
     Exponent=  1.9730800647D+04 Coefficients=  2.1887984991D-04
     Exponent=  2.9578958745D+03 Coefficients=  1.6960708803D-03
     Exponent=  6.7322133595D+02 Coefficients=  8.7954603538D-03
     Exponent=  1.9068249494D+02 Coefficients=  3.5359382605D-02
     Exponent=  6.2295441898D+01 Coefficients=  1.1095789217D-01
     Exponent=  2.2654161182D+01 Coefficients=  2.4982972552D-01
 S 2 1.00
     Exponent=  8.9791477428D+00 Coefficients=  4.0623896148D-01
     Exponent=  3.6863002370D+00 Coefficients=  2.4338217176D-01
 S 1 1.00
     Exponent=  8.4660076805D-01 Coefficients=  1.0000000000D+00
 S 1 1.00
     Exponent=  3.3647133771D-01 Coefficients=  1.0000000000D+00
 S 1 1.00
     Exponent=  1.3647653675D-01 Coefficients=  1.0000000000D+00
 S 1 1.00
     Exponent=  6.8441605847D-02 Coefficients=  1.0000000000D+00
 P 4 1.00
     Exponent=  4.9200380510D+01 Coefficients=  5.5552416751D-03
     Exponent=  1.1346790537D+01 Coefficients=  3.8052379723D-02
     Exponent=  3.4273972411D+00 Coefficients=  1.4953671029D-01
     Exponent=  1.1785525134D+00 Coefficients=  3.4949305230D-01
 P 1 1.00
     Exponent=  4.1642204972D-01 Coefficients=  4.5843153697D-01
 P 1 1.00
     Exponent=  1.4260826011D-01 Coefficients=  2.4428771672D-01
 D 1 1.00
     Exponent=  1.6540000000D+00 Coefficients=  1.0000000000D+00
 D 1 1.00
     Exponent=  4.6900000000D-01 Coefficients=  1.0000000000D+00
 D 1 1.00
     Exponent=  1.2829642058D-01 Coefficients=  1.0000000000D+00
 F 1 1.00
     Exponent=  1.0930000000D+00 Coefficients=  1.0000000000D+00
 ****
 Ernie: Thresh=  0.10000D-02 Tol=  0.10000D-05 Strict=F.
   147 basis functions,   218 primitive gaussians,   165 cartesian basis functions
    12 alpha electrons       12 beta electrons
       nuclear repulsion energy        73.3825490640 Hartrees.
 IExCor=  402 DFT=T Ex+Corr=B3LYP ExCW=0 ScaHFX=  0.200000
 ScaDFX=  0.800000  0.720000  1.000000  0.810000 ScalE2=  1.000000  1.000000
 IRadAn=      5 IRanWt=     -1 IRanGd=            0 ICorTp=0 IEmpDi=  4
 NAtoms=    7 NActive=    7 NUniq=    7 SFac= 1.00D+00 NAtFMM=   60 NAOKFM=F Big=F
 Integral buffers will be    131072 words long.
 Raffenetti 2 integral format.
 Two-electron integral symmetry is turned off.
 Leave Link  301 at Tue Jan  3 09:03:23 2023, MaxMem=   536870912 cpu:               0.2 elap:               0.2
 (Enter /opt/software/gaussian/g16.c01/l302.exe)
 NPDir=0 NMtPBC=     1 NCelOv=     1 NCel=       1 NClECP=     1 NCelD=      1
         NCelK=      1 NCelE2=     1 NClLst=     1 CellRange=     0.0.
 One-electron integrals computed using PRISM.
 NBasis=   147 RedAO= T EigKep=  3.60D-05  NBF=   147
 NBsUse=   147 1.00D-06 EigRej= -1.00D+00 NBFU=   147
 Precomputing XC quadrature grid using
 IXCGrd= 4 IRadAn=           5 IRanWt=          -1 IRanGd=           0 AccXCQ= 0.00D+00.
 Generated NRdTot=       0 NPtTot=           0 NUsed=           0 NTot=          32
 NSgBfM=   165   165   165   165   165 MxSgAt=     7 MxSgA2=     7.
 Leave Link  302 at Tue Jan  3 09:03:23 2023, MaxMem=   536870912 cpu:               0.5 elap:               0.3
 (Enter /opt/software/gaussian/g16.c01/l303.exe)
 DipDrv:  MaxL=1.
 Leave Link  303 at Tue Jan  3 09:03:23 2023, MaxMem=   536870912 cpu:               0.3 elap:               0.3
 (Enter /opt/software/gaussian/g16.c01/l401.exe)
 ExpMin= 4.85D-02 ExpMax= 1.97D+04 ExpMxC= 6.73D+02 IAcc=3 IRadAn=         5 AccDes= 0.00D+00
 Harris functional with IExCor=  402 and IRadAn=       5 diagonalized for initial guess.
 HarFok:  IExCor=  402 AccDes= 0.00D+00 IRadAn=         5 IDoV= 1 UseB2=F ITyADJ=14
 ICtDFT=  3500011 ScaDFX=  1.000000  1.000000  1.000000  1.000000
 FoFCou: FMM=F IPFlag=           0 FMFlag=      100000 FMFlg1=           0
         NFxFlg=           0 DoJE=T BraDBF=F KetDBF=T FulRan=T
         wScrn=  0.000000 ICntrl=       500 IOpCl=  0 I1Cent=   200000004 NGrid=           0
         NMat0=    1 NMatS0=      1 NMatT0=    0 NMatD0=    1 NMtDS0=    0 NMtDT0=    0
 Symmetry not used in FoFCou.
 Harris En= -150.007073255666    
 JPrj=0 DoOrth=F DoCkMO=F.
 Initial guess <Sx>= 0.0000 <Sy>= 0.0000 <Sz>= 0.0000 <S**2>=-0.0000 S=-0.0000
 Leave Link  401 at Tue Jan  3 09:03:25 2023, MaxMem=   536870912 cpu:               2.0 elap:               1.4
 (Enter /opt/software/gaussian/g16.c01/l502.exe)
 Keep R1 and R2 ints in memory in canonical form, NReq=120629444.
 FoFCou: FMM=F IPFlag=           0 FMFlag=           0 FMFlg1=           0
         NFxFlg=           0 DoJE=F BraDBF=F KetDBF=F FulRan=T
         wScrn=  0.000000 ICntrl=       600 IOpCl=  0 I1Cent=           0 NGrid=           0
         NMat0=    1 NMatS0=  10878 NMatT0=    0 NMatD0=    1 NMtDS0=    0 NMtDT0=    0
 Symmetry not used in FoFCou.
 Two-electron integral symmetry not used.
 UHF open shell SCF:
 Using DIIS extrapolation, IDIIS=  1040.
 NGot=   536870912 LenX=   418472355 LenY=   418444689
 Requested convergence on RMS density matrix=1.00D-08 within 128 cycles.
 Requested convergence on MAX density matrix=1.00D-06.
 Requested convergence on             energy=1.00D-06.
 No special actions if energy rises.

 Cycle   1  Pass 1  IDiag  1:
 E= -149.896414232610    
 DIIS: error= 3.38D-02 at cycle   1 NSaved=   1.
 NSaved= 1 IEnMin= 1 EnMin= -149.896414232610     IErMin= 1 ErrMin= 3.38D-02
 ErrMax= 3.38D-02  0.00D+00 EMaxC= 1.00D-01 BMatC= 4.58D-01 BMatP= 4.58D-01
 IDIUse=3 WtCom= 6.62D-01 WtEn= 3.38D-01
 Coeff-Com:  0.100D+01
 Coeff-En:   0.100D+01
 Coeff:      0.100D+01
 Gap=     0.130 Goal=   None    Shift=    0.000
 Gap=     0.130 Goal=   None    Shift=    0.000
 GapD=    0.130 DampG=1.000 DampE=0.500 DampFc=0.5000 IDamp=-1.
 Damping current iteration by 5.00D-01
 RMSDP=6.25D-03 MaxDP=1.68D-01              OVMax= 2.23D-01

 Cycle   2  Pass 1  IDiag  1:
 E= -149.928140437441     Delta-E=       -0.031726204831 Rises=F Damp=T
 DIIS: error= 1.05D-02 at cycle   2 NSaved=   2.
 NSaved= 2 IEnMin= 2 EnMin= -149.928140437441     IErMin= 2 ErrMin= 1.05D-02
 ErrMax= 1.05D-02  0.00D+00 EMaxC= 1.00D-01 BMatC= 5.39D-02 BMatP= 4.58D-01
 IDIUse=3 WtCom= 8.95D-01 WtEn= 1.05D-01
 Coeff-Com:  0.170D+00 0.830D+00
 Coeff-En:   0.302D+00 0.698D+00
 Coeff:      0.184D+00 0.816D+00
 Gap=     0.186 Goal=   None    Shift=    0.000
 Gap=     0.186 Goal=   None    Shift=    0.000
 RMSDP=2.00D-03 MaxDP=6.18D-02 DE=-3.17D-02 OVMax= 1.93D-01

 Cycle   3  Pass 1  IDiag  1:
 E= -149.977516309323     Delta-E=       -0.049375871882 Rises=F Damp=F
 DIIS: error= 1.37D-02 at cycle   3 NSaved=   3.
 NSaved= 3 IEnMin= 3 EnMin= -149.977516309323     IErMin= 2 ErrMin= 1.05D-02
 ErrMax= 1.37D-02  0.00D+00 EMaxC= 1.00D-01 BMatC= 7.10D-02 BMatP= 5.39D-02
 IDIUse=2 WtCom= 0.00D+00 WtEn= 1.00D+00
 Coeff-En:   0.000D+00 0.000D+00 0.100D+01
 Coeff:      0.000D+00 0.000D+00 0.100D+01
 Gap=     0.147 Goal=   None    Shift=    0.000
 Gap=     0.147 Goal=   None    Shift=    0.000
 RMSDP=2.64D-03 MaxDP=7.31D-02 DE=-4.94D-02 OVMax= 3.39D-01

 Cycle   4  Pass 1  IDiag  1:
 E= -149.832434896165     Delta-E=        0.145081413158 Rises=F Damp=F
 DIIS: error= 4.49D-02 at cycle   4 NSaved=   4.
 NSaved= 4 IEnMin= 3 EnMin= -149.977516309323     IErMin= 2 ErrMin= 1.05D-02
 ErrMax= 4.49D-02  0.00D+00 EMaxC= 1.00D-01 BMatC= 6.35D-01 BMatP= 5.39D-02
 IDIUse=2 WtCom= 0.00D+00 WtEn= 1.00D+00
 Coeff-En:   0.000D+00 0.000D+00 0.837D+00 0.163D+00
 Coeff:      0.000D+00 0.000D+00 0.837D+00 0.163D+00
 Gap=     0.162 Goal=   None    Shift=    0.000
 Gap=     0.162 Goal=   None    Shift=    0.000
 RMSDP=1.45D-03 MaxDP=3.69D-02 DE= 1.45D-01 OVMax= 1.74D-01

 Cycle   5  Pass 1  IDiag  1:
 E= -149.977899483455     Delta-E=       -0.145464587290 Rises=F Damp=F
 DIIS: error= 1.43D-02 at cycle   5 NSaved=   5.
 NSaved= 5 IEnMin= 5 EnMin= -149.977899483455     IErMin= 2 ErrMin= 1.05D-02
 ErrMax= 1.43D-02  0.00D+00 EMaxC= 1.00D-01 BMatC= 6.92D-02 BMatP= 5.39D-02
 IDIUse=2 WtCom= 0.00D+00 WtEn= 1.00D+00
 Coeff-En:   0.000D+00 0.000D+00 0.496D+00 0.000D+00 0.504D+00
 Coeff:      0.000D+00 0.000D+00 0.496D+00 0.000D+00 0.504D+00
 Gap=     0.173 Goal=   None    Shift=    0.000
 Gap=     0.173 Goal=   None    Shift=    0.000
 RMSDP=6.66D-04 MaxDP=1.91D-02 DE=-1.45D-01 OVMax= 8.91D-02

 Cycle   6  Pass 1  IDiag  1:
 E= -149.995257600328     Delta-E=       -0.017358116873 Rises=F Damp=F
 DIIS: error= 7.34D-04 at cycle   6 NSaved=   6.
 NSaved= 6 IEnMin= 6 EnMin= -149.995257600328     IErMin= 6 ErrMin= 7.34D-04
 ErrMax= 7.34D-04  0.00D+00 EMaxC= 1.00D-01 BMatC= 3.33D-04 BMatP= 5.39D-02
 IDIUse=3 WtCom= 9.93D-01 WtEn= 7.34D-03
 Coeff-Com: -0.197D-02 0.915D-02 0.179D+00-0.675D-01 0.391D+00 0.491D+00
 Coeff-En:   0.000D+00 0.000D+00 0.000D+00 0.000D+00 0.000D+00 0.100D+01
 Coeff:     -0.196D-02 0.908D-02 0.177D+00-0.670D-01 0.388D+00 0.494D+00
 Gap=     0.175 Goal=   None    Shift=    0.000
 Gap=     0.175 Goal=   None    Shift=    0.000
 RMSDP=6.67D-05 MaxDP=2.07D-03 DE=-1.74D-02 OVMax= 6.09D-03

 Cycle   7  Pass 1  IDiag  1:
 E= -149.995323441533     Delta-E=       -0.000065841204 Rises=F Damp=F
 DIIS: error= 3.29D-04 at cycle   7 NSaved=   7.
 NSaved= 7 IEnMin= 7 EnMin= -149.995323441533     IErMin= 7 ErrMin= 3.29D-04
 ErrMax= 3.29D-04  0.00D+00 EMaxC= 1.00D-01 BMatC= 3.30D-05 BMatP= 3.33D-04
 IDIUse=3 WtCom= 9.97D-01 WtEn= 3.29D-03
 Coeff-Com: -0.456D-03-0.746D-03 0.288D-01-0.832D-02 0.472D-01 0.205D+00
 Coeff-Com:  0.729D+00
 Coeff-En:   0.000D+00 0.000D+00 0.000D+00 0.000D+00 0.000D+00 0.117D+00
 Coeff-En:   0.883D+00
 Coeff:     -0.455D-03-0.744D-03 0.287D-01-0.830D-02 0.470D-01 0.204D+00
 Coeff:      0.729D+00
 Gap=     0.175 Goal=   None    Shift=    0.000
 Gap=     0.175 Goal=   None    Shift=    0.000
 RMSDP=1.68D-05 MaxDP=3.60D-04 DE=-6.58D-05 OVMax= 1.90D-03

 Cycle   8  Pass 1  IDiag  1:
 E= -149.995332230100     Delta-E=       -0.000008788568 Rises=F Damp=F
 DIIS: error= 1.85D-05 at cycle   8 NSaved=   8.
 NSaved= 8 IEnMin= 8 EnMin= -149.995332230100     IErMin= 8 ErrMin= 1.85D-05
 ErrMax= 1.85D-05  0.00D+00 EMaxC= 1.00D-01 BMatC= 1.80D-07 BMatP= 3.30D-05
 IDIUse=1 WtCom= 1.00D+00 WtEn= 0.00D+00
 Coeff-Com: -0.128D-04-0.116D-03-0.650D-03 0.274D-03-0.459D-02 0.270D-01
 Coeff-Com:  0.176D+00 0.802D+00
 Coeff:     -0.128D-04-0.116D-03-0.650D-03 0.274D-03-0.459D-02 0.270D-01
 Coeff:      0.176D+00 0.802D+00
 Gap=     0.175 Goal=   None    Shift=    0.000
 Gap=     0.175 Goal=   None    Shift=    0.000
 RMSDP=1.81D-06 MaxDP=7.40D-05 DE=-8.79D-06 OVMax= 1.55D-04

 Cycle   9  Pass 1  IDiag  1:
 E= -149.995332269007     Delta-E=       -0.000000038907 Rises=F Damp=F
 DIIS: error= 8.10D-06 at cycle   9 NSaved=   9.
 NSaved= 9 IEnMin= 9 EnMin= -149.995332269007     IErMin= 9 ErrMin= 8.10D-06
 ErrMax= 8.10D-06  0.00D+00 EMaxC= 1.00D-01 BMatC= 1.80D-08 BMatP= 1.80D-07
 IDIUse=1 WtCom= 1.00D+00 WtEn= 0.00D+00
 Coeff-Com: -0.428D-05-0.185D-04-0.964D-03 0.311D-03-0.224D-02 0.191D-02
 Coeff-Com:  0.287D-01 0.221D+00 0.751D+00
 Coeff:     -0.428D-05-0.185D-04-0.964D-03 0.311D-03-0.224D-02 0.191D-02
 Coeff:      0.287D-01 0.221D+00 0.751D+00
 Gap=     0.175 Goal=   None    Shift=    0.000
 Gap=     0.175 Goal=   None    Shift=    0.000
 RMSDP=3.85D-07 MaxDP=1.12D-05 DE=-3.89D-08 OVMax= 3.28D-05

 Cycle  10  Pass 1  IDiag  1:
 E= -149.995332273583     Delta-E=       -0.000000004576 Rises=F Damp=F
 DIIS: error= 1.88D-06 at cycle  10 NSaved=  10.
 NSaved=10 IEnMin=10 EnMin= -149.995332273583     IErMin=10 ErrMin= 1.88D-06
 ErrMax= 1.88D-06  0.00D+00 EMaxC= 1.00D-01 BMatC= 1.26D-09 BMatP= 1.80D-08
 IDIUse=1 WtCom= 1.00D+00 WtEn= 0.00D+00
 Coeff-Com: -0.674D-05 0.968D-05-0.203D-03 0.440D-04-0.137D-03-0.128D-02
 Coeff-Com: -0.442D-02-0.650D-02 0.891D-01 0.923D+00
 Coeff:     -0.674D-05 0.968D-05-0.203D-03 0.440D-04-0.137D-03-0.128D-02
 Coeff:     -0.442D-02-0.650D-02 0.891D-01 0.923D+00
 Gap=     0.175 Goal=   None    Shift=    0.000
 Gap=     0.175 Goal=   None    Shift=    0.000
 RMSDP=1.06D-07 MaxDP=2.18D-06 DE=-4.58D-09 OVMax= 5.88D-06

 Cycle  11  Pass 1  IDiag  1:
 E= -149.995332273863     Delta-E=       -0.000000000280 Rises=F Damp=F
 DIIS: error= 3.29D-07 at cycle  11 NSaved=  11.
 NSaved=11 IEnMin=11 EnMin= -149.995332273863     IErMin=11 ErrMin= 3.29D-07
 ErrMax= 3.29D-07  0.00D+00 EMaxC= 1.00D-01 BMatC= 3.37D-11 BMatP= 1.26D-09
 IDIUse=1 WtCom= 1.00D+00 WtEn= 0.00D+00
 Coeff-Com: -0.969D-06 0.281D-05-0.189D-04-0.377D-06 0.325D-04-0.294D-03
 Coeff-Com: -0.114D-02-0.591D-02-0.699D-02 0.154D+00 0.860D+00
 Coeff:     -0.969D-06 0.281D-05-0.189D-04-0.377D-06 0.325D-04-0.294D-03
 Coeff:     -0.114D-02-0.591D-02-0.699D-02 0.154D+00 0.860D+00
 Gap=     0.175 Goal=   None    Shift=    0.000
 Gap=     0.175 Goal=   None    Shift=    0.000
 RMSDP=1.64D-08 MaxDP=3.35D-07 DE=-2.80D-10 OVMax= 1.52D-06

 Cycle  12  Pass 1  IDiag  1:
 E= -149.995332273871     Delta-E=       -0.000000000008 Rises=F Damp=F
 DIIS: error= 3.03D-08 at cycle  12 NSaved=  12.
 NSaved=12 IEnMin=12 EnMin= -149.995332273871     IErMin=12 ErrMin= 3.03D-08
 ErrMax= 3.03D-08  0.00D+00 EMaxC= 1.00D-01 BMatC= 3.08D-13 BMatP= 3.37D-11
 IDIUse=1 WtCom= 1.00D+00 WtEn= 0.00D+00
 Coeff-Com:  0.977D-07-0.253D-07-0.414D-06 0.932D-07 0.253D-05-0.175D-04
 Coeff-Com: -0.635D-04-0.641D-03-0.351D-02-0.576D-03 0.836D-01 0.921D+00
 Coeff:      0.977D-07-0.253D-07-0.414D-06 0.932D-07 0.253D-05-0.175D-04
 Coeff:     -0.635D-04-0.641D-03-0.351D-02-0.576D-03 0.836D-01 0.921D+00
 Gap=     0.175 Goal=   None    Shift=    0.000
 Gap=     0.175 Goal=   None    Shift=    0.000
 RMSDP=2.48D-09 MaxDP=5.16D-08 DE=-8.24D-12 OVMax= 1.48D-07

 SCF Done:  E(UB3LYP) =  -149.995332274     A.U. after   12 cycles
            NFock= 12  Conv=0.25D-08     -V/T= 2.0050
 <Sx>= 0.0000 <Sy>= 0.0000 <Sz>= 0.0000 <S**2>=-0.0000 S=-0.0000
 <L.S>=  0.00000000000    
 KE= 1.492490370529D+02 PE=-4.962464722257D+02 EE= 1.236195538349D+02
 Annihilation of the first spin contaminant:
 S**2 before annihilation    -0.0000,   after     0.0000
 Leave Link  502 at Tue Jan  3 09:03:48 2023, MaxMem=   536870912 cpu:              41.1 elap:              23.2
 (Enter /opt/software/gaussian/g16.c01/l508.exe)
 QCSCF skips out because SCF is already converged.
 Leave Link  508 at Tue Jan  3 09:03:48 2023, MaxMem=   536870912 cpu:               0.0 elap:               0.0
 (Enter /opt/software/gaussian/g16.c01/l601.exe)
 Copying SCF densities to generalized density rwf, IOpCl= 1 IROHF=0.

 **********************************************************************

            Population analysis using the SCF Density.

 **********************************************************************

 Alpha  occ. eigenvalues --  -14.43970 -14.30522 -10.19949  -1.04354  -0.81233
 Alpha  occ. eigenvalues --   -0.64882  -0.57007  -0.48867  -0.43457  -0.42324
 Alpha  occ. eigenvalues --   -0.28773  -0.20512
 Alpha virt. eigenvalues --   -0.02966  -0.01392   0.02730   0.04723   0.08346
 Alpha virt. eigenvalues --    0.09985   0.10073   0.10854   0.15569   0.16248
 Alpha virt. eigenvalues --    0.16354   0.18451   0.18713   0.20580   0.21893
 Alpha virt. eigenvalues --    0.24686   0.25291   0.25434   0.28069   0.28422
 Alpha virt. eigenvalues --    0.29363   0.31336   0.32641   0.34623   0.34925
 Alpha virt. eigenvalues --    0.36082   0.38081   0.39831   0.40365   0.42107
 Alpha virt. eigenvalues --    0.42406   0.44686   0.46443   0.47137   0.50746
 Alpha virt. eigenvalues --    0.51960   0.52278   0.55898   0.56936   0.57602
 Alpha virt. eigenvalues --    0.63899   0.67931   0.69118   0.70172   0.73787
 Alpha virt. eigenvalues --    0.73864   0.75848   0.78128   0.83003   0.85532
 Alpha virt. eigenvalues --    0.86367   0.90654   0.93780   0.95306   1.05336
 Alpha virt. eigenvalues --    1.08494   1.16057   1.18752   1.26290   1.27870
 Alpha virt. eigenvalues --    1.37824   1.41778   1.42513   1.56394   1.57866
 Alpha virt. eigenvalues --    1.59248   1.68260   1.75233   1.77516   1.81477
 Alpha virt. eigenvalues --    1.83979   1.86015   1.90661   1.96485   1.99591
 Alpha virt. eigenvalues --    2.05023   2.16053   2.20406   2.20505   2.23833
 Alpha virt. eigenvalues --    2.28199   2.35528   2.39529   2.47347   2.51264
 Alpha virt. eigenvalues --    2.59388   2.64568   2.72019   2.79442   2.81805
 Alpha virt. eigenvalues --    2.84556   2.87947   2.94442   3.02431   3.08409
 Alpha virt. eigenvalues --    3.14493   3.16723   3.18340   3.27385   3.29774
 Alpha virt. eigenvalues --    3.30391   3.52514   3.56046   3.67864   3.78962
 Alpha virt. eigenvalues --    3.80366   3.83399   3.96918   4.11114   4.17641
 Alpha virt. eigenvalues --    4.18593   4.35266   4.57781   4.60126   4.68907
 Alpha virt. eigenvalues --    4.69160   4.76063   4.79082   4.82446   4.85477
 Alpha virt. eigenvalues --    4.94577   4.98254   5.16704   5.16837   5.23793
 Alpha virt. eigenvalues --    5.37551   5.60732   5.66053   5.73876   5.97583
 Alpha virt. eigenvalues --    6.15083   6.92957  22.58363  32.11961  32.42884
  Beta  occ. eigenvalues --  -14.43970 -14.30522 -10.19949  -1.04354  -0.81233
  Beta  occ. eigenvalues --   -0.64882  -0.57007  -0.48867  -0.43457  -0.42324
  Beta  occ. eigenvalues --   -0.28773  -0.20512
  Beta virt. eigenvalues --   -0.02966  -0.01392   0.02730   0.04723   0.08346
  Beta virt. eigenvalues --    0.09985   0.10073   0.10854   0.15569   0.16248
  Beta virt. eigenvalues --    0.16354   0.18451   0.18713   0.20580   0.21893
  Beta virt. eigenvalues --    0.24686   0.25291   0.25434   0.28069   0.28422
  Beta virt. eigenvalues --    0.29363   0.31336   0.32641   0.34623   0.34925
  Beta virt. eigenvalues --    0.36082   0.38081   0.39831   0.40365   0.42107
  Beta virt. eigenvalues --    0.42406   0.44686   0.46443   0.47137   0.50746
  Beta virt. eigenvalues --    0.51960   0.52278   0.55898   0.56936   0.57602
  Beta virt. eigenvalues --    0.63899   0.67931   0.69118   0.70172   0.73787
  Beta virt. eigenvalues --    0.73864   0.75848   0.78128   0.83003   0.85532
  Beta virt. eigenvalues --    0.86367   0.90654   0.93780   0.95306   1.05336
  Beta virt. eigenvalues --    1.08494   1.16057   1.18752   1.26290   1.27870
  Beta virt. eigenvalues --    1.37824   1.41778   1.42513   1.56394   1.57866
  Beta virt. eigenvalues --    1.59248   1.68260   1.75233   1.77516   1.81477
  Beta virt. eigenvalues --    1.83979   1.86015   1.90661   1.96485   1.99591
  Beta virt. eigenvalues --    2.05023   2.16053   2.20406   2.20505   2.23833
  Beta virt. eigenvalues --    2.28199   2.35528   2.39529   2.47347   2.51264
  Beta virt. eigenvalues --    2.59388   2.64568   2.72019   2.79442   2.81805
  Beta virt. eigenvalues --    2.84556   2.87947   2.94442   3.02431   3.08409
  Beta virt. eigenvalues --    3.14493   3.16723   3.18340   3.27385   3.29774
  Beta virt. eigenvalues --    3.30391   3.52514   3.56046   3.67864   3.78962
  Beta virt. eigenvalues --    3.80366   3.83399   3.96918   4.11114   4.17641
  Beta virt. eigenvalues --    4.18593   4.35266   4.57781   4.60126   4.68907
  Beta virt. eigenvalues --    4.69160   4.76063   4.79082   4.82446   4.85477
  Beta virt. eigenvalues --    4.94577   4.98254   5.16704   5.16837   5.23793
  Beta virt. eigenvalues --    5.37551   5.60732   5.66053   5.73876   5.97583
  Beta virt. eigenvalues --    6.15083   6.92957  22.58363  32.11961  32.42884
          Condensed to atoms (all electrons):
               1          2          3          4          5          6
     1  C    5.328925   0.504471  -0.113498   0.007352   0.373580   0.367840
     2  N    0.504471   6.061672  -0.290441   0.124088  -0.019597   0.020717
     3  N   -0.113498  -0.290441   8.014404   0.104717   0.015423  -0.030501
     4  H    0.007352   0.124088   0.104717   0.641489  -0.000622   0.002171
     5  H    0.373580  -0.019597   0.015423  -0.000622   0.417793  -0.014181
     6  H    0.367840   0.020717  -0.030501   0.002171  -0.014181   0.377879
     7  H   -0.019385   0.255701   0.072025  -0.040452  -0.000760  -0.005226
               7
     1  C   -0.019385
     2  N    0.255701
     3  N    0.072025
     4  H   -0.040452
     5  H   -0.000760
     6  H   -0.005226
     7  H    0.530995
          Atomic-Atomic Spin Densities.
               1          2          3          4          5          6
     1  C    0.000000   0.000000  -0.000000   0.000000  -0.000000  -0.000000
     2  N    0.000000  -0.000000   0.000000  -0.000000  -0.000000  -0.000000
     3  N   -0.000000   0.000000  -0.000000  -0.000000   0.000000   0.000000
     4  H    0.000000  -0.000000  -0.000000   0.000000  -0.000000  -0.000000
     5  H   -0.000000  -0.000000   0.000000  -0.000000  -0.000000   0.000000
     6  H   -0.000000  -0.000000   0.000000  -0.000000   0.000000  -0.000000
     7  H   -0.000000  -0.000000   0.000000  -0.000000   0.000000   0.000000
               7
     1  C   -0.000000
     2  N   -0.000000
     3  N    0.000000
     4  H   -0.000000
     5  H    0.000000
     6  H    0.000000
     7  H    0.000000
 Mulliken charges and spin densities:
               1          2
     1  C   -0.449286   0.000000
     2  N    0.343388   0.000000
     3  N   -0.772129  -0.000000
     4  H    0.161258  -0.000000
     5  H    0.228365  -0.000000
     6  H    0.281302  -0.000000
     7  H    0.207103  -0.000000
 Sum of Mulliken charges =  -0.00000  -0.00000
 Mulliken charges and spin densities with hydrogens summed into heavy atoms:
               1          2
     1  C    0.060380   0.000000
     2  N    0.550491   0.000000
     3  N   -0.610871  -0.000000
 Electronic spatial extent (au):  <R**2>=            599.1240
 Charge=             -0.0000 electrons
 Dipole moment (field-independent basis, Debye):
    X=              0.2425    Y=              0.7857    Z=              2.9237  Tot=              3.0371
 Quadrupole moment (field-independent basis, Debye-Ang):
   XX=            -14.6900   YY=            -21.5574   ZZ=            -22.8450
   XY=              2.3007   XZ=              8.4603   YZ=             -0.4346
 Traceless Quadrupole moment (field-independent basis, Debye-Ang):
   XX=              5.0075   YY=             -1.8599   ZZ=             -3.1476
   XY=              2.3007   XZ=              8.4603   YZ=             -0.4346
 Octapole moment (field-independent basis, Debye-Ang**2):
  XXX=            -93.9913  YYY=             10.9287  ZZZ=             41.4960  XYY=            -46.2610
  XXY=              9.0506  XXZ=             31.8547  XZZ=            -53.3338  YZZ=              5.4157
  YYZ=             12.0702  XYZ=             -2.2540
 Hexadecapole moment (field-independent basis, Debye-Ang**3):
 XXXX=           -501.7666 YYYY=            -31.0032 ZZZZ=           -117.6664 XXXY=             38.9630
 XXXZ=            135.5361 YYYX=             30.3704 YYYZ=            -12.5475 ZZZX=            119.0051
 ZZZY=            -14.1652 XXYY=           -128.4377 XXZZ=           -157.7369 YYZZ=            -24.2693
 XXYZ=             -9.3179 YYXZ=             35.1726 ZZXY=             14.8820
 N-N= 7.338254906404D+01 E-N=-4.962464721132D+02  KE= 1.492490370529D+02
                          Isotropic Fermi Contact Couplings
        Atom                 a.u.       MegaHertz       Gauss      10(-4) cm-1
     1  C(13)             -0.00000      -0.00000      -0.00000      -0.00000
     2  N(14)             -0.00000      -0.00000      -0.00000      -0.00000
     3  N(14)             -0.00000      -0.00000      -0.00000      -0.00000
     4  H(1)               0.00000       0.00000       0.00000       0.00000
     5  H(1)               0.00000       0.00000       0.00000       0.00000
     6  H(1)               0.00000       0.00000       0.00000       0.00000
     7  H(1)               0.00000       0.00000       0.00000       0.00000
 --------------------------------------------------------
       Center         ----  Spin Dipole Couplings  ----
                      3XX-RR        3YY-RR        3ZZ-RR
 --------------------------------------------------------
     1   Atom       -0.000000      0.000000      0.000000
     2   Atom        0.000000      0.000000     -0.000000
     3   Atom        0.000000      0.000000     -0.000000
     4   Atom        0.000000     -0.000000     -0.000000
     5   Atom        0.000000     -0.000000      0.000000
     6   Atom        0.000000      0.000000     -0.000000
     7   Atom       -0.000000      0.000000      0.000000
 --------------------------------------------------------
                        XY            XZ            YZ
 --------------------------------------------------------
     1   Atom        0.000000      0.000000      0.000000
     2   Atom        0.000000      0.000000     -0.000000
     3   Atom        0.000000      0.000000      0.000000
     4   Atom       -0.000000     -0.000000      0.000000
     5   Atom       -0.000000     -0.000000      0.000000
     6   Atom       -0.000000     -0.000000     -0.000000
     7   Atom       -0.000000     -0.000000      0.000000
 --------------------------------------------------------


 ---------------------------------------------------------------------------------
              Anisotropic Spin Dipole Couplings in Principal Axis System
 ---------------------------------------------------------------------------------

       Atom             a.u.   MegaHertz   Gauss  10(-4) cm-1        Axes

              Baa    -0.0000    -0.000    -0.000    -0.000  0.7636  0.3468 -0.5446
     1 C(13)  Bbb    -0.0000    -0.000    -0.000    -0.000 -0.5816  0.7357 -0.3470
              Bcc     0.0000     0.000     0.000     0.000  0.2804  0.5817  0.7635
 
              Baa    -0.0000    -0.000    -0.000    -0.000 -0.5891  0.2713  0.7612
     2 N(14)  Bbb     0.0000     0.000     0.000     0.000  0.2249  0.9598 -0.1680
              Bcc     0.0000     0.000     0.000     0.000  0.7762 -0.0723  0.6264
 
              Baa    -0.0000    -0.000    -0.000    -0.000 -0.3338 -0.1297  0.9337
     3 N(14)  Bbb     0.0000     0.000     0.000     0.000 -0.1466  0.9856  0.0845
              Bcc     0.0000     0.000     0.000     0.000  0.9312  0.1087  0.3480
 
              Baa    -0.0000    -0.000    -0.000    -0.000  0.0390  0.9815 -0.1876
     4 H(1)   Bbb    -0.0000    -0.000    -0.000    -0.000  0.4636  0.1486  0.8735
              Bcc     0.0000     0.000     0.000     0.000  0.8852 -0.1211 -0.4492
 
              Baa    -0.0000    -0.000    -0.000    -0.000  0.3300  0.9229  0.1982
     5 H(1)   Bbb    -0.0000    -0.000    -0.000    -0.000  0.5287 -0.3547  0.7711
              Bcc     0.0000     0.000     0.000     0.000  0.7820 -0.1497 -0.6050
 
              Baa    -0.0000    -0.000    -0.000    -0.000  0.4343  0.3525  0.8289
     6 H(1)   Bbb     0.0000     0.000     0.000     0.000 -0.0201  0.9238 -0.3823
              Bcc     0.0000     0.000     0.000     0.000  0.9005 -0.1494 -0.4083
 
              Baa    -0.0000    -0.000    -0.000    -0.000  0.8813  0.0262  0.4718
     7 H(1)   Bbb     0.0000     0.000     0.000     0.000  0.0822  0.9747 -0.2077
              Bcc     0.0000     0.000     0.000     0.000 -0.4653  0.2218  0.8569
 

 ---------------------------------------------------------------------------------

 No NMR shielding tensors so no spin-rotation constants.
 Leave Link  601 at Tue Jan  3 09:03:49 2023, MaxMem=   536870912 cpu:               0.8 elap:               0.8
 (Enter /opt/software/gaussian/g16.c01/l801.exe)
 DoSCS=F DFT=T ScalE2(SS,OS)=  1.000000  1.000000
 Range of M.O.s used for correlation:     1   147
 NBasis=   147 NAE=    12 NBE=    12 NFC=     0 NFV=     0
 NROrb=    147 NOA=    12 NOB=    12 NVA=   135 NVB=   135

 **** Warning!!: The largest alpha MO coefficient is  0.70037998D+02


 **** Warning!!: The largest beta MO coefficient is  0.70037998D+02

 Leave Link  801 at Tue Jan  3 09:03:49 2023, MaxMem=   536870912 cpu:               0.1 elap:               0.1
 (Enter /opt/software/gaussian/g16.c01/l914.exe)
 UHF ground state
 Doing stability rather than CIS.
 Keep R1 and R2 ints in memory in canonical form, NReq=124288899.
 FoFCou: FMM=F IPFlag=           0 FMFlag=           0 FMFlg1=           0
         NFxFlg=           0 DoJE=F BraDBF=F KetDBF=F FulRan=T
         wScrn=  0.000000 ICntrl=       600 IOpCl=  0 I1Cent=           0 NGrid=           0
         NMat0=    1 NMatS0=  10878 NMatT0=    0 NMatD0=    1 NMtDS0=    0 NMtDT0=    0
 Symmetry not used in FoFCou.
 Two-electron integral symmetry not used.
 MDV=   536870912 DFT=T DoStab=T Mixed=T DoRPA=F DoScal=F NonHer=F
 Making orbital integer symmetry assigments:
    12 initial guesses have been made.
 Convergence on wavefunction:    0.001000000000000
 Davidson Disk Diagonalization:  ConvIn= 1.00D-03 SkipCon=T Conv= 1.00D-03.
 Max sub-space:  2000 roots to seek:    12 dimension of matrix:         3240
 Iteration     1 Dimension    12 NMult     0 NNew     12
 CISAX will form    12 AO SS matrices at one time.
 NMat=    12 NSing=    12 JSym2X= 0.
 Excitation Energies [eV] at current iteration:
 Root      1 :     1.307824733316769
 Root      2 :     4.022217470901589
 Root      3 :     4.133812070737084
 Root      4 :     4.786808050740579
 Root      5 :     5.311212800708367
 Root      6 :     5.425239195292974
 Root      7 :     5.696960215329758
 Root      8 :     5.839486650432764
 Root      9 :     6.141552376111888
 Root     10 :     6.185898926535960
 Root     11 :     6.584250063155808
 Root     12 :    12.558231476750226
 Iteration     2 Dimension    24 NMult    12 NNew     12
 CISAX will form    12 AO SS matrices at one time.
 NMat=    12 NSing=    12 JSym2X= 0.
 Root      1 not converged, maximum delta is    0.088487348403806
 Excitation Energies [eV] at current iteration:
 Root      1 :     0.865295319215466   Change is   -0.442529414101303
 Root      2 :     3.935913397331750   Change is   -0.086304073569839
 Root      3 :     4.112869529402966   Change is   -0.020942541334119
 Root      4 :     4.540054971673944   Change is   -0.246753079066635
 Root      5 :     5.210150197587170   Change is   -0.101062603121197
 Root      6 :     5.402079115330636   Change is   -0.023160079962338
 Root      7 :     5.572228408396118   Change is   -0.124731806933640
 Root      8 :     5.783475479686188   Change is   -0.056011170746577
 Root      9 :     5.863748046942248   Change is   -0.277804329169640
 Root     10 :     5.945751826493879   Change is   -0.240147100042081
 Root     11 :     6.383351992915761   Change is   -0.200898070240047
 Root     12 :     9.502058979588339   Change is   -3.056172497161887
 Iteration     3 Dimension    27 NMult    24 NNew      3
 CISAX will form     3 AO SS matrices at one time.
 NMat=     3 NSing=     3 JSym2X= 0.
 Root      1 not converged, maximum delta is    0.004880182450118
 Excitation Energies [eV] at current iteration:
 Root      1 :     0.858909598128300   Change is   -0.006385721087166
 Root      2 :     3.934363819436680   Change is   -0.001549577895071
 Root      3 :     4.112562828508574   Change is   -0.000306700894392
 Iteration     4 Dimension    30 NMult    27 NNew      3
 CISAX will form     3 AO SS matrices at one time.
 NMat=     3 NSing=     3 JSym2X= 0.
 Root      1 not converged, maximum delta is    0.001786564601426
 Excitation Energies [eV] at current iteration:
 Root      1 :     0.858697651311723   Change is   -0.000211946816577
 Root      2 :     3.934329548099411   Change is   -0.000034271337269
 Root      3 :     4.112555098254841   Change is   -0.000007730253732
 Iteration     5 Dimension    33 NMult    30 NNew      3
 CISAX will form     3 AO SS matrices at one time.
 NMat=     3 NSing=     3 JSym2X= 0.
 Root      1 has converged.
 Excitation Energies [eV] at current iteration:
 Root      1 :     0.858690548244632   Change is   -0.000007103067091
 Root      2 :     3.934328720589758   Change is   -0.000000827509653
 Root      3 :     4.112554683389569   Change is   -0.000000414865272
 Convergence achieved on expansion vectors.
 ***********************************************************************
 Stability analysis using <AA,BB:AA,BB> singles matrix:
 ***********************************************************************
 1PDM for each excited state written to RWF  633
 Ground to excited state transition densities written to RWF  633

 Eigenvectors of the stability matrix:
 
 Excited state symmetry could not be determined.
 Eigenvector   1:  3.000-?Sym  Eigenvalue= 0.0315563  <S**2>=2.000
     12A -> 13A        0.69154
     12B -> 13B       -0.69154
 The wavefunction is stable under the perturbations considered.
 Leave Link  914 at Tue Jan  3 09:07:13 2023, MaxMem=   536870912 cpu:             205.0 elap:             204.2
 (Enter /opt/software/gaussian/g16.c01/l508.exe)
 The wavefunction is already stable.
 Leave Link  508 at Tue Jan  3 09:07:13 2023, MaxMem=   536870912 cpu:               0.0 elap:               0.0
 (Enter /opt/software/gaussian/g16.c01/l601.exe)
 Copying SCF densities to generalized density rwf, IOpCl= 1 IROHF=0.

 **********************************************************************

            Population analysis using the SCF Density.

 **********************************************************************

 Alpha  occ. eigenvalues --  -14.43970 -14.30522 -10.19949  -1.04354  -0.81233
 Alpha  occ. eigenvalues --   -0.64882  -0.57007  -0.48867  -0.43457  -0.42324
 Alpha  occ. eigenvalues --   -0.28773  -0.20512
 Alpha virt. eigenvalues --   -0.02966  -0.01392   0.02730   0.04723   0.08346
 Alpha virt. eigenvalues --    0.09985   0.10073   0.10854   0.15569   0.16248
 Alpha virt. eigenvalues --    0.16354   0.18451   0.18713   0.20580   0.21893
 Alpha virt. eigenvalues --    0.24686   0.25291   0.25434   0.28069   0.28422
 Alpha virt. eigenvalues --    0.29363   0.31336   0.32641   0.34623   0.34925
 Alpha virt. eigenvalues --    0.36082   0.38081   0.39831   0.40365   0.42107
 Alpha virt. eigenvalues --    0.42406   0.44686   0.46443   0.47137   0.50746
 Alpha virt. eigenvalues --    0.51960   0.52278   0.55898   0.56936   0.57602
 Alpha virt. eigenvalues --    0.63899   0.67931   0.69118   0.70172   0.73787
 Alpha virt. eigenvalues --    0.73864   0.75848   0.78128   0.83003   0.85532
 Alpha virt. eigenvalues --    0.86367   0.90654   0.93780   0.95306   1.05336
 Alpha virt. eigenvalues --    1.08494   1.16057   1.18752   1.26290   1.27870
 Alpha virt. eigenvalues --    1.37824   1.41778   1.42513   1.56394   1.57866
 Alpha virt. eigenvalues --    1.59248   1.68260   1.75233   1.77516   1.81477
 Alpha virt. eigenvalues --    1.83979   1.86015   1.90661   1.96485   1.99591
 Alpha virt. eigenvalues --    2.05023   2.16053   2.20406   2.20505   2.23833
 Alpha virt. eigenvalues --    2.28199   2.35528   2.39529   2.47347   2.51264
 Alpha virt. eigenvalues --    2.59388   2.64568   2.72019   2.79442   2.81805
 Alpha virt. eigenvalues --    2.84556   2.87947   2.94442   3.02431   3.08409
 Alpha virt. eigenvalues --    3.14493   3.16723   3.18340   3.27385   3.29774
 Alpha virt. eigenvalues --    3.30391   3.52514   3.56046   3.67864   3.78962
 Alpha virt. eigenvalues --    3.80366   3.83399   3.96918   4.11114   4.17641
 Alpha virt. eigenvalues --    4.18593   4.35266   4.57781   4.60126   4.68907
 Alpha virt. eigenvalues --    4.69160   4.76063   4.79082   4.82446   4.85477
 Alpha virt. eigenvalues --    4.94577   4.98254   5.16704   5.16837   5.23793
 Alpha virt. eigenvalues --    5.37551   5.60732   5.66053   5.73876   5.97583
 Alpha virt. eigenvalues --    6.15083   6.92957  22.58363  32.11961  32.42884
  Beta  occ. eigenvalues --  -14.43970 -14.30522 -10.19949  -1.04354  -0.81233
  Beta  occ. eigenvalues --   -0.64882  -0.57007  -0.48867  -0.43457  -0.42324
  Beta  occ. eigenvalues --   -0.28773  -0.20512
  Beta virt. eigenvalues --   -0.02966  -0.01392   0.02730   0.04723   0.08346
  Beta virt. eigenvalues --    0.09985   0.10073   0.10854   0.15569   0.16248
  Beta virt. eigenvalues --    0.16354   0.18451   0.18713   0.20580   0.21893
  Beta virt. eigenvalues --    0.24686   0.25291   0.25434   0.28069   0.28422
  Beta virt. eigenvalues --    0.29363   0.31336   0.32641   0.34623   0.34925
  Beta virt. eigenvalues --    0.36082   0.38081   0.39831   0.40365   0.42107
  Beta virt. eigenvalues --    0.42406   0.44686   0.46443   0.47137   0.50746
  Beta virt. eigenvalues --    0.51960   0.52278   0.55898   0.56936   0.57602
  Beta virt. eigenvalues --    0.63899   0.67931   0.69118   0.70172   0.73787
  Beta virt. eigenvalues --    0.73864   0.75848   0.78128   0.83003   0.85532
  Beta virt. eigenvalues --    0.86367   0.90654   0.93780   0.95306   1.05336
  Beta virt. eigenvalues --    1.08494   1.16057   1.18752   1.26290   1.27870
  Beta virt. eigenvalues --    1.37824   1.41778   1.42513   1.56394   1.57866
  Beta virt. eigenvalues --    1.59248   1.68260   1.75233   1.77516   1.81477
  Beta virt. eigenvalues --    1.83979   1.86015   1.90661   1.96485   1.99591
  Beta virt. eigenvalues --    2.05023   2.16053   2.20406   2.20505   2.23833
  Beta virt. eigenvalues --    2.28199   2.35528   2.39529   2.47347   2.51264
  Beta virt. eigenvalues --    2.59388   2.64568   2.72019   2.79442   2.81805
  Beta virt. eigenvalues --    2.84556   2.87947   2.94442   3.02431   3.08409
  Beta virt. eigenvalues --    3.14493   3.16723   3.18340   3.27385   3.29774
  Beta virt. eigenvalues --    3.30391   3.52514   3.56046   3.67864   3.78962
  Beta virt. eigenvalues --    3.80366   3.83399   3.96918   4.11114   4.17641
  Beta virt. eigenvalues --    4.18593   4.35266   4.57781   4.60126   4.68907
  Beta virt. eigenvalues --    4.69160   4.76063   4.79082   4.82446   4.85477
  Beta virt. eigenvalues --    4.94577   4.98254   5.16704   5.16837   5.23793
  Beta virt. eigenvalues --    5.37551   5.60732   5.66053   5.73876   5.97583
  Beta virt. eigenvalues --    6.15083   6.92957  22.58363  32.11961  32.42884
          Condensed to atoms (all electrons):
               1          2          3          4          5          6
     1  C    5.328925   0.504471  -0.113498   0.007352   0.373580   0.367840
     2  N    0.504471   6.061672  -0.290441   0.124088  -0.019597   0.020717
     3  N   -0.113498  -0.290441   8.014404   0.104717   0.015423  -0.030501
     4  H    0.007352   0.124088   0.104717   0.641489  -0.000622   0.002171
     5  H    0.373580  -0.019597   0.015423  -0.000622   0.417793  -0.014181
     6  H    0.367840   0.020717  -0.030501   0.002171  -0.014181   0.377879
     7  H   -0.019385   0.255701   0.072025  -0.040452  -0.000760  -0.005226
               7
     1  C   -0.019385
     2  N    0.255701
     3  N    0.072025
     4  H   -0.040452
     5  H   -0.000760
     6  H   -0.005226
     7  H    0.530995
          Atomic-Atomic Spin Densities.
               1          2          3          4          5          6
     1  C    0.000000   0.000000  -0.000000   0.000000  -0.000000  -0.000000
     2  N    0.000000  -0.000000   0.000000  -0.000000  -0.000000  -0.000000
     3  N   -0.000000   0.000000  -0.000000  -0.000000   0.000000   0.000000
     4  H    0.000000  -0.000000  -0.000000   0.000000  -0.000000  -0.000000
     5  H   -0.000000  -0.000000   0.000000  -0.000000  -0.000000   0.000000
     6  H   -0.000000  -0.000000   0.000000  -0.000000   0.000000  -0.000000
     7  H   -0.000000  -0.000000   0.000000  -0.000000   0.000000   0.000000
               7
     1  C   -0.000000
     2  N   -0.000000
     3  N    0.000000
     4  H   -0.000000
     5  H    0.000000
     6  H    0.000000
     7  H    0.000000
 Mulliken charges and spin densities:
               1          2
     1  C   -0.449286   0.000000
     2  N    0.343388   0.000000
     3  N   -0.772129  -0.000000
     4  H    0.161258  -0.000000
     5  H    0.228365  -0.000000
     6  H    0.281302  -0.000000
     7  H    0.207103  -0.000000
 Sum of Mulliken charges =  -0.00000  -0.00000
 Mulliken charges and spin densities with hydrogens summed into heavy atoms:
               1          2
     1  C    0.060380   0.000000
     2  N    0.550491   0.000000
     3  N   -0.610871  -0.000000
 Electronic spatial extent (au):  <R**2>=            599.1240
 Charge=             -0.0000 electrons
 Dipole moment (field-independent basis, Debye):
    X=              0.2425    Y=              0.7857    Z=              2.9237  Tot=              3.0371
 Quadrupole moment (field-independent basis, Debye-Ang):
   XX=            -14.6900   YY=            -21.5574   ZZ=            -22.8450
   XY=              2.3007   XZ=              8.4603   YZ=             -0.4346
 Traceless Quadrupole moment (field-independent basis, Debye-Ang):
   XX=              5.0075   YY=             -1.8599   ZZ=             -3.1476
   XY=              2.3007   XZ=              8.4603   YZ=             -0.4346
 Octapole moment (field-independent basis, Debye-Ang**2):
  XXX=            -93.9913  YYY=             10.9287  ZZZ=             41.4960  XYY=            -46.2610
  XXY=              9.0506  XXZ=             31.8547  XZZ=            -53.3338  YZZ=              5.4157
  YYZ=             12.0702  XYZ=             -2.2540
 Hexadecapole moment (field-independent basis, Debye-Ang**3):
 XXXX=           -501.7666 YYYY=            -31.0032 ZZZZ=           -117.6664 XXXY=             38.9630
 XXXZ=            135.5361 YYYX=             30.3704 YYYZ=            -12.5475 ZZZX=            119.0051
 ZZZY=            -14.1652 XXYY=           -128.4377 XXZZ=           -157.7369 YYZZ=            -24.2693
 XXYZ=             -9.3179 YYXZ=             35.1726 ZZXY=             14.8820
 N-N= 7.338254906404D+01 E-N=-4.962464721132D+02  KE= 1.492490370529D+02
                          Isotropic Fermi Contact Couplings
        Atom                 a.u.       MegaHertz       Gauss      10(-4) cm-1
     1  C(13)             -0.00000      -0.00000      -0.00000      -0.00000
     2  N(14)             -0.00000      -0.00000      -0.00000      -0.00000
     3  N(14)             -0.00000      -0.00000      -0.00000      -0.00000
     4  H(1)               0.00000       0.00000       0.00000       0.00000
     5  H(1)               0.00000       0.00000       0.00000       0.00000
     6  H(1)               0.00000       0.00000       0.00000       0.00000
     7  H(1)               0.00000       0.00000       0.00000       0.00000
 --------------------------------------------------------
       Center         ----  Spin Dipole Couplings  ----
                      3XX-RR        3YY-RR        3ZZ-RR
 --------------------------------------------------------
     1   Atom       -0.000000      0.000000      0.000000
     2   Atom        0.000000      0.000000     -0.000000
     3   Atom        0.000000      0.000000     -0.000000
     4   Atom        0.000000     -0.000000     -0.000000
     5   Atom        0.000000     -0.000000      0.000000
     6   Atom        0.000000      0.000000     -0.000000
     7   Atom       -0.000000      0.000000      0.000000
 --------------------------------------------------------
                        XY            XZ            YZ
 --------------------------------------------------------
     1   Atom        0.000000      0.000000      0.000000
     2   Atom        0.000000      0.000000     -0.000000
     3   Atom        0.000000      0.000000      0.000000
     4   Atom       -0.000000     -0.000000      0.000000
     5   Atom       -0.000000     -0.000000      0.000000
     6   Atom       -0.000000     -0.000000     -0.000000
     7   Atom       -0.000000     -0.000000      0.000000
 --------------------------------------------------------


 ---------------------------------------------------------------------------------
              Anisotropic Spin Dipole Couplings in Principal Axis System
 ---------------------------------------------------------------------------------

       Atom             a.u.   MegaHertz   Gauss  10(-4) cm-1        Axes

              Baa    -0.0000    -0.000    -0.000    -0.000  0.7636  0.3468 -0.5446
     1 C(13)  Bbb    -0.0000    -0.000    -0.000    -0.000 -0.5816  0.7357 -0.3470
              Bcc     0.0000     0.000     0.000     0.000  0.2804  0.5817  0.7635
 
              Baa    -0.0000    -0.000    -0.000    -0.000 -0.5891  0.2713  0.7612
     2 N(14)  Bbb     0.0000     0.000     0.000     0.000  0.2249  0.9598 -0.1680
              Bcc     0.0000     0.000     0.000     0.000  0.7762 -0.0723  0.6264
 
              Baa    -0.0000    -0.000    -0.000    -0.000 -0.3338 -0.1297  0.9337
     3 N(14)  Bbb     0.0000     0.000     0.000     0.000 -0.1466  0.9856  0.0845
              Bcc     0.0000     0.000     0.000     0.000  0.9312  0.1087  0.3480
 
              Baa    -0.0000    -0.000    -0.000    -0.000  0.0390  0.9815 -0.1876
     4 H(1)   Bbb    -0.0000    -0.000    -0.000    -0.000  0.4636  0.1486  0.8735
              Bcc     0.0000     0.000     0.000     0.000  0.8852 -0.1211 -0.4492
 
              Baa    -0.0000    -0.000    -0.000    -0.000  0.3300  0.9229  0.1982
     5 H(1)   Bbb    -0.0000    -0.000    -0.000    -0.000  0.5287 -0.3547  0.7711
              Bcc     0.0000     0.000     0.000     0.000  0.7820 -0.1497 -0.6050
 
              Baa    -0.0000    -0.000    -0.000    -0.000  0.4343  0.3525  0.8289
     6 H(1)   Bbb     0.0000     0.000     0.000     0.000 -0.0201  0.9238 -0.3823
              Bcc     0.0000     0.000     0.000     0.000  0.9005 -0.1494 -0.4083
 
              Baa    -0.0000    -0.000    -0.000    -0.000  0.8813  0.0262  0.4718
     7 H(1)   Bbb     0.0000     0.000     0.000     0.000  0.0822  0.9747 -0.2077
              Bcc     0.0000     0.000     0.000     0.000 -0.4653  0.2218  0.8569
 

 ---------------------------------------------------------------------------------

 No NMR shielding tensors so no spin-rotation constants.
 Leave Link  601 at Tue Jan  3 09:07:14 2023, MaxMem=   536870912 cpu:               0.8 elap:               0.8
 (Enter /opt/software/gaussian/g16.c01/l9999.exe)

 Test job not archived.
 1\1\GINC-GRA704\Stability\UB3LYP\Gen\C1H4N2\BHAVUK\03-Jan-2023\0\\#p u
 b3lyp/gen stable=opt scf=(maxcycle=900,verytightlineq,xqc) integral=gr
 id=ultrafine symmetry=None density=current iop(99/18=-1) output=wfn\\0
 001_q000_m01_k00_opt_uwb97xd_def2svpd/0001_q000_m01_k00_force_ub3lyp_d
 ef2tzvpd stable-force\\0,1\C,0,1.0726168695,-0.0701991232,-0.153012633
 \N,0,2.3779437514,-0.0897456927,-0.2543854931\N,0,3.0833554789,-0.3684
 697824,-1.3087287982\H,0,4.0640493508,-0.2926697434,-1.0476368317\H,0,
 0.6399628731,0.1851542916,0.8085260928\H,0,0.4830438364,-0.3099796861,
 -1.0337247999\H,0,2.8674978397,0.1458797364,0.6131324666\\Version=ES64
 L-G16RevC.01\HF=-149.9953323\S2=0.\S2-1=0.\S2A=0.\RMSD=2.478e-09\Dipol
 e=0.0954162,0.3091177,1.150277\Quadrupole=3.722938,-1.3828106,-2.34012
 74,1.7104918,6.290039,-0.3231157\PG=Unknown\\@

 Writing a WFN file to "0001_q000_m01_k00_force_ub3lyp_def2tzvpd.wfn"


 GROWING OLD ISN'T SO BAD -- WHEN YOU CONSIDER THE ALTERNATIVE.

                     -- MAURICE CHEVALIER
 Job cpu time:       0 days  0 hours  4 minutes 12.3 seconds.
 Elapsed time:       0 days  0 hours  3 minutes 52.1 seconds.
 File lengths (MBytes):  RWF=     98 Int=      0 D2E=      0 Chk=      4 Scr=      1
 Normal termination of Gaussian 16 at Tue Jan  3 09:07:15 2023.
 Initial command:
 /opt/software/gaussian/g16.c01/l1.exe "/localscratch/bhavuk.2151336.0/Gau-16757.inp" -scrdir="/localscratch/bhavuk.2151336.0/"
 Entering Link 1 = /opt/software/gaussian/g16.c01/l1.exe PID=     22490.
  
 Copyright (c) 1988-2019, Gaussian, Inc.  All Rights Reserved.
  
 This is part of the Gaussian(R) 16 program.  It is based on
 the Gaussian(R) 09 system (copyright 2009, Gaussian, Inc.),
 the Gaussian(R) 03 system (copyright 2003, Gaussian, Inc.),
 the Gaussian(R) 98 system (copyright 1998, Gaussian, Inc.),
 the Gaussian(R) 94 system (copyright 1995, Gaussian, Inc.),
 the Gaussian 92(TM) system (copyright 1992, Gaussian, Inc.),
 the Gaussian 90(TM) system (copyright 1990, Gaussian, Inc.),
 the Gaussian 88(TM) system (copyright 1988, Gaussian, Inc.),
 the Gaussian 86(TM) system (copyright 1986, Carnegie Mellon
 University), and the Gaussian 82(TM) system (copyright 1983,
 Carnegie Mellon University). Gaussian is a federally registered
 trademark of Gaussian, Inc.
  
 This software contains proprietary and confidential information,
 including trade secrets, belonging to Gaussian, Inc.
  
 This software is provided under written license and may be
 used, copied, transmitted, or stored only in accord with that
 written license.
  
 The following legend is applicable only to US Government
 contracts under FAR:
  
                    RESTRICTED RIGHTS LEGEND
  
 Use, reproduction and disclosure by the US Government is
 subject to restrictions as set forth in subparagraphs (a)
 and (c) of the Commercial Computer Software - Restricted
 Rights clause in FAR 52.227-19.
  
 Gaussian, Inc.
 340 Quinnipiac St., Bldg. 40, Wallingford CT 06492
  
  
 ---------------------------------------------------------------
 Warning -- This program may not be used in any manner that
 competes with the business of Gaussian, Inc. or will provide
 assistance to any competitor of Gaussian, Inc.  The licensee
 of this program is prohibited from giving any competitor of
 Gaussian, Inc. access to this program.  By using this program,
 the user acknowledges that Gaussian, Inc. is engaged in the
 business of creating and licensing software in the field of
 computational chemistry and represents and warrants to the
 licensee that it is not a competitor of Gaussian, Inc. and that
 it will not use this program in any manner prohibited above.
 ---------------------------------------------------------------
  

 Cite this work as:
 Gaussian 16, Revision C.01,
 M. J. Frisch, G. W. Trucks, H. B. Schlegel, G. E. Scuseria, 
 M. A. Robb, J. R. Cheeseman, G. Scalmani, V. Barone, 
 G. A. Petersson, H. Nakatsuji, X. Li, M. Caricato, A. V. Marenich, 
 J. Bloino, B. G. Janesko, R. Gomperts, B. Mennucci, H. P. Hratchian, 
 J. V. Ortiz, A. F. Izmaylov, J. L. Sonnenberg, D. Williams-Young, 
 F. Ding, F. Lipparini, F. Egidi, J. Goings, B. Peng, A. Petrone, 
 T. Henderson, D. Ranasinghe, V. G. Zakrzewski, J. Gao, N. Rega, 
 G. Zheng, W. Liang, M. Hada, M. Ehara, K. Toyota, R. Fukuda, 
 J. Hasegawa, M. Ishida, T. Nakajima, Y. Honda, O. Kitao, H. Nakai, 
 T. Vreven, K. Throssell, J. A. Montgomery, Jr., J. E. Peralta, 
 F. Ogliaro, M. J. Bearpark, J. J. Heyd, E. N. Brothers, K. N. Kudin, 
 V. N. Staroverov, T. A. Keith, R. Kobayashi, J. Normand, 
 K. Raghavachari, A. P. Rendell, J. C. Burant, S. S. Iyengar, 
 J. Tomasi, M. Cossi, J. M. Millam, M. Klene, C. Adamo, R. Cammi, 
 J. W. Ochterski, R. L. Martin, K. Morokuma, O. Farkas, 
 J. B. Foresman, and D. J. Fox, Gaussian, Inc., Wallingford CT, 2019.
 
 ******************************************
 Gaussian 16:  ES64L-G16RevC.01  3-Jul-2019
                 3-Jan-2023 
 ******************************************
 %chk=0001_q000_m01_k00_force_ub3lyp_def2tzvpd.chk
 %nprocshared=2
 Will use up to    2 processors via shared memory.
 %mem=4GB
 ----------------------------------------------------------------------
 #p ub3lyp/chkbasis force guess=read geom=check scf=(maxcycle=900,veryt
 ightlineq,xqc) integral=grid=ultrafine symmetry=None density=current p
 op=(cm5,hlygat,mbs,npa) output=wfx
 ----------------------------------------------------------------------
 1/10=7,29=2,30=1,38=1/1,3;
 2/12=2,15=3,40=1/2;
 3/5=7,6=2,11=2,14=-4,25=1,30=1,67=1,71=1,74=-5,75=-5,116=2/1,2,3;
 4/5=1/1;
 5/5=2,7=900,8=3,13=1,17=3,38=6/2,8;
 6/7=2,8=2,9=2,10=2,15=8,20=15,22=-1,27=100,28=1,40=-1,79=1/1,2,7;
 7/29=1,30=1/1,2,3,16;
 1/10=7,30=1/3;
 99/6=200/99;
 Leave Link    1 at Tue Jan  3 09:07:15 2023, MaxMem=   536870912 cpu:               0.2 elap:               0.2
 (Enter /opt/software/gaussian/g16.c01/l101.exe)
 ----------------------------------------------------------------------
 0001_q000_m01_k00_opt_uwb97xd_def2svpd/0001_q000_m01_k00_force_ub3lyp_
 def2tzvpd stable-force
 ----------------------------------------------------------------------
 Structure from the checkpoint file:  "0001_q000_m01_k00_force_ub3lyp_def2tzvpd.chk"
 Charge =  0 Multiplicity = 1
 Z-Matrix found in chk file.
 C,0,1.0726168695,-0.0701991232,-0.153012633
 N,0,2.3779437514,-0.0897456927,-0.2543854931
 N,0,3.0833554789,-0.3684697824,-1.3087287982
 H,0,4.0640493508,-0.2926697434,-1.0476368317
 H,0,0.6399628731,0.1851542916,0.8085260928
 H,0,0.4830438364,-0.3099796861,-1.0337247999
 H,0,2.8674978397,0.1458797364,0.6131324666
 Recover connectivity data from disk.
 ITRead=  0  0  0  0  0  0  0
 MicOpt= -1 -1 -1 -1 -1 -1 -1
 NAtoms=      7 NQM=        7 NQMF=       0 NMMI=      0 NMMIF=      0
                NMic=       0 NMicF=      0.
                    Isotopes and Nuclear Properties:
 (Nuclear quadrupole moments (NQMom) in fm**2, nuclear magnetic moments (NMagM)
  in nuclear magnetons)

  Atom         1           2           3           4           5           6           7
 IAtWgt=          12          14          14           1           1           1           1
 AtmWgt=  12.0000000  14.0030740  14.0030740   1.0078250   1.0078250   1.0078250   1.0078250
 NucSpn=           0           2           2           1           1           1           1
 AtZEff=   3.6000000   4.5500000   4.5500000   1.0000000   1.0000000   1.0000000   1.0000000
 NQMom=    0.0000000   2.0440000   2.0440000   0.0000000   0.0000000   0.0000000   0.0000000
 NMagM=    0.0000000   0.4037610   0.4037610   2.7928460   2.7928460   2.7928460   2.7928460
 AtZNuc=   6.0000000   7.0000000   7.0000000   1.0000000   1.0000000   1.0000000   1.0000000
 Leave Link  101 at Tue Jan  3 09:07:15 2023, MaxMem=   536870912 cpu:               0.4 elap:               0.4
 (Enter /opt/software/gaussian/g16.c01/l103.exe)

 GradGradGradGradGradGradGradGradGradGradGradGradGradGradGradGradGradGrad
 Berny optimization.
 Initialization pass.
 Trust Radius=3.00D-01 FncErr=1.00D-07 GrdErr=1.00D-07 EigMax=2.50D+02 EigMin=1.00D-04
 Number of steps in this run=      2 maximum allowed number of steps=      2.
 GradGradGradGradGradGradGradGradGradGradGradGradGradGradGradGradGradGrad

 Leave Link  103 at Tue Jan  3 09:07:15 2023, MaxMem=   536870912 cpu:               0.1 elap:               0.1
 (Enter /opt/software/gaussian/g16.c01/l202.exe)
                          Input orientation:                          
 ---------------------------------------------------------------------
 Center     Atomic      Atomic             Coordinates (Angstroms)
 Number     Number       Type             X           Y           Z
 ---------------------------------------------------------------------
      1          6           0        1.072617   -0.070199   -0.153013
      2          7           0        2.377944   -0.089746   -0.254385
      3          7           0        3.083355   -0.368470   -1.308729
      4          1           0        4.064049   -0.292670   -1.047637
      5          1           0        0.639963    0.185154    0.808526
      6          1           0        0.483044   -0.309980   -1.033725
      7          1           0        2.867498    0.145880    0.613132
 ---------------------------------------------------------------------
                    Distance matrix (angstroms):
                    1          2          3          4          5
     1  C    0.000000
     2  N    1.309403   0.000000
     3  N    2.338315   1.298820   0.000000
     4  H    3.130258   1.874401   1.017681   0.000000
     5  H    1.084874   2.055706   3.280158   3.924032   0.000000
     6  H    1.086621   2.060708   2.615467   3.581074   1.914071
     7  H    1.963483   1.023606   2.001175   2.093374   2.236433
                    6          7
     6  H    0.000000
     7  H    2.933525   0.000000
 Symmetry turned off by external request.
 Stoichiometry    CH4N2
 Rotational constants (GHZ):          71.2642239          11.2793619           9.7380671
 Leave Link  202 at Tue Jan  3 09:07:15 2023, MaxMem=   536870912 cpu:               0.1 elap:               0.0
 (Enter /opt/software/gaussian/g16.c01/l301.exe)
 Basis read from chk: "0001_q000_m01_k00_force_ub3lyp_def2tzvpd.chk" (5D, 7F)
 No pseudopotential information found on chk file.
   147 basis functions,   218 primitive gaussians,   165 cartesian basis functions
    12 alpha electrons       12 beta electrons
       nuclear repulsion energy        73.3825490640 Hartrees.
 IExCor=  402 DFT=T Ex+Corr=B3LYP ExCW=0 ScaHFX=  0.200000
 ScaDFX=  0.800000  0.720000  1.000000  0.810000 ScalE2=  1.000000  1.000000
 IRadAn=      5 IRanWt=     -1 IRanGd=            0 ICorTp=0 IEmpDi=  4
 NAtoms=    7 NActive=    7 NUniq=    7 SFac= 1.00D+00 NAtFMM=   60 NAOKFM=F Big=F
 Integral buffers will be    131072 words long.
 Raffenetti 2 integral format.
 Two-electron integral symmetry is turned off.
 No density basis found on file  20724.
 Leave Link  301 at Tue Jan  3 09:07:15 2023, MaxMem=   536870912 cpu:               0.1 elap:               0.1
 (Enter /opt/software/gaussian/g16.c01/l302.exe)
 NPDir=0 NMtPBC=     1 NCelOv=     1 NCel=       1 NClECP=     1 NCelD=      1
         NCelK=      1 NCelE2=     1 NClLst=     1 CellRange=     0.0.
 One-electron integrals computed using PRISM.
 NBasis=   147 RedAO= T EigKep=  3.60D-05  NBF=   147
 NBsUse=   147 1.00D-06 EigRej= -1.00D+00 NBFU=   147
 Precomputing XC quadrature grid using
 IXCGrd= 4 IRadAn=           5 IRanWt=          -1 IRanGd=           0 AccXCQ= 0.00D+00.
 Generated NRdTot=       0 NPtTot=           0 NUsed=           0 NTot=          32
 NSgBfM=   165   165   165   165   165 MxSgAt=     7 MxSgA2=     7.
 Leave Link  302 at Tue Jan  3 09:07:16 2023, MaxMem=   536870912 cpu:               0.5 elap:               0.2
 (Enter /opt/software/gaussian/g16.c01/l303.exe)
 DipDrv:  MaxL=1.
 Leave Link  303 at Tue Jan  3 09:07:16 2023, MaxMem=   536870912 cpu:               0.3 elap:               0.3
 (Enter /opt/software/gaussian/g16.c01/l401.exe)
 Initial guess from the checkpoint file:  "0001_q000_m01_k00_force_ub3lyp_def2tzvpd.chk"
 B after Tr=     0.000000    0.000000    0.000000
         Rot=    1.000000    0.000000    0.000000    0.000000 Ang=   0.00 deg.
 Guess basis will be translated and rotated to current coordinates.
 JPrj=2 DoOrth=T DoCkMO=T.
 Initial guess <Sx>= 0.0000 <Sy>= 0.0000 <Sz>= 0.0000 <S**2>=-0.0000 S=-0.0000
 Leave Link  401 at Tue Jan  3 09:07:16 2023, MaxMem=   536870912 cpu:               0.3 elap:               0.3
 (Enter /opt/software/gaussian/g16.c01/l502.exe)
 Keep R1 and R2 ints in memory in canonical form, NReq=120629444.
 FoFCou: FMM=F IPFlag=           0 FMFlag=           0 FMFlg1=           0
         NFxFlg=           0 DoJE=F BraDBF=F KetDBF=F FulRan=T
         wScrn=  0.000000 ICntrl=       600 IOpCl=  0 I1Cent=           0 NGrid=           0
         NMat0=    1 NMatS0=  10878 NMatT0=    0 NMatD0=    1 NMtDS0=    0 NMtDT0=    0
 Symmetry not used in FoFCou.
 Two-electron integral symmetry not used.
 UHF open shell SCF:
 Using DIIS extrapolation, IDIIS=  1040.
 NGot=   536870912 LenX=   418472355 LenY=   418444689
 Requested convergence on RMS density matrix=1.00D-08 within 128 cycles.
 Requested convergence on MAX density matrix=1.00D-06.
 Requested convergence on             energy=1.00D-06.
 No special actions if energy rises.

 Cycle   1  Pass 1  IDiag  1:
 E= -149.995332273872    
 DIIS: error= 2.08D-09 at cycle   1 NSaved=   1.
 NSaved= 1 IEnMin= 1 EnMin= -149.995332273872     IErMin= 1 ErrMin= 2.08D-09
 ErrMax= 2.08D-09  0.00D+00 EMaxC= 1.00D-01 BMatC= 1.47D-15 BMatP= 1.47D-15
 IDIUse=1 WtCom= 1.00D+00 WtEn= 0.00D+00
 Coeff-Com:  0.100D+01
 Coeff:      0.100D+01
 Gap=     0.175 Goal=   None    Shift=    0.000
 Gap=     0.175 Goal=   None    Shift=    0.000
 RMSDP=3.15D-10 MaxDP=8.61D-09              OVMax= 8.57D-09

 SCF Done:  E(UB3LYP) =  -149.995332274     A.U. after    1 cycles
            NFock=  1  Conv=0.32D-09     -V/T= 2.0050
 <Sx>= 0.0000 <Sy>= 0.0000 <Sz>= 0.0000 <S**2>=-0.0000 S=-0.0000
 <L.S>=  0.00000000000    
 KE= 1.492490369141D+02 PE=-4.962464719744D+02 EE= 1.236195537225D+02
 Annihilation of the first spin contaminant:
 S**2 before annihilation    -0.0000,   after     0.0000
 Leave Link  502 at Tue Jan  3 09:07:21 2023, MaxMem=   536870912 cpu:               8.8 elap:               4.6
 (Enter /opt/software/gaussian/g16.c01/l508.exe)
 QCSCF skips out because SCF is already converged.
 Leave Link  508 at Tue Jan  3 09:07:21 2023, MaxMem=   536870912 cpu:               0.0 elap:               0.0
 (Enter /opt/software/gaussian/g16.c01/l601.exe)
 Copying SCF densities to generalized density rwf, IOpCl= 1 IROHF=0.

 **********************************************************************

            Population analysis using the SCF Density.

 **********************************************************************

 Alpha  occ. eigenvalues --  -14.43970 -14.30522 -10.19949  -1.04354  -0.81233
 Alpha  occ. eigenvalues --   -0.64882  -0.57007  -0.48867  -0.43457  -0.42324
 Alpha  occ. eigenvalues --   -0.28773  -0.20512
 Alpha virt. eigenvalues --   -0.02966  -0.01392   0.02730   0.04723   0.08346
 Alpha virt. eigenvalues --    0.09985   0.10073   0.10854   0.15569   0.16248
 Alpha virt. eigenvalues --    0.16354   0.18451   0.18713   0.20580   0.21893
 Alpha virt. eigenvalues --    0.24686   0.25291   0.25434   0.28069   0.28422
 Alpha virt. eigenvalues --    0.29363   0.31336   0.32641   0.34623   0.34925
 Alpha virt. eigenvalues --    0.36082   0.38081   0.39831   0.40365   0.42107
 Alpha virt. eigenvalues --    0.42406   0.44686   0.46443   0.47137   0.50746
 Alpha virt. eigenvalues --    0.51960   0.52278   0.55898   0.56936   0.57602
 Alpha virt. eigenvalues --    0.63899   0.67931   0.69118   0.70172   0.73787
 Alpha virt. eigenvalues --    0.73864   0.75848   0.78128   0.83003   0.85532
 Alpha virt. eigenvalues --    0.86367   0.90654   0.93780   0.95306   1.05336
 Alpha virt. eigenvalues --    1.08494   1.16057   1.18752   1.26290   1.27870
 Alpha virt. eigenvalues --    1.37824   1.41778   1.42513   1.56394   1.57866
 Alpha virt. eigenvalues --    1.59248   1.68260   1.75233   1.77516   1.81477
 Alpha virt. eigenvalues --    1.83979   1.86015   1.90661   1.96485   1.99591
 Alpha virt. eigenvalues --    2.05023   2.16053   2.20406   2.20505   2.23833
 Alpha virt. eigenvalues --    2.28199   2.35528   2.39529   2.47347   2.51264
 Alpha virt. eigenvalues --    2.59388   2.64568   2.72019   2.79442   2.81805
 Alpha virt. eigenvalues --    2.84556   2.87947   2.94442   3.02431   3.08409
 Alpha virt. eigenvalues --    3.14493   3.16723   3.18340   3.27385   3.29774
 Alpha virt. eigenvalues --    3.30391   3.52514   3.56046   3.67864   3.78962
 Alpha virt. eigenvalues --    3.80366   3.83399   3.96918   4.11114   4.17641
 Alpha virt. eigenvalues --    4.18593   4.35266   4.57781   4.60126   4.68907
 Alpha virt. eigenvalues --    4.69160   4.76063   4.79082   4.82446   4.85477
 Alpha virt. eigenvalues --    4.94577   4.98254   5.16704   5.16837   5.23793
 Alpha virt. eigenvalues --    5.37551   5.60732   5.66053   5.73876   5.97583
 Alpha virt. eigenvalues --    6.15083   6.92957  22.58363  32.11961  32.42884
  Beta  occ. eigenvalues --  -14.43970 -14.30522 -10.19949  -1.04354  -0.81233
  Beta  occ. eigenvalues --   -0.64882  -0.57007  -0.48867  -0.43457  -0.42324
  Beta  occ. eigenvalues --   -0.28773  -0.20512
  Beta virt. eigenvalues --   -0.02966  -0.01392   0.02730   0.04723   0.08346
  Beta virt. eigenvalues --    0.09985   0.10073   0.10854   0.15569   0.16248
  Beta virt. eigenvalues --    0.16354   0.18451   0.18713   0.20580   0.21893
  Beta virt. eigenvalues --    0.24686   0.25291   0.25434   0.28069   0.28422
  Beta virt. eigenvalues --    0.29363   0.31336   0.32641   0.34623   0.34925
  Beta virt. eigenvalues --    0.36082   0.38081   0.39831   0.40365   0.42107
  Beta virt. eigenvalues --    0.42406   0.44686   0.46443   0.47137   0.50746
  Beta virt. eigenvalues --    0.51960   0.52278   0.55898   0.56936   0.57602
  Beta virt. eigenvalues --    0.63899   0.67931   0.69118   0.70172   0.73787
  Beta virt. eigenvalues --    0.73864   0.75848   0.78128   0.83003   0.85532
  Beta virt. eigenvalues --    0.86367   0.90654   0.93780   0.95306   1.05336
  Beta virt. eigenvalues --    1.08494   1.16057   1.18752   1.26290   1.27870
  Beta virt. eigenvalues --    1.37824   1.41778   1.42513   1.56394   1.57866
  Beta virt. eigenvalues --    1.59248   1.68260   1.75233   1.77516   1.81477
  Beta virt. eigenvalues --    1.83979   1.86015   1.90661   1.96485   1.99591
  Beta virt. eigenvalues --    2.05023   2.16053   2.20406   2.20505   2.23833
  Beta virt. eigenvalues --    2.28199   2.35528   2.39529   2.47347   2.51264
  Beta virt. eigenvalues --    2.59388   2.64568   2.72019   2.79442   2.81805
  Beta virt. eigenvalues --    2.84556   2.87947   2.94442   3.02431   3.08409
  Beta virt. eigenvalues --    3.14493   3.16723   3.18340   3.27385   3.29774
  Beta virt. eigenvalues --    3.30391   3.52514   3.56046   3.67864   3.78962
  Beta virt. eigenvalues --    3.80366   3.83399   3.96918   4.11114   4.17641
  Beta virt. eigenvalues --    4.18593   4.35266   4.57781   4.60126   4.68907
  Beta virt. eigenvalues --    4.69160   4.76063   4.79082   4.82446   4.85477
  Beta virt. eigenvalues --    4.94577   4.98254   5.16704   5.16837   5.23793
  Beta virt. eigenvalues --    5.37551   5.60732   5.66053   5.73876   5.97583
  Beta virt. eigenvalues --    6.15083   6.92957  22.58363  32.11961  32.42884
          Condensed to atoms (all electrons):
               1          2          3          4          5          6
     1  C    5.328925   0.504471  -0.113498   0.007352   0.373580   0.367840
     2  N    0.504471   6.061672  -0.290441   0.124088  -0.019597   0.020717
     3  N   -0.113498  -0.290441   8.014404   0.104717   0.015423  -0.030501
     4  H    0.007352   0.124088   0.104717   0.641489  -0.000622   0.002171
     5  H    0.373580  -0.019597   0.015423  -0.000622   0.417793  -0.014181
     6  H    0.367840   0.020717  -0.030501   0.002171  -0.014181   0.377879
     7  H   -0.019385   0.255701   0.072025  -0.040452  -0.000760  -0.005226
               7
     1  C   -0.019385
     2  N    0.255701
     3  N    0.072025
     4  H   -0.040452
     5  H   -0.000760
     6  H   -0.005226
     7  H    0.530995
          Atomic-Atomic Spin Densities.
               1          2          3          4          5          6
     1  C   -0.000000   0.000000  -0.000000   0.000000   0.000000  -0.000000
     2  N    0.000000   0.000000  -0.000000   0.000000  -0.000000  -0.000000
     3  N   -0.000000  -0.000000   0.000000  -0.000000   0.000000   0.000000
     4  H    0.000000   0.000000  -0.000000   0.000000  -0.000000  -0.000000
     5  H    0.000000  -0.000000   0.000000  -0.000000  -0.000000   0.000000
     6  H   -0.000000  -0.000000   0.000000  -0.000000   0.000000  -0.000000
     7  H   -0.000000  -0.000000   0.000000   0.000000   0.000000   0.000000
               7
     1  C   -0.000000
     2  N   -0.000000
     3  N    0.000000
     4  H    0.000000
     5  H    0.000000
     6  H    0.000000
     7  H   -0.000000
 Mulliken charges and spin densities:
               1          2
     1  C   -0.449286  -0.000000
     2  N    0.343388  -0.000000
     3  N   -0.772129   0.000000
     4  H    0.161258  -0.000000
     5  H    0.228365   0.000000
     6  H    0.281302  -0.000000
     7  H    0.207103  -0.000000
 Sum of Mulliken charges =  -0.00000  -0.00000
 Mulliken charges and spin densities with hydrogens summed into heavy atoms:
               1          2
     1  C    0.060380  -0.000000
     2  N    0.550491  -0.000000
     3  N   -0.610871   0.000000
 Electronic spatial extent (au):  <R**2>=            599.1240
 Charge=              0.0000 electrons
 Dipole moment (field-independent basis, Debye):
    X=              0.2425    Y=              0.7857    Z=              2.9237  Tot=              3.0371
 Quadrupole moment (field-independent basis, Debye-Ang):
   XX=            -14.6900   YY=            -21.5574   ZZ=            -22.8450
   XY=              2.3007   XZ=              8.4603   YZ=             -0.4346
 Traceless Quadrupole moment (field-independent basis, Debye-Ang):
   XX=              5.0075   YY=             -1.8599   ZZ=             -3.1476
   XY=              2.3007   XZ=              8.4603   YZ=             -0.4346
 Octapole moment (field-independent basis, Debye-Ang**2):
  XXX=            -93.9913  YYY=             10.9287  ZZZ=             41.4960  XYY=            -46.2610
  XXY=              9.0506  XXZ=             31.8547  XZZ=            -53.3338  YZZ=              5.4157
  YYZ=             12.0702  XYZ=             -2.2540
 Hexadecapole moment (field-independent basis, Debye-Ang**3):
 XXXX=           -501.7666 YYYY=            -31.0032 ZZZZ=           -117.6664 XXXY=             38.9630
 XXXZ=            135.5361 YYYX=             30.3704 YYYZ=            -12.5475 ZZZX=            119.0051
 ZZZY=            -14.1652 XXYY=           -128.4377 XXZZ=           -157.7369 YYZZ=            -24.2693
 XXYZ=             -9.3179 YYXZ=             35.1726 ZZXY=             14.8820
 N-N= 7.338254906404D+01 E-N=-4.962464717540D+02  KE= 1.492490369141D+02
 There are a total of      158374 grid points.
 ElSum from          density=       24.0000002224
 ElSum from atomic densities=       23.9999991513

 Hirshfeld populations at iteration   1 (CX, CA, CB, DipXYZ):
               1          2          3          4          5          6
[...]
    37    C    1  f(S3)  Ryd( 4f)     0.00005       3.32147
 
    38    N    2  S      Cor( 1S)     0.99976     -14.25500
    39    N    2  S      Val( 2S)     0.61293      -0.59982
    40    N    2  S      Ryd( 4S)     0.00247       1.51849
    41    N    2  S      Ryd( 3S)     0.00005       1.20628
    42    N    2  S      Ryd( 5S)     0.00000       2.42656
    43    N    2  S      Ryd( 6S)     0.00000      30.42334
    44    N    2  px     Val( 2p)     0.65647      -0.29073
    45    N    2  px     Ryd( 3p)     0.00103       1.19261
    46    N    2  px     Ryd( 4p)     0.00002       2.20373
    47    N    2  py     Val( 2p)     0.67817      -0.28756
    48    N    2  py     Ryd( 3p)     0.00028       0.79510
    49    N    2  py     Ryd( 4p)     0.00004       1.97396
    50    N    2  pz     Val( 2p)     0.63971      -0.27210
    51    N    2  pz     Ryd( 3p)     0.00200       1.20313
    52    N    2  pz     Ryd( 4p)     0.00004       2.25829
    53    N    2  dxy    Ryd( 3d)     0.00210       1.17253
    54    N    2  dxy    Ryd( 4d)     0.00012       1.20278
    55    N    2  dxy    Ryd( 5d)     0.00002       4.43563
    56    N    2  dxz    Ryd( 4d)     0.00096       1.74245
    57    N    2  dxz    Ryd( 3d)     0.00018       1.44609
    58    N    2  dxz    Ryd( 5d)     0.00015       4.89669
    59    N    2  dyz    Ryd( 3d)     0.00145       1.15701
    60    N    2  dyz    Ryd( 4d)     0.00008       1.25124
    61    N    2  dyz    Ryd( 5d)     0.00004       4.42936
    62    N    2  dx2y2  Ryd( 4d)     0.00191       1.56031
    63    N    2  dx2y2  Ryd( 3d)     0.00021       1.43692
    64    N    2  dx2y2  Ryd( 5d)     0.00003       4.75571
    65    N    2  dz2    Ryd( 4d)     0.00203       1.50505
    66    N    2  dz2    Ryd( 3d)     0.00013       1.35039
    67    N    2  dz2    Ryd( 5d)     0.00004       4.67095
    68    N    2  f(0)   Ryd( 4f)     0.00003       4.67031
    69    N    2  f(C1)  Ryd( 4f)     0.00008       5.25546
    70    N    2  f(S1)  Ryd( 4f)     0.00005       4.51633
    71    N    2  f(C2)  Ryd( 4f)     0.00009       4.75446
    72    N    2  f(S2)  Ryd( 4f)     0.00004       4.56845
    73    N    2  f(C3)  Ryd( 4f)     0.00008       4.63158
    74    N    2  f(S3)  Ryd( 4f)     0.00012       4.44808
 
    75    N    3  S      Cor( 1S)     0.99983     -14.14611
    76    N    3  S      Val( 2S)     0.77110      -0.57113
    77    N    3  S      Ryd( 4S)     0.00280       1.82306
    78    N    3  S      Ryd( 3S)     0.00007       0.69841
    79    N    3  S      Ryd( 5S)     0.00001       3.23645
    80    N    3  S      Ryd( 6S)     0.00000      30.50511
    81    N    3  px     Val( 2p)     0.59928      -0.13380
    82    N    3  px     Ryd( 3p)     0.00231       1.29011
    83    N    3  px     Ryd( 4p)     0.00005       2.22228
    84    N    3  py     Val( 2p)     0.71752      -0.18577
    85    N    3  py     Ryd( 3p)     0.00213       0.92879
    86    N    3  py     Ryd( 4p)     0.00001       1.90287
    87    N    3  pz     Val( 2p)     0.67659      -0.16286
    88    N    3  pz     Ryd( 3p)     0.00138       1.17536
    89    N    3  pz     Ryd( 4p)     0.00010       1.78096
    90    N    3  dxy    Ryd( 4d)     0.00168       1.12238
    91    N    3  dxy    Ryd( 3d)     0.00049       1.00904
    92    N    3  dxy    Ryd( 5d)     0.00004       4.61661
    93    N    3  dxz    Ryd( 4d)     0.00285       1.62566
    94    N    3  dxz    Ryd( 3d)     0.00008       1.44566
    95    N    3  dxz    Ryd( 5d)     0.00005       4.81235
    96    N    3  dyz    Ryd( 4d)     0.00186       1.29954
    97    N    3  dyz    Ryd( 3d)     0.00008       0.92454
    98    N    3  dyz    Ryd( 5d)     0.00002       4.57106
    99    N    3  dx2y2  Ryd( 4d)     0.00134       1.38837
   100    N    3  dx2y2  Ryd( 3d)     0.00015       1.35718
   101    N    3  dx2y2  Ryd( 5d)     0.00003       4.66682
   102    N    3  dz2    Ryd( 4d)     0.00185       1.44672
   103    N    3  dz2    Ryd( 3d)     0.00020       1.11557
   104    N    3  dz2    Ryd( 5d)     0.00008       4.69332
   105    N    3  f(0)   Ryd( 4f)     0.00002       4.72492
   106    N    3  f(C1)  Ryd( 4f)     0.00004       4.86412
   107    N    3  f(S1)  Ryd( 4f)     0.00002       4.42935
   108    N    3  f(C2)  Ryd( 4f)     0.00006       4.68451
   109    N    3  f(S2)  Ryd( 4f)     0.00003       4.50010
   110    N    3  f(C3)  Ryd( 4f)     0.00007       4.57326
   111    N    3  f(S3)  Ryd( 4f)     0.00004       4.26167
 
   112    H    4  S      Val( 1S)     0.34399       0.05604
   113    H    4  S      Ryd( 2S)     0.00026       1.33577
   114    H    4  S      Ryd( 3S)     0.00011       1.57539
   115    H    4  px     Ryd( 2p)     0.00062       0.52406
   116    H    4  px     Ryd( 3p)     0.00019       2.96279
   117    H    4  py     Ryd( 2p)     0.00119       0.44481
   118    H    4  py     Ryd( 3p)     0.00003       2.02376
   119    H    4  pz     Ryd( 2p)     0.00036       0.57805
   120    H    4  pz     Ryd( 3p)     0.00008       2.30365
 
   121    H    5  S      Val( 1S)     0.40313      -0.01316
   122    H    5  S      Ryd( 3S)     0.00013       1.40492
   123    H    5  S      Ryd( 2S)     0.00005       1.39605
   124    H    5  px     Ryd( 2p)     0.00011       0.49656
   125    H    5  px     Ryd( 3p)     0.00013       2.29757
   126    H    5  py     Ryd( 2p)     0.00148       0.35236
   127    H    5  py     Ryd( 3p)     0.00005       2.01957
   128    H    5  pz     Ryd( 2p)     0.00026       0.39170
   129    H    5  pz     Ryd( 3p)     0.00032       2.69115
 
   130    H    6  S      Val( 1S)     0.39772       0.00104
   131    H    6  S      Ryd( 2S)     0.00058       1.02288
   132    H    6  S      Ryd( 3S)     0.00005       1.72815
   133    H    6  px     Ryd( 2p)     0.00019       0.42310
   134    H    6  px     Ryd( 3p)     0.00013       2.45466
   135    H    6  py     Ryd( 2p)     0.00076       0.34697
   136    H    6  py     Ryd( 3p)     0.00009       2.00900
   137    H    6  pz     Ryd( 2p)     0.00035       0.38425
   138    H    6  pz     Ryd( 3p)     0.00026       2.59067
 
   139    H    7  S      Val( 1S)     0.31504       0.00219
   140    H    7  S      Ryd( 2S)     0.00045       1.31911
   141    H    7  S      Ryd( 3S)     0.00009       1.77521
   142    H    7  px     Ryd( 2p)     0.00081       0.53296
   143    H    7  px     Ryd( 3p)     0.00003       2.35636
   144    H    7  py     Ryd( 2p)     0.00050       0.42697
   145    H    7  py     Ryd( 3p)     0.00005       1.96372
   146    H    7  pz     Ryd( 2p)     0.00074       0.43248
   147    H    7  pz     Ryd( 3p)     0.00005       2.74747

 WARNING:  Population inversion found on atom  C    1
           Population inversion found on atom  N    2
           Population inversion found on atom  N    3
           Population inversion found on atom  H    5


 Summary of Natural Population Analysis:                  
                                                          
                                       Natural Population 
                Natural  -----------------------------------------------
    Atom  No    Charge         Core      Valence    Rydberg      Total
 -----------------------------------------------------------------------
      C    1   -0.14246      0.99974     2.12920    0.01352     3.14246
      N    2   -0.10290      0.99976     2.58728    0.01587     3.60290
      N    3   -0.28424      0.99983     2.76448    0.01994     3.78424
      H    4    0.15317      0.00000     0.34399    0.00284     0.34683
      H    5    0.09434      0.00000     0.40313    0.00253     0.40566
      H    6    0.09986      0.00000     0.39772    0.00242     0.40014
      H    7    0.18223      0.00000     0.31504    0.00273     0.31777
 =======================================================================
   * Total *   -0.00000      2.99932     8.94084    0.05984    12.00000

                                 Natural Population      
 --------------------------------------------------------
   Core                       2.99932 ( 99.9772% of   3)
   Valence                    8.94084 ( 99.3427% of   9)
   Natural Minimal Basis     11.94016 ( 99.5013% of  12)
   Natural Rydberg Basis      0.05984 (  0.4987% of  12)
 --------------------------------------------------------

    Atom  No          Natural Electron Configuration
 ----------------------------------------------------------------------------
      C    1      [core]2S( 0.52)2p( 1.61)3p( 0.01)
      N    2      [core]2S( 0.61)2p( 1.97)4d( 0.01)
      N    3      [core]2S( 0.77)2p( 1.99)3p( 0.01)4d( 0.01)
      H    4            1S( 0.34)
      H    5            1S( 0.40)
      H    6            1S( 0.40)
      H    7            1S( 0.32)


 NBO analysis skipped by request.
 Leave Link  607 at Tue Jan  3 09:07:25 2023, MaxMem=   536870912 cpu:               3.7 elap:               2.6
 (Enter /opt/software/gaussian/g16.c01/l701.exe)
 ... and contract with generalized density number  0.
 Compute integral first derivatives.
 Leave Link  701 at Tue Jan  3 09:07:26 2023, MaxMem=   536870912 cpu:               0.5 elap:               0.4
 (Enter /opt/software/gaussian/g16.c01/l702.exe)
 L702 exits ... SP integral derivatives will be done elsewhere.
 Leave Link  702 at Tue Jan  3 09:07:26 2023, MaxMem=   536870912 cpu:               0.1 elap:               0.1
 (Enter /opt/software/gaussian/g16.c01/l703.exe)
 Integral derivatives from FoFJK, PRISM(SPDF).
 Compute integral first derivatives, UseDBF=F ICtDFT=           0.
 Calling FoFJK, ICntrl=      2127 FMM=F ISym2X=0 I1Cent= 0 IOpClX= 1 NMat=1 NMatS=1 NMatT=0.
 FoFJK:  IHMeth= 1 ICntrl=    2127 DoSepK=F KAlg= 0 I1Cent=           0 FoldK=F
 IRaf=         0 NMat=       1 IRICut=       1 DoRegI=T DoRafI=F ISym2E= 0 IDoP0=0 IntGTp=1.
 FoFCou: FMM=F IPFlag=           0 FMFlag=      100000 FMFlg1=         800
         NFxFlg=           0 DoJE=F BraDBF=F KetDBF=F FulRan=T
         wScrn=  0.000000 ICntrl=      2127 IOpCl=  1 I1Cent=           0 NGrid=           0
         NMat0=    1 NMatS0=      1 NMatT0=    0 NMatD0=    1 NMtDS0=    0 NMtDT0=    0
 Symmetry not used in FoFCou.
 Leave Link  703 at Tue Jan  3 09:07:35 2023, MaxMem=   536870912 cpu:              16.3 elap:               8.3
 (Enter /opt/software/gaussian/g16.c01/l716.exe)
 Dipole        = 9.54162104D-02 3.09117726D-01 1.15027705D+00
 -------------------------------------------------------------------
 Center     Atomic                   Forces (Hartrees/Bohr)
 Number     Number              X              Y              Z
 -------------------------------------------------------------------
      1        6          -0.006979268    0.000198926    0.000906511
      2        7          -0.000609340    0.001558098    0.005814152
      3        7           0.004508056   -0.001367426   -0.005194750
      4        1          -0.001025526    0.000037716    0.000163788
      5        1           0.002259351   -0.001549893   -0.005833643
      6        1           0.002795430    0.001462364    0.005386004
      7        1          -0.000948704   -0.000339785   -0.001242062
 -------------------------------------------------------------------
 Cartesian Forces:  Max     0.006979268 RMS     0.003232948
 Z-matrix is all fixed cartesians, so copy forces.
 Force constants in Cartesian coordinates: 
                1             2             3             4             5 
      1  0.979681D+00
      2 -0.379301D-03  0.213865D+00
      3 -0.190645D-01  0.142607D+00  0.707620D+00
      4 -0.643805D+00  0.579070D-02  0.334547D-01  0.112567D+01
      5  0.632347D-02 -0.106234D+00 -0.223587D-01 -0.331382D-01  0.255501D+00
      6  0.354270D-01 -0.223469D-01 -0.184344D+00 -0.143773D+00  0.210309D+00
      7  0.271848D-02  0.887848D-02  0.332925D-01 -0.285848D+00  0.632473D-01
      8  0.405863D-03  0.125485D-01  0.280651D-02  0.556667D-01 -0.952295D-01
      9  0.171151D-02  0.262289D-02  0.215325D-01  0.212339D+00 -0.116800D+00
     10  0.000000D+00 -0.399533D-04  0.107186D-04 -0.760156D-02 -0.133499D-02
     11 -0.399096D-04  0.681015D-02 -0.182702D-02  0.704590D-02  0.450257D-02
     12  0.107071D-04 -0.182705D-02  0.490159D-03  0.265068D-01  0.370720D-02
     13 -0.151899D+00  0.232181D-01  0.887550D-01  0.227506D-02  0.740187D-02
     14  0.222321D-01 -0.700228D-01 -0.649731D-01  0.189247D-03  0.144423D-01
     15  0.850866D-01 -0.649992D-01 -0.296927D+00  0.973426D-03 -0.504849D-03
     16 -0.184388D+00 -0.297881D-01 -0.108208D+00 -0.207961D-02 -0.693893D-02
     17 -0.287722D-01 -0.722180D-01 -0.562752D-01  0.243717D-03  0.170004D-01
     18 -0.104411D+00 -0.562483D-01 -0.264302D+00  0.132579D-02  0.166311D-04
     19 -0.230818D-02 -0.767988D-02 -0.282404D-01 -0.188615D+00 -0.355605D-01
     20  0.229955D-03  0.152509D-01  0.203553D-04 -0.357981D-01 -0.899827D-01
     21  0.124008D-02  0.191593D-03  0.159310D-01 -0.130826D+00 -0.743693D-01
                6             7             8             9            10 
      6  0.986309D+00
      7  0.240594D+00  0.668956D+00
      8 -0.116633D+00 -0.324380D-01  0.846813D-01
      9 -0.504269D+00 -0.134507D+00  0.140554D+00  0.574006D+00
     10 -0.473293D-02 -0.410677D+00 -0.278084D-01 -0.950666D-01  0.418278D+00
     11  0.352379D-02 -0.361895D-01 -0.231711D-01 -0.184397D-01  0.291372D-01
     12  0.167545D-01 -0.126306D+00 -0.186231D-01 -0.846654D-01  0.998012D-01
     13  0.278675D-01  0.000000D+00 -0.447309D-04  0.120004D-04  0.000000D+00
     14 -0.347895D-03 -0.447767D-04  0.764067D-02 -0.204983D-02  0.000000D+00
     15  0.126317D-01  0.120092D-04 -0.204924D-02  0.549768D-03  0.000000D+00
     16 -0.254401D-01  0.000000D+00  0.448748D-04 -0.120390D-04  0.000000D+00
     17 -0.139769D-03  0.448434D-04 -0.765204D-02  0.205288D-02  0.000000D+00
     18  0.170683D-01 -0.120329D-04  0.205329D-02 -0.550853D-03  0.000000D+00
     19 -0.129942D+00  0.248506D-01  0.417370D-02  0.155231D-01  0.000000D+00
     20 -0.743652D-01 -0.349835D-02  0.211822D-01 -0.794026D-02  0.462088D-04
     21 -0.344150D+00 -0.130734D-01 -0.810855D-02 -0.660326D-02 -0.123974D-04
               11            12            13            14            15 
     11  0.197348D-01
     12  0.146298D-01  0.679877D-01
     13  0.000000D+00  0.000000D+00  0.120347D+00
     14  0.000000D+00  0.000000D+00 -0.258292D-01  0.469624D-01
     15  0.000000D+00  0.000000D+00 -0.983283D-01  0.699484D-01  0.291298D+00
     16  0.000000D+00  0.000000D+00  0.292766D-01  0.340314D-02  0.122695D-01
     17  0.000000D+00  0.000000D+00 -0.479540D-02  0.941143D-02 -0.465711D-02
     18  0.000000D+00  0.000000D+00 -0.182930D-01 -0.484049D-02 -0.694563D-02
     19  0.463037D-04 -0.124225D-04  0.000000D+00  0.494397D-04 -0.132598D-04
     20 -0.787642D-02  0.211311D-02  0.493749D-04 -0.843392D-02  0.226199D-02
     21  0.211317D-02 -0.566929D-03 -0.132473D-04  0.226283D-02 -0.606894D-03
               16            17            18            19            20 
     16  0.157191D+00
     17  0.333285D-01  0.450118D-01
     18  0.121377D+00  0.612854D-01  0.254122D+00
     19  0.000000D+00 -0.495133D-04  0.132860D-04  0.166072D+00
     20 -0.495337D-04  0.844647D-02 -0.226646D-02  0.390205D-01  0.614135D-01
     21  0.132899D-04 -0.226619D-02  0.608092D-03  0.142672D+00  0.801764D-01
               21 
     21  0.335388D+00
 Leave Link  716 at Tue Jan  3 09:07:35 2023, MaxMem=   536870912 cpu:               0.1 elap:               0.1
 (Enter /opt/software/gaussian/g16.c01/l103.exe)

 GradGradGradGradGradGradGradGradGradGradGradGradGradGradGradGradGradGrad
 Berny optimization.
 Search for a local minimum.
 Step number   1 out of a maximum of    2
 All quantities printed in internal units (Hartrees-Bohrs-Radians)
 Second derivative matrix not updated -- first step.
 ITU=  0
     Eigenvalues ---    0.02409   0.03062   0.03370   0.05977   0.08903
     Eigenvalues ---    0.11483   0.14278   0.19866   0.30111   0.35087
     Eigenvalues ---    0.61127   0.81664   1.00827   1.49337   1.92763
 Angle between quadratic step and forces=  48.80 degrees.
 Linear search not attempted -- first point.
 B after Tr=     0.000436   -0.000429   -0.001589
         Rot=    1.000000   -0.000001    0.000039   -0.000011 Ang=  -0.00 deg.
 Variable       Old X    -DE/DX   Delta X   Delta X   Delta X     New X
                                 (Linear)    (Quad)   (Total)
    X1        2.02695  -0.00698   0.00000  -0.00482  -0.00436   2.02259
    Y1       -0.13266   0.00020   0.00000   0.00046   0.00007  -0.13259
    Z1       -0.28915   0.00091   0.00000   0.00184   0.00041  -0.28874
    X2        4.49366  -0.00061   0.00000  -0.00205  -0.00158   4.49209
    Y2       -0.16959   0.00156   0.00000  -0.00040  -0.00073  -0.17033
    Z2       -0.48072   0.00581   0.00000  -0.00145  -0.00269  -0.48341
    X3        5.82670   0.00451   0.00000   0.00839   0.00903   5.83573
    Y3       -0.69631  -0.00137   0.00000  -0.00145  -0.00175  -0.69806
    Z3       -2.47314  -0.00519   0.00000  -0.00561  -0.00674  -2.47988
    X4        7.67994  -0.00103   0.00000   0.00232   0.00292   7.68286
    Y4       -0.55307   0.00004   0.00000   0.00214   0.00188  -0.55118
    Z4       -1.97975   0.00016   0.00000   0.00792   0.00694  -1.97281
    X5        1.20935   0.00226   0.00000   0.00492   0.00523   1.21459
    Y5        0.34989  -0.00155   0.00000  -0.00349  -0.00390   0.34599
    Z5        1.52789  -0.00583   0.00000  -0.01323  -0.01473   1.51317
    X6        0.91282   0.00280   0.00000  -0.00503  -0.00443   0.90839
    Y6       -0.58578   0.00146   0.00000   0.00593   0.00553  -0.58025
    Z6       -1.95346   0.00539   0.00000   0.02224   0.02072  -1.93274
    X7        5.41879  -0.00095   0.00000  -0.00715  -0.00682   5.41197
    Y7        0.27567  -0.00034   0.00000  -0.00079  -0.00110   0.27457
    Z7        1.15865  -0.00124   0.00000  -0.00274  -0.00390   1.15475
         Item               Value     Threshold  Converged?
 Maximum Force            0.006979     0.000450     NO 
 RMS     Force            0.003233     0.000300     NO 
 Maximum Displacement     0.020718     0.001800     NO 
 RMS     Displacement     0.006974     0.001200     NO 
 Predicted change in Energy=-1.570493D-04
 GradGradGradGradGradGradGradGradGradGradGradGradGradGradGradGradGradGrad

 Leave Link  103 at Tue Jan  3 09:07:35 2023, MaxMem=   536870912 cpu:               0.2 elap:               0.2
 (Enter /opt/software/gaussian/g16.c01/l9999.exe)
 Unable to Open any file for archive entry.
 1\1\GINC-GRA704\Force\UB3LYP\Gen\C1H4N2\BHAVUK\03-Jan-2023\0\\#p ub3ly
 p/chkbasis force guess=read geom=check scf=(maxcycle=900,verytightline
 q,xqc) integral=grid=ultrafine symmetry=None density=current pop=(cm5,
 hlygat,mbs,npa) output=wfx\\0001_q000_m01_k00_opt_uwb97xd_def2svpd/000
 1_q000_m01_k00_force_ub3lyp_def2tzvpd stable-force\\0,1\C,1.0726168695
 ,-0.0701991232,-0.153012633\N,2.3779437514,-0.0897456927,-0.2543854931
 \N,3.0833554789,-0.3684697824,-1.3087287982\H,4.0640493508,-0.29266974
 34,-1.0476368317\H,0.6399628731,0.1851542916,0.8085260928\H,0.48304383
 64,-0.3099796861,-1.0337247999\H,2.8674978397,0.1458797364,0.613132466
 6\\Version=ES64L-G16RevC.01\HF=-149.9953323\S2=0.\S2-1=0.\S2A=0.\RMSD=
 3.154e-10\RMSF=3.233e-03\Dipole=0.0954162,0.3091177,1.150277\Quadrupol
 e=3.7229381,-1.3828106,-2.3401275,1.7104918,6.2900391,-0.3231158\PG=Un
 known\\@
 The archive entry for this job was punched.

 Writing a WFNX file to "0001_q000_m01_k00_force_ub3lyp_def2tzvpd.wfx"


 THOSE WHO TRY TO PASS CHEMISTRY OFF AS A NEW SCIENCE
 SHOW HOW LITTLE KNOWLEDGE THEY HAVE OF THE CHARACTER
 AND LITERATURE OF THE ANCIENTS.
   -- NICOLAS LEFEVRE
 "COURS DE CHYMIE" J.-N.LELOUP, PARIS, 1751
 Job cpu time:       0 days  0 hours  0 minutes 34.9 seconds.
 Elapsed time:       0 days  0 hours  0 minutes 19.9 seconds.
 File lengths (MBytes):  RWF=     20 Int=      0 D2E=      0 Chk=      4 Scr=      1
 Normal termination of Gaussian 16 at Tue Jan  3 09:07:35 2023.
