 Entering Gaussian System, Link 0=g16
 Input=0002_q000_m01_k00_force_ub3lyp_def2qzvpd.com
 Output=0002_q000_m01_k00_force_ub3lyp_def2qzvpd.log
 Initial command:
 /opt/software/gaussian/g16.c01/l1.exe "/localscratch/bhavuk.2151353.0/Gau-17371.inp" -scrdir="/localscratch/bhavuk.2151353.0/"
 Entering Link 1 = /opt/software/gaussian/g16.c01/l1.exe PID=     17372.
  
 Copyright (c) 1988-2019, Gaussian, Inc.  All Rights Reserved.
  
 This is part of the Gaussian(R) 16 program.  It is based on
 the Gaussian(R) 09 system (copyright 2009, Gaussian, Inc.),
 the Gaussian(R) 03 system (copyright 2003, Gaussian, Inc.),
 the Gaussian(R) 98 system (copyright 1998, Gaussian, Inc.),
 the Gaussian(R) 94 system (copyright 1995, Gaussian, Inc.),
 the Gaussian 92(TM) system (copyright 1992, Gaussian, Inc.),
 the Gaussian 90(TM) system (copyright 1990, Gaussian, Inc.),
 the Gaussian 88(TM) system (copyright 1988, Gaussian, Inc.),
 the Gaussian 86(TM) system (copyright 1986, Carnegie Mellon
 University), and the Gaussian 82(TM) system (copyright 1983,
 Carnegie Mellon University). Gaussian is a federally registered
 trademark of Gaussian, Inc.
  
 This software contains proprietary and confidential information,
 including trade secrets, belonging to Gaussian, Inc.
  
 This software is provided under written license and may be
 used, copied, transmitted, or stored only in accord with that
 written license.
  
 The following legend is applicable only to US Government
 contracts under FAR:
  
                    RESTRICTED RIGHTS LEGEND
  
 Use, reproduction and disclosure by the US Government is
 subject to restrictions as set forth in subparagraphs (a)
 and (c) of the Commercial Computer Software - Restricted
 Rights clause in FAR 52.227-19.
  
 Gaussian, Inc.
 340 Quinnipiac St., Bldg. 40, Wallingford CT 06492
  
  
 ---------------------------------------------------------------
 Warning -- This program may not be used in any manner that
 competes with the business of Gaussian, Inc. or will provide
 assistance to any competitor of Gaussian, Inc.  The licensee
 of this program is prohibited from giving any competitor of
 Gaussian, Inc. access to this program.  By using this program,
 the user acknowledges that Gaussian, Inc. is engaged in the
 business of creating and licensing software in the field of
 computational chemistry and represents and warrants to the
 licensee that it is not a competitor of Gaussian, Inc. and that
 it will not use this program in any manner prohibited above.
 ---------------------------------------------------------------
  

 Cite this work as:
 Gaussian 16, Revision C.01,
 M. J. Frisch, G. W. Trucks, H. B. Schlegel, G. E. Scuseria, 
 M. A. Robb, J. R. Cheeseman, G. Scalmani, V. Barone, 
 G. A. Petersson, H. Nakatsuji, X. Li, M. Caricato, A. V. Marenich, 
 J. Bloino, B. G. Janesko, R. Gomperts, B. Mennucci, H. P. Hratchian, 
 J. V. Ortiz, A. F. Izmaylov, J. L. Sonnenberg, D. Williams-Young, 
 F. Ding, F. Lipparini, F. Egidi, J. Goings, B. Peng, A. Petrone, 
 T. Henderson, D. Ranasinghe, V. G. Zakrzewski, J. Gao, N. Rega, 
 G. Zheng, W. Liang, M. Hada, M. Ehara, K. Toyota, R. Fukuda, 
 J. Hasegawa, M. Ishida, T. Nakajima, Y. Honda, O. Kitao, H. Nakai, 
 T. Vreven, K. Throssell, J. A. Montgomery, Jr., J. E. Peralta, 
 F. Ogliaro, M. J. Bearpark, J. J. Heyd, E. N. Brothers, K. N. Kudin, 
 V. N. Staroverov, T. A. Keith, R. Kobayashi, J. Normand, 
 K. Raghavachari, A. P. Rendell, J. C. Burant, S. S. Iyengar, 
 J. Tomasi, M. Cossi, J. M. Millam, M. Klene, C. Adamo, R. Cammi, 
 J. W. Ochterski, R. L. Martin, K. Morokuma, O. Farkas, 
 J. B. Foresman, and D. J. Fox, Gaussian, Inc., Wallingford CT, 2019.
 
 ******************************************
 Gaussian 16:  ES64L-G16RevC.01  3-Jul-2019
                 3-Jan-2023 
 ******************************************
 %chk=0002_q000_m01_k00_force_ub3lyp_def2qzvpd.chk
 %nprocshared=2
 Will use up to    2 processors via shared memory.
 %mem=4GB
 ----------------------------------------------------------------------
 #p ub3lyp/gen stable=opt scf=(maxcycle=900,verytightlineq,xqc) integra
 l=grid=ultrafine symmetry=None density=current iop(99/18=-1) output=wf
 n
 ----------------------------------------------------------------------
 1/38=1,172=1/1;
 2/12=2,15=3,17=6,18=5,40=1/2;
 3/5=7,11=2,25=1,30=1,74=-5,75=-5,116=2/1,2,3;
 4//1;
 5/5=2,7=900,8=3,13=1,17=3,38=5/2,8;
 6/7=2,8=2,9=2,10=2,22=-1,28=1/1;
 8/6=1,10=90,11=11/1;
 9/8=-3,42=1,46=1/14;
 5/5=2,7=900,8=3,17=43,38=5/8(-2);
 6/7=2,8=2,9=2,10=2,22=-1,28=1/1;
 99/5=1,6=100,9=1,18=-1/99;
 Leave Link    1 at Tue Jan  3 09:04:08 2023, MaxMem=   536870912 cpu:               0.2 elap:               0.1
 (Enter /opt/software/gaussian/g16.c01/l101.exe)
 ----------------------------------------------------------------------
 0002_q000_m01_k00_opt_uwb97xd_def2svpd/0002_q000_m01_k00_force_ub3lyp_
 def2qzvpd stable-force
 ----------------------------------------------------------------------
 Symbolic Z-matrix:
 Charge =  0 Multiplicity = 1
 C                     0.93414  -0.05061   0.05339 
 N                     2.23036  -0.06073   0.09715 
 H                     2.71043   0.14456  -0.79294 
 O                     2.9769   -0.2864    1.07559 
 H                     0.46025   0.16918  -0.89982 
 H                     0.38334  -0.26134   0.96696 
 
 ITRead=  0  0  0  0  0  0
 MicOpt= -1 -1 -1 -1 -1 -1
 NAtoms=      6 NQM=        6 NQMF=       0 NMMI=      0 NMMIF=      0
                NMic=       0 NMicF=      0.
                    Isotopes and Nuclear Properties:
 (Nuclear quadrupole moments (NQMom) in fm**2, nuclear magnetic moments (NMagM)
  in nuclear magnetons)

  Atom         1           2           3           4           5           6
 IAtWgt=          12          14           1          16           1           1
 AtmWgt=  12.0000000  14.0030740   1.0078250  15.9949146   1.0078250   1.0078250
 NucSpn=           0           2           1           0           1           1
 AtZEff=  -0.0000000  -0.0000000  -0.0000000  -0.0000000  -0.0000000  -0.0000000
 NQMom=    0.0000000   2.0440000   0.0000000   0.0000000   0.0000000   0.0000000
 NMagM=    0.0000000   0.4037610   2.7928460   0.0000000   2.7928460   2.7928460
 AtZNuc=   6.0000000   7.0000000   1.0000000   8.0000000   1.0000000   1.0000000
 Leave Link  101 at Tue Jan  3 09:04:08 2023, MaxMem=   536870912 cpu:               0.5 elap:               0.3
 (Enter /opt/software/gaussian/g16.c01/l202.exe)
                          Input orientation:                          
 ---------------------------------------------------------------------
 Center     Atomic      Atomic             Coordinates (Angstroms)
 Number     Number       Type             X           Y           Z
 ---------------------------------------------------------------------
      1          6           0        0.934136   -0.050610    0.053392
      2          7           0        2.230356   -0.060728    0.097153
      3          1           0        2.710430    0.144555   -0.792940
      4          8           0        2.976899   -0.286398    1.075595
      5          1           0        0.460247    0.169182   -0.899820
      6          1           0        0.383342   -0.261341    0.966961
 ---------------------------------------------------------------------
                    Distance matrix (angstroms):
                    1          2          3          4          5
     1  C    0.000000
     2  N    1.296998   0.000000
     3  H    1.977268   1.031929   0.000000
     4  O    2.296383   1.251239   1.936013   0.000000
     5  H    1.086964   2.044529   2.252854   3.231617   0.000000
     6  H    1.087378   2.051408   2.945733   2.595952   1.917325
                    6
     6  H    0.000000
 Symmetry turned off by external request.
 Stoichiometry    CH3NO
 Rotational constants (GHZ):          75.8819039          11.9122881          10.2959784
 Leave Link  202 at Tue Jan  3 09:04:08 2023, MaxMem=   536870912 cpu:               0.0 elap:               0.0
 (Enter /opt/software/gaussian/g16.c01/l301.exe)
 General basis read from cards:  (5D, 7F)
 Centers:       3      5      6
 S 4 1.00
     Exponent=  1.9069169000D+02 Coefficients=  7.0815167000D-04
     Exponent=  2.8605532000D+01 Coefficients=  5.4678827000D-03
     Exponent=  6.5095943000D+00 Coefficients=  2.7966605000D-02
     Exponent=  1.8412455000D+00 Coefficients=  1.0764538000D-01
 S 1 1.00
     Exponent=  5.9853725000D-01 Coefficients=  1.0000000000D+00
 S 1 1.00
     Exponent=  2.1397624000D-01 Coefficients=  1.0000000000D+00
 S 1 1.00
     Exponent=  8.0316286000D-02 Coefficients=  1.0000000000D+00
 P 1 1.00
     Exponent=  2.2920000000D+00 Coefficients=  1.0000000000D+00
 P 1 1.00
     Exponent=  8.3800000000D-01 Coefficients=  1.0000000000D+00
 P 1 1.00
     Exponent=  2.9200000000D-01 Coefficients=  1.0000000000D+00
 P 1 1.00
     Exponent=  8.4063199228D-02 Coefficients=  1.0000000000D+00
 D 1 1.00
     Exponent=  2.0620000000D+00 Coefficients=  1.0000000000D+00
 D 1 1.00
     Exponent=  6.6200000000D-01 Coefficients=  1.0000000000D+00
 F 1 1.00
     Exponent=  1.3970000000D+00 Coefficients=  1.0000000000D+00
 ****
 Centers:       1
 S 8 1.00
     Exponent=  6.7025071029D+04 Coefficients=  3.8736308501D-05
     Exponent=  1.0039986538D+04 Coefficients=  3.0107917575D-04
     Exponent=  2.2849316911D+03 Coefficients=  1.5787918095D-03
     Exponent=  6.4714122130D+02 Coefficients=  6.6087087195D-03
     Exponent=  2.1109472335D+02 Coefficients=  2.3367123250D-02
     Exponent=  7.6177643862D+01 Coefficients=  7.0420716898D-02
     Exponent=  2.9633839163D+01 Coefficients=  1.7360344953D-01
     Exponent=  1.2187785081D+01 Coefficients=  3.2292305648D-01
 S 2 1.00
     Exponent=  5.3026006299D+01 Coefficients=  7.4897404492D-02
     Exponent=  1.5258502776D+01 Coefficients=  7.6136220983D-01
 S 1 1.00
     Exponent=  5.2403957464D+00 Coefficients=  1.0000000000D+00
 S 1 1.00
     Exponent=  2.2905022379D+00 Coefficients=  1.0000000000D+00
 S 1 1.00
     Exponent=  6.9673283006D-01 Coefficients=  1.0000000000D+00
 S 1 1.00
     Exponent=  2.7599337363D-01 Coefficients=  1.0000000000D+00
 S 1 1.00
     Exponent=  1.0739884389D-01 Coefficients=  1.0000000000D+00
 S 1 1.00
     Exponent=  4.4981404899D-02 Coefficients=  1.0000000000D+00
 P 5 1.00
     Exponent=  1.0512555082D+02 Coefficients=  8.4647553844D-04
     Exponent=  2.4884461066D+01 Coefficients=  6.6274038534D-03
     Exponent=  7.8637230826D+00 Coefficients=  3.0120390419D-02
     Exponent=  2.8407001835D+00 Coefficients=  9.9951435476D-02
     Exponent=  1.1227137335D+00 Coefficients=  2.3826299282D-01
 P 1 1.00
     Exponent=  4.6050725555D-01 Coefficients=  1.0000000000D+00
 P 1 1.00
     Exponent=  1.8937530913D-01 Coefficients=  1.0000000000D+00
 P 1 1.00
     Exponent=  7.5983791611D-02 Coefficients=  1.0000000000D+00
 D 1 1.00
     Exponent=  1.8480000000D+00 Coefficients=  1.0000000000D+00
 D 1 1.00
     Exponent=  6.4900000000D-01 Coefficients=  1.0000000000D+00
 D 1 1.00
     Exponent=  2.2800000000D-01 Coefficients=  1.0000000000D+00
 D 1 1.00
     Exponent=  7.6889830417D-02 Coefficients=  1.0000000000D+00
 F 1 1.00
     Exponent=  1.4190000000D+00 Coefficients=  1.0000000000D+00
 F 1 1.00
     Exponent=  4.8500000000D-01 Coefficients=  1.0000000000D+00
 G 1 1.00
     Exponent=  1.0110000000D+00 Coefficients=  1.0000000000D+00
 ****
 Centers:       2
 S 8 1.00
     Exponent=  9.0726889210D+04 Coefficients=  3.9257887368D-05
     Exponent=  1.3590528801D+04 Coefficients=  3.0513316455D-04
     Exponent=  3.0929883781D+03 Coefficients=  1.6000560446D-03
     Exponent=  8.7599876362D+02 Coefficients=  6.6982937306D-03
     Exponent=  2.8574469982D+02 Coefficients=  2.3690078765D-02
     Exponent=  1.0311913417D+02 Coefficients=  7.1455405268D-02
     Exponent=  4.0128556777D+01 Coefficients=  1.7632774876D-01
     Exponent=  1.6528095704D+01 Coefficients=  3.2677592815D-01
 S 2 1.00
     Exponent=  6.9390960983D+01 Coefficients=  8.0052094386D-02
     Exponent=  2.0428200596D+01 Coefficients=  7.8268063538D-01
 S 1 1.00
     Exponent=  7.1292587972D+00 Coefficients=  1.0000000000D+00
 S 1 1.00
     Exponent=  3.1324304893D+00 Coefficients=  1.0000000000D+00
 S 1 1.00
     Exponent=  9.8755778723D-01 Coefficients=  1.0000000000D+00
 S 1 1.00
     Exponent=  3.8765721307D-01 Coefficients=  1.0000000000D+00
 S 1 1.00
     Exponent=  1.4909883075D-01 Coefficients=  1.0000000000D+00
 S 1 1.00
     Exponent=  6.2151630318D-02 Coefficients=  1.0000000000D+00
 P 5 1.00
     Exponent=  1.5005742670D+02 Coefficients= -8.6216165986D-04
     Exponent=  3.5491599483D+01 Coefficients= -6.8571273236D-03
     Exponent=  1.1247864223D+01 Coefficients= -3.1795688855D-02
     Exponent=  4.0900305195D+00 Coefficients= -1.0537396822D-01
     Exponent=  1.6220573146D+00 Coefficients= -2.4519708041D-01
 P 1 1.00
     Exponent=  6.6442261530D-01 Coefficients=  1.0000000000D+00
 P 1 1.00
     Exponent=  2.7099770070D-01 Coefficients=  1.0000000000D+00
 P 1 1.00
     Exponent=  1.0688749984D-01 Coefficients=  1.0000000000D+00
 D 1 1.00
     Exponent=  2.8370000000D+00 Coefficients=  1.0000000000D+00
 D 1 1.00
     Exponent=  9.6800000000D-01 Coefficients=  1.0000000000D+00
 D 1 1.00
     Exponent=  3.3500000000D-01 Coefficients=  1.0000000000D+00
 D 1 1.00
     Exponent=  1.0825280010D-01 Coefficients=  1.0000000000D+00
 F 1 1.00
     Exponent=  2.0270000000D+00 Coefficients=  1.0000000000D+00
 F 1 1.00
     Exponent=  6.8500000000D-01 Coefficients=  1.0000000000D+00
 G 1 1.00
     Exponent=  1.4270000000D+00 Coefficients=  1.0000000000D+00
 ****
 Centers:       4
 S 8 1.00
     Exponent=  1.1650646908D+05 Coefficients=  4.0383857939D-05
     Exponent=  1.7504349724D+04 Coefficients=  3.1255139004D-04
     Exponent=  3.9934513230D+03 Coefficients=  1.6341473495D-03
     Exponent=  1.1330063186D+03 Coefficients=  6.8283224757D-03
     Exponent=  3.6999569594D+02 Coefficients=  2.4124410221D-02
     Exponent=  1.3362074349D+02 Coefficients=  7.2730206154D-02
     Exponent=  5.2035643649D+01 Coefficients=  1.7934429892D-01
     Exponent=  2.1461939313D+01 Coefficients=  3.3059588895D-01
 S 2 1.00
     Exponent=  8.9835051252D+01 Coefficients=  9.6468652996D-02
     Exponent=  2.6428010844D+01 Coefficients=  9.4117481120D-01
 S 1 1.00
     Exponent=  9.2822824649D+00 Coefficients=  1.0000000000D+00
 S 1 1.00
     Exponent=  4.0947728533D+00 Coefficients=  1.0000000000D+00
 S 1 1.00
     Exponent=  1.3255349078D+00 Coefficients=  1.0000000000D+00
 S 1 1.00
     Exponent=  5.1877230787D-01 Coefficients=  1.0000000000D+00
 S 1 1.00
     Exponent=  1.9772676454D-01 Coefficients=  1.0000000000D+00
 S 1 1.00
     Exponent=  6.9638535104D-02 Coefficients=  1.0000000000D+00
 P 5 1.00
     Exponent=  1.9115255810D+02 Coefficients=  2.5115697705D-03
     Exponent=  4.5233356739D+01 Coefficients=  2.0039240864D-02
     Exponent=  1.4353465922D+01 Coefficients=  9.3609064762D-02
     Exponent=  5.2422371832D+00 Coefficients=  3.0618127124D-01
     Exponent=  2.0792418599D+00 Coefficients=  6.7810501439D-01
 P 1 1.00
     Exponent=  8.4282371424D-01 Coefficients=  1.0000000000D+00
 P 1 1.00
     Exponent=  3.3617694891D-01 Coefficients=  1.0000000000D+00
 P 1 1.00
     Exponent=  1.2863997974D-01 Coefficients=  1.0000000000D+00
 P 1 1.00
     Exponent=  4.3598162776D-02 Coefficients=  1.0000000000D+00
 D 1 1.00
     Exponent=  3.7750000000D+00 Coefficients=  1.0000000000D+00
 D 1 1.00
     Exponent=  1.3000000000D+00 Coefficients=  1.0000000000D+00
 D 1 1.00
     Exponent=  4.4400000000D-01 Coefficients=  1.0000000000D+00
 D 1 1.00
     Exponent=  1.2546378695D-01 Coefficients=  1.0000000000D+00
 F 1 1.00
     Exponent=  2.6660000000D+00 Coefficients=  1.0000000000D+00
 F 1 1.00
     Exponent=  8.5900000000D-01 Coefficients=  1.0000000000D+00
 G 1 1.00
     Exponent=  1.8460000000D+00 Coefficients=  1.0000000000D+00
 ****
 Ernie: Thresh=  0.10000D-02 Tol=  0.10000D-05 Strict=F.
   291 basis functions,   423 primitive gaussians,   354 cartesian basis functions
    12 alpha electrons       12 beta electrons
       nuclear repulsion energy        72.3526514420 Hartrees.
 IExCor=  402 DFT=T Ex+Corr=B3LYP ExCW=0 ScaHFX=  0.200000
 ScaDFX=  0.800000  0.720000  1.000000  0.810000 ScalE2=  1.000000  1.000000
 IRadAn=      5 IRanWt=     -1 IRanGd=            0 ICorTp=0 IEmpDi=  4
 NAtoms=    6 NActive=    6 NUniq=    6 SFac= 1.00D+00 NAtFMM=   60 NAOKFM=F Big=F
 Integral buffers will be    131072 words long.
 Raffenetti 2 integral format.
 Two-electron integral symmetry is turned off.
 Leave Link  301 at Tue Jan  3 09:04:08 2023, MaxMem=   536870912 cpu:               0.2 elap:               0.1
 (Enter /opt/software/gaussian/g16.c01/l302.exe)
 NPDir=0 NMtPBC=     1 NCelOv=     1 NCel=       1 NClECP=     1 NCelD=      1
         NCelK=      1 NCelE2=     1 NClLst=     1 CellRange=     0.0.
 One-electron integrals computed using PRISM.
 NBasis=   291 RedAO= T EigKep=  4.75D-06  NBF=   291
 NBsUse=   291 1.00D-06 EigRej= -1.00D+00 NBFU=   291
 Precomputing XC quadrature grid using
 IXCGrd= 4 IRadAn=           5 IRanWt=          -1 IRanGd=           0 AccXCQ= 0.00D+00.
 Generated NRdTot=       0 NPtTot=           0 NUsed=           0 NTot=          32
 NSgBfM=   354   354   354   354   354 MxSgAt=     6 MxSgA2=     6.
 Leave Link  302 at Tue Jan  3 09:04:09 2023, MaxMem=   536870912 cpu:               0.6 elap:               0.3
 (Enter /opt/software/gaussian/g16.c01/l303.exe)
 DipDrv:  MaxL=1.
 Leave Link  303 at Tue Jan  3 09:04:09 2023, MaxMem=   536870912 cpu:               0.1 elap:               0.1
 (Enter /opt/software/gaussian/g16.c01/l401.exe)
 ExpMin= 4.36D-02 ExpMax= 1.17D+05 ExpMxC= 1.13D+03 IAcc=3 IRadAn=         5 AccDes= 0.00D+00
 Harris functional with IExCor=  402 and IRadAn=       5 diagonalized for initial guess.
 HarFok:  IExCor=  402 AccDes= 0.00D+00 IRadAn=         5 IDoV= 1 UseB2=F ITyADJ=14
 ICtDFT=  3500011 ScaDFX=  1.000000  1.000000  1.000000  1.000000
 FoFCou: FMM=F IPFlag=           0 FMFlag=      100000 FMFlg1=           0
         NFxFlg=           0 DoJE=T BraDBF=F KetDBF=T FulRan=T
         wScrn=  0.000000 ICntrl=       500 IOpCl=  0 I1Cent=   200000004 NGrid=           0
         NMat0=    1 NMatS0=      1 NMatT0=    0 NMatD0=    1 NMtDS0=    0 NMtDT0=    0
 Symmetry not used in FoFCou.
 Harris En= -169.911030548291    
 JPrj=0 DoOrth=F DoCkMO=F.
 Initial guess <Sx>= 0.0000 <Sy>= 0.0000 <Sz>= 0.0000 <S**2>=-0.0000 S=-0.0000
 Leave Link  401 at Tue Jan  3 09:04:11 2023, MaxMem=   536870912 cpu:               3.7 elap:               1.9
 (Enter /opt/software/gaussian/g16.c01/l502.exe)
 Two-electron integral symmetry not used.
 UHF open shell SCF:
 Using DIIS extrapolation, IDIIS=  1040.
 NGot=   536870912 LenX=   536615908 LenY=   536490151
 Requested convergence on RMS density matrix=1.00D-08 within 128 cycles.
 Requested convergence on MAX density matrix=1.00D-06.
 Requested convergence on             energy=1.00D-06.
 No special actions if energy rises.
 Fock matrices will be formed incrementally for  20 cycles.

 Cycle   1  Pass 1  IDiag  1:
 FoFJK:  IHMeth= 1 ICntrl=       0 DoSepK=F KAlg= 0 I1Cent=           0 FoldK=F
 IRaf= 990000000 NMat=       1 IRICut=       1 DoRegI=T DoRafI=F ISym2E= 0 IDoP0=0 IntGTp=1.
 FoFCou: FMM=F IPFlag=           0 FMFlag=      100000 FMFlg1=           0
         NFxFlg=           0 DoJE=F BraDBF=F KetDBF=F FulRan=T
         wScrn=  0.000000 ICntrl=         0 IOpCl=  1 I1Cent=           0 NGrid=           0
         NMat0=    1 NMatS0=      1 NMatT0=    0 NMatD0=    1 NMtDS0=    0 NMtDT0=    0
 Symmetry not used in FoFCou.
 E= -169.792368615598    
 DIIS: error= 2.07D-02 at cycle   1 NSaved=   1.
 NSaved= 1 IEnMin= 1 EnMin= -169.792368615598     IErMin= 1 ErrMin= 2.07D-02
 ErrMax= 2.07D-02  0.00D+00 EMaxC= 1.00D-01 BMatC= 5.59D-01 BMatP= 5.59D-01
 IDIUse=3 WtCom= 7.93D-01 WtEn= 2.07D-01
 Coeff-Com:  0.100D+01
 Coeff-En:   0.100D+01
 Coeff:      0.100D+01
 Gap=     0.139 Goal=   None    Shift=    0.000
 Gap=     0.139 Goal=   None    Shift=    0.000
 GapD=    0.139 DampG=1.000 DampE=0.500 DampFc=0.5000 IDamp=-1.
 Damping current iteration by 5.00D-01
 RMSDP=3.00D-03 MaxDP=2.26D-01              OVMax= 2.96D-01

 Cycle   2  Pass 1  IDiag  1:
 RMSU=  1.50D-03    CP:  9.79D-01
 E= -169.788090327445     Delta-E=        0.004278288153 Rises=F Damp=T
 DIIS: error= 1.48D-02 at cycle   2 NSaved=   2.
 NSaved= 2 IEnMin= 1 EnMin= -169.792368615598     IErMin= 2 ErrMin= 1.48D-02
 ErrMax= 1.48D-02  0.00D+00 EMaxC= 1.00D-01 BMatC= 1.84D-01 BMatP= 5.59D-01
 IDIUse=3 WtCom= 8.52D-01 WtEn= 1.48D-01
 Coeff-Com:  0.313D+00 0.687D+00
 Coeff-En:   0.517D+00 0.483D+00
 Coeff:      0.343D+00 0.657D+00
 Gap=     0.268 Goal=   None    Shift=    0.000
 Gap=     0.268 Goal=   None    Shift=    0.000
 RMSDP=1.22D-03 MaxDP=1.09D-01 DE= 4.28D-03 OVMax= 2.96D-01

 Cycle   3  Pass 1  IDiag  1:
 RMSU=  6.22D-04    CP:  9.75D-01  2.98D-01
 E= -169.848210226764     Delta-E=       -0.060119899319 Rises=F Damp=F
 DIIS: error= 1.56D-02 at cycle   3 NSaved=   3.
 NSaved= 3 IEnMin= 3 EnMin= -169.848210226764     IErMin= 2 ErrMin= 1.48D-02
 ErrMax= 1.56D-02  0.00D+00 EMaxC= 1.00D-01 BMatC= 1.67D-01 BMatP= 1.84D-01
 IDIUse=3 WtCom= 8.44D-01 WtEn= 1.56D-01
 EnCoef did     1 forward-backward iterations
 Coeff-Com:  0.106D+00 0.467D+00 0.427D+00
 Coeff-En:   0.322D-01 0.184D+00 0.784D+00
 Coeff:      0.947D-01 0.423D+00 0.482D+00
 Gap=     0.192 Goal=   None    Shift=    0.000
 Gap=     0.192 Goal=   None    Shift=    0.000
 RMSDP=5.49D-04 MaxDP=2.32D-02 DE=-6.01D-02 OVMax= 1.80D-01

 Cycle   4  Pass 1  IDiag  1:
 RMSU=  4.12D-04    CP:  9.73D-01  4.26D-01  5.03D-01
 E= -169.876592962014     Delta-E=       -0.028382735250 Rises=F Damp=F
 DIIS: error= 9.56D-03 at cycle   4 NSaved=   4.
 NSaved= 4 IEnMin= 4 EnMin= -169.876592962014     IErMin= 4 ErrMin= 9.56D-03
 ErrMax= 9.56D-03  0.00D+00 EMaxC= 1.00D-01 BMatC= 5.20D-02 BMatP= 1.67D-01
 IDIUse=3 WtCom= 9.04D-01 WtEn= 9.56D-02
 Coeff-Com:  0.363D-02 0.136D+00 0.360D+00 0.500D+00
 Coeff-En:   0.000D+00 0.000D+00 0.288D+00 0.712D+00
 Coeff:      0.329D-02 0.123D+00 0.353D+00 0.521D+00
 Gap=     0.197 Goal=   None    Shift=    0.000
 Gap=     0.197 Goal=   None    Shift=    0.000
 RMSDP=2.33D-04 MaxDP=9.29D-03 DE=-2.84D-02 OVMax= 6.96D-02

 Cycle   5  Pass 1  IDiag  1:
 RMSU=  7.75D-05    CP:  9.76D-01  3.52D-01  6.85D-01  6.33D-01
 E= -169.888066994912     Delta-E=       -0.011474032898 Rises=F Damp=F
 DIIS: error= 2.34D-03 at cycle   5 NSaved=   5.
 NSaved= 5 IEnMin= 5 EnMin= -169.888066994912     IErMin= 5 ErrMin= 2.34D-03
 ErrMax= 2.34D-03  0.00D+00 EMaxC= 1.00D-01 BMatC= 2.35D-03 BMatP= 5.20D-02
 IDIUse=3 WtCom= 9.77D-01 WtEn= 2.34D-02
 Coeff-Com: -0.106D-01 0.201D-01 0.144D+00 0.285D+00 0.561D+00
 Coeff-En:   0.000D+00 0.000D+00 0.000D+00 0.000D+00 0.100D+01
 Coeff:     -0.103D-01 0.197D-01 0.140D+00 0.279D+00 0.572D+00
 Gap=     0.199 Goal=   None    Shift=    0.000
 Gap=     0.199 Goal=   None    Shift=    0.000
 RMSDP=5.44D-05 MaxDP=2.05D-03 DE=-1.15D-02 OVMax= 9.42D-03

 Cycle   6  Pass 1  IDiag  1:
 RMSU=  2.35D-05    CP:  9.74D-01  3.73D-01  6.82D-01  6.77D-01  5.97D-01
 E= -169.888535931126     Delta-E=       -0.000468936214 Rises=F Damp=F
 DIIS: error= 5.52D-04 at cycle   6 NSaved=   6.
 NSaved= 6 IEnMin= 6 EnMin= -169.888535931126     IErMin= 6 ErrMin= 5.52D-04
 ErrMax= 5.52D-04  0.00D+00 EMaxC= 1.00D-01 BMatC= 1.26D-04 BMatP= 2.35D-03
 IDIUse=3 WtCom= 9.94D-01 WtEn= 5.52D-03
 Coeff-Com: -0.384D-02 0.939D-03 0.258D-01 0.535D-01 0.242D+00 0.682D+00
 Coeff-En:   0.000D+00 0.000D+00 0.000D+00 0.000D+00 0.000D+00 0.100D+01
 Coeff:     -0.382D-02 0.934D-03 0.256D-01 0.532D-01 0.241D+00 0.684D+00
 Gap=     0.200 Goal=   None    Shift=    0.000
 Gap=     0.200 Goal=   None    Shift=    0.000
 RMSDP=1.43D-05 MaxDP=6.13D-04 DE=-4.69D-04 OVMax= 1.52D-03

 Cycle   7  Pass 1  IDiag  1:
 RMSU=  6.14D-06    CP:  9.75D-01  3.67D-01  6.84D-01  6.72D-01  6.82D-01
                    CP:  7.74D-01
 E= -169.888561712066     Delta-E=       -0.000025780939 Rises=F Damp=F
 DIIS: error= 3.44D-05 at cycle   7 NSaved=   7.
 NSaved= 7 IEnMin= 7 EnMin= -169.888561712066     IErMin= 7 ErrMin= 3.44D-05
 ErrMax= 3.44D-05  0.00D+00 EMaxC= 1.00D-01 BMatC= 9.56D-07 BMatP= 1.26D-04
 IDIUse=1 WtCom= 1.00D+00 WtEn= 0.00D+00
 Coeff-Com: -0.212D-03-0.700D-04-0.440D-03-0.271D-02 0.255D-01 0.112D+00
 Coeff-Com:  0.866D+00
 Coeff:     -0.212D-03-0.700D-04-0.440D-03-0.271D-02 0.255D-01 0.112D+00
 Coeff:      0.866D+00
 Gap=     0.200 Goal=   None    Shift=    0.000
 Gap=     0.200 Goal=   None    Shift=    0.000
 RMSDP=2.04D-06 MaxDP=9.53D-05 DE=-2.58D-05 OVMax= 2.61D-04

 Cycle   8  Pass 1  IDiag  1:
 RMSU=  1.13D-06    CP:  9.75D-01  3.66D-01  6.85D-01  6.70D-01  6.92D-01
                    CP:  7.91D-01  1.03D+00
 E= -169.888561915735     Delta-E=       -0.000000203669 Rises=F Damp=F
 DIIS: error= 7.40D-06 at cycle   8 NSaved=   8.
 NSaved= 8 IEnMin= 8 EnMin= -169.888561915735     IErMin= 8 ErrMin= 7.40D-06
 ErrMax= 7.40D-06  0.00D+00 EMaxC= 1.00D-01 BMatC= 4.21D-08 BMatP= 9.56D-07
 IDIUse=1 WtCom= 1.00D+00 WtEn= 0.00D+00
 Coeff-Com: -0.192D-04 0.807D-04-0.703D-03-0.154D-02 0.275D-03 0.952D-02
 Coeff-Com:  0.196D+00 0.797D+00
 Coeff:     -0.192D-04 0.807D-04-0.703D-03-0.154D-02 0.275D-03 0.952D-02
 Coeff:      0.196D+00 0.797D+00
 Gap=     0.200 Goal=   None    Shift=    0.000
 Gap=     0.200 Goal=   None    Shift=    0.000
 RMSDP=2.93D-07 MaxDP=1.06D-05 DE=-2.04D-07 OVMax= 4.66D-05

 Cycle   9  Pass 1  IDiag  1:
 RMSU=  1.59D-07    CP:  9.75D-01  3.66D-01  6.85D-01  6.70D-01  6.92D-01
                    CP:  7.94D-01  1.05D+00  9.34D-01
 E= -169.888561925853     Delta-E=       -0.000000010119 Rises=F Damp=F
 DIIS: error= 1.78D-06 at cycle   9 NSaved=   9.
 NSaved= 9 IEnMin= 9 EnMin= -169.888561925853     IErMin= 9 ErrMin= 1.78D-06
 ErrMax= 1.78D-06  0.00D+00 EMaxC= 1.00D-01 BMatC= 2.43D-09 BMatP= 4.21D-08
 IDIUse=1 WtCom= 1.00D+00 WtEn= 0.00D+00
 Coeff-Com: -0.206D-04 0.505D-04-0.125D-03-0.116D-03-0.856D-03-0.281D-02
 Coeff-Com: -0.665D-02 0.128D+00 0.883D+00
 Coeff:     -0.206D-04 0.505D-04-0.125D-03-0.116D-03-0.856D-03-0.281D-02
 Coeff:     -0.665D-02 0.128D+00 0.883D+00
 Gap=     0.200 Goal=   None    Shift=    0.000
 Gap=     0.200 Goal=   None    Shift=    0.000
 RMSDP=8.48D-08 MaxDP=3.33D-06 DE=-1.01D-08 OVMax= 9.43D-06

 Cycle  10  Pass 1  IDiag  1:
 RMSU=  4.14D-08    CP:  9.75D-01  3.66D-01  6.85D-01  6.70D-01  6.93D-01
                    CP:  7.94D-01  1.06D+00  9.76D-01  9.95D-01
 E= -169.888561926394     Delta-E=       -0.000000000540 Rises=F Damp=F
 DIIS: error= 1.08D-07 at cycle  10 NSaved=  10.
 NSaved=10 IEnMin=10 EnMin= -169.888561926394     IErMin=10 ErrMin= 1.08D-07
 ErrMax= 1.08D-07  0.00D+00 EMaxC= 1.00D-01 BMatC= 1.27D-11 BMatP= 2.43D-09
 IDIUse=1 WtCom= 1.00D+00 WtEn= 0.00D+00
 Coeff-Com: -0.316D-05 0.509D-05-0.817D-06 0.156D-04-0.981D-04-0.528D-03
 Coeff-Com: -0.557D-02-0.421D-02 0.933D-01 0.917D+00
 Coeff:     -0.316D-05 0.509D-05-0.817D-06 0.156D-04-0.981D-04-0.528D-03
 Coeff:     -0.557D-02-0.421D-02 0.933D-01 0.917D+00
 Gap=     0.200 Goal=   None    Shift=    0.000
 Gap=     0.200 Goal=   None    Shift=    0.000
 RMSDP=1.63D-08 MaxDP=8.55D-07 DE=-5.40D-10 OVMax= 9.85D-07

 Cycle  11  Pass 1  IDiag  1:
 RMSU=  4.45D-09    CP:  9.75D-01  3.66D-01  6.85D-01  6.70D-01  6.93D-01
                    CP:  7.94D-01  1.06D+00  9.81D-01  1.02D+00  1.05D+00
 E= -169.888561926396     Delta-E=       -0.000000000003 Rises=F Damp=F
 DIIS: error= 3.96D-08 at cycle  11 NSaved=  11.
 NSaved=11 IEnMin=11 EnMin= -169.888561926396     IErMin=11 ErrMin= 3.96D-08
 ErrMax= 3.96D-08  0.00D+00 EMaxC= 1.00D-01 BMatC= 7.64D-13 BMatP= 1.27D-11
 IDIUse=1 WtCom= 1.00D+00 WtEn= 0.00D+00
 Coeff-Com: -0.273D-06 0.260D-06 0.149D-05 0.563D-05-0.636D-05-0.606D-04
 Coeff-Com: -0.108D-02-0.355D-02 0.115D-02 0.206D+00 0.798D+00
 Coeff:     -0.273D-06 0.260D-06 0.149D-05 0.563D-05-0.636D-05-0.606D-04
 Coeff:     -0.108D-02-0.355D-02 0.115D-02 0.206D+00 0.798D+00
 Gap=     0.200 Goal=   None    Shift=    0.000
 Gap=     0.200 Goal=   None    Shift=    0.000
 RMSDP=1.62D-09 MaxDP=5.64D-08 DE=-2.73D-12 OVMax= 3.38D-07

 SCF Done:  E(UB3LYP) =  -169.888561926     A.U. after   11 cycles
            NFock= 11  Conv=0.16D-08     -V/T= 2.0045
 <Sx>= 0.0000 <Sy>= 0.0000 <Sz>= 0.0000 <S**2>=-0.0000 S=-0.0000
 <L.S>=  0.00000000000    
 KE= 1.691262728931D+02 PE=-5.428849690143D+02 EE= 1.315174827529D+02
 Annihilation of the first spin contaminant:
 S**2 before annihilation    -0.0000,   after    -0.0000
 Leave Link  502 at Tue Jan  3 09:08:23 2023, MaxMem=   536870912 cpu:             504.6 elap:             252.4
 (Enter /opt/software/gaussian/g16.c01/l508.exe)
 QCSCF skips out because SCF is already converged.
 Leave Link  508 at Tue Jan  3 09:08:23 2023, MaxMem=   536870912 cpu:               0.0 elap:               0.0
 (Enter /opt/software/gaussian/g16.c01/l601.exe)
 Copying SCF densities to generalized density rwf, IOpCl= 1 IROHF=0.

 **********************************************************************

            Population analysis using the SCF Density.

 **********************************************************************

 Alpha  occ. eigenvalues --  -19.11936 -14.47330 -10.22695  -1.12782  -0.87363
 Alpha  occ. eigenvalues --   -0.67260  -0.55975  -0.49590  -0.46682  -0.43216
 Alpha  occ. eigenvalues --   -0.27215  -0.24820
 Alpha virt. eigenvalues --   -0.04853  -0.01332   0.01479   0.04678   0.06422
 Alpha virt. eigenvalues --    0.06947   0.07986   0.09158   0.10981   0.13039
 Alpha virt. eigenvalues --    0.13244   0.15296   0.16628   0.18783   0.19044
 Alpha virt. eigenvalues --    0.21448   0.21477   0.22149   0.23650   0.25229
 Alpha virt. eigenvalues --    0.25995   0.26368   0.27751   0.30368   0.30905
 Alpha virt. eigenvalues --    0.30988   0.32716   0.34753   0.35358   0.37608
 Alpha virt. eigenvalues --    0.38796   0.38866   0.39020   0.41258   0.41561
 Alpha virt. eigenvalues --    0.46536   0.47604   0.48595   0.50492   0.51630
 Alpha virt. eigenvalues --    0.52055   0.53781   0.57036   0.58679   0.60692
 Alpha virt. eigenvalues --    0.61296   0.64045   0.65337   0.69432   0.70470
 Alpha virt. eigenvalues --    0.74239   0.77760   0.79600   0.82385   0.86029
 Alpha virt. eigenvalues --    0.86954   0.87506   0.90485   0.91541   0.95052
 Alpha virt. eigenvalues --    0.95701   0.98821   1.04835   1.09036   1.09233
 Alpha virt. eigenvalues --    1.09901   1.19041   1.19814   1.23759   1.25376
 Alpha virt. eigenvalues --    1.28723   1.32019   1.35063   1.38718   1.42446
 Alpha virt. eigenvalues --    1.44062   1.49233   1.50913   1.56882   1.57487
 Alpha virt. eigenvalues --    1.63524   1.70002   1.76089   1.80359   1.81827
 Alpha virt. eigenvalues --    1.85390   1.87205   1.87633   1.93406   1.93459
 Alpha virt. eigenvalues --    1.96363   2.02461   2.06252   2.13157   2.15912
 Alpha virt. eigenvalues --    2.19072   2.20630   2.22336   2.30111   2.33861
 Alpha virt. eigenvalues --    2.41521   2.42455   2.45518   2.47166   2.52754
 Alpha virt. eigenvalues --    2.53348   2.55212   2.62465   2.65649   2.65832
 Alpha virt. eigenvalues --    2.70925   2.73138   2.79271   2.82362   2.85195
 Alpha virt. eigenvalues --    2.91509   2.92310   2.93389   2.98031   3.00307
 Alpha virt. eigenvalues --    3.08334   3.11925   3.13552   3.16004   3.29210
 Alpha virt. eigenvalues --    3.31359   3.33361   3.37764   3.38618   3.45730
 Alpha virt. eigenvalues --    3.50439   3.57509   3.62018   3.62540   3.68189
 Alpha virt. eigenvalues --    3.76103   3.79797   3.80729   3.95565   4.04273
 Alpha virt. eigenvalues --    4.04707   4.10976   4.16941   4.17977   4.18356
 Alpha virt. eigenvalues --    4.28153   4.29108   4.32359   4.58236   4.71801
 Alpha virt. eigenvalues --    4.82357   4.84593   4.88949   4.91458   5.11942
 Alpha virt. eigenvalues --    5.14899   5.21431   5.28284   5.29597   5.42361
 Alpha virt. eigenvalues --    5.44086   5.47058   5.49962   5.54300   5.58706
 Alpha virt. eigenvalues --    5.59481   5.75742   5.81853   5.86689   5.91797
 Alpha virt. eigenvalues --    5.99058   6.00840   6.03671   6.16713   6.17034
 Alpha virt. eigenvalues --    6.21803   6.33430   6.36990   6.38961   6.48145
 Alpha virt. eigenvalues --    6.57988   6.58654   6.65228   6.73959   6.75442
 Alpha virt. eigenvalues --    6.79266   6.86467   6.98756   7.08078   7.18451
 Alpha virt. eigenvalues --    7.21157   7.31470   7.33543   7.39644   7.41467
 Alpha virt. eigenvalues --    7.48422   7.50465   7.51067   7.54023   7.61712
 Alpha virt. eigenvalues --    7.63769   7.67525   7.69619   7.78311   7.90295
 Alpha virt. eigenvalues --    7.91039   7.91864   8.01280   8.04959   8.07333
 Alpha virt. eigenvalues --    8.11611   8.15433   8.17890   8.23788   8.25824
 Alpha virt. eigenvalues --    8.28103   8.29193   8.35380   8.45469   8.52712
 Alpha virt. eigenvalues --    8.57567   8.63912   8.67955   8.71593   8.77248
 Alpha virt. eigenvalues --    8.83724   8.90055   8.90206   8.93855   8.95863
 Alpha virt. eigenvalues --    9.03714   9.08384   9.13661   9.18001   9.18810
 Alpha virt. eigenvalues --    9.33371   9.42670   9.54495   9.60330   9.68484
 Alpha virt. eigenvalues --    9.77822   9.87804   9.91156  10.06162  10.07176
 Alpha virt. eigenvalues --   10.41572  10.42839  10.61426  10.72297  10.90075
 Alpha virt. eigenvalues --   10.94016  10.98857  11.02488  11.03071  11.30891
 Alpha virt. eigenvalues --   11.37958  11.38124  11.50769  11.64796  11.79330
 Alpha virt. eigenvalues --   11.86261  12.00803  12.04805  12.13623  12.17001
 Alpha virt. eigenvalues --   12.31375  12.35041  13.06222  13.12658  13.48669
 Alpha virt. eigenvalues --   14.14532  14.73287  14.82061  28.70484  37.93534
 Alpha virt. eigenvalues --   48.16326 147.72146 197.24282 253.19039
  Beta  occ. eigenvalues --  -19.11936 -14.47330 -10.22695  -1.12782  -0.87363
  Beta  occ. eigenvalues --   -0.67260  -0.55975  -0.49590  -0.46682  -0.43216
  Beta  occ. eigenvalues --   -0.27215  -0.24820
  Beta virt. eigenvalues --   -0.04853  -0.01332   0.01479   0.04678   0.06422
  Beta virt. eigenvalues --    0.06947   0.07986   0.09158   0.10981   0.13039
  Beta virt. eigenvalues --    0.13244   0.15296   0.16628   0.18783   0.19044
  Beta virt. eigenvalues --    0.21448   0.21477   0.22149   0.23650   0.25229
  Beta virt. eigenvalues --    0.25995   0.26368   0.27751   0.30368   0.30905
  Beta virt. eigenvalues --    0.30988   0.32716   0.34753   0.35358   0.37608
  Beta virt. eigenvalues --    0.38796   0.38866   0.39020   0.41258   0.41561
  Beta virt. eigenvalues --    0.46536   0.47604   0.48595   0.50492   0.51630
  Beta virt. eigenvalues --    0.52055   0.53781   0.57036   0.58679   0.60692
  Beta virt. eigenvalues --    0.61296   0.64045   0.65337   0.69432   0.70470
  Beta virt. eigenvalues --    0.74239   0.77760   0.79600   0.82385   0.86029
  Beta virt. eigenvalues --    0.86954   0.87506   0.90485   0.91541   0.95052
  Beta virt. eigenvalues --    0.95701   0.98821   1.04835   1.09036   1.09233
  Beta virt. eigenvalues --    1.09901   1.19041   1.19814   1.23759   1.25376
  Beta virt. eigenvalues --    1.28723   1.32019   1.35063   1.38718   1.42446
  Beta virt. eigenvalues --    1.44062   1.49233   1.50913   1.56882   1.57487
  Beta virt. eigenvalues --    1.63524   1.70002   1.76089   1.80359   1.81827
  Beta virt. eigenvalues --    1.85390   1.87205   1.87633   1.93406   1.93459
  Beta virt. eigenvalues --    1.96363   2.02461   2.06252   2.13157   2.15912
  Beta virt. eigenvalues --    2.19072   2.20630   2.22336   2.30111   2.33861
  Beta virt. eigenvalues --    2.41521   2.42455   2.45518   2.47166   2.52754
  Beta virt. eigenvalues --    2.53348   2.55212   2.62465   2.65649   2.65832
  Beta virt. eigenvalues --    2.70925   2.73138   2.79271   2.82362   2.85195
  Beta virt. eigenvalues --    2.91509   2.92310   2.93389   2.98031   3.00307
  Beta virt. eigenvalues --    3.08334   3.11925   3.13552   3.16004   3.29210
  Beta virt. eigenvalues --    3.31359   3.33361   3.37764   3.38618   3.45730
  Beta virt. eigenvalues --    3.50439   3.57509   3.62018   3.62540   3.68189
  Beta virt. eigenvalues --    3.76103   3.79797   3.80729   3.95565   4.04273
  Beta virt. eigenvalues --    4.04707   4.10976   4.16941   4.17977   4.18356
  Beta virt. eigenvalues --    4.28153   4.29108   4.32359   4.58236   4.71801
  Beta virt. eigenvalues --    4.82357   4.84593   4.88949   4.91458   5.11942
  Beta virt. eigenvalues --    5.14899   5.21431   5.28284   5.29597   5.42361
  Beta virt. eigenvalues --    5.44086   5.47058   5.49962   5.54300   5.58706
  Beta virt. eigenvalues --    5.59481   5.75742   5.81853   5.86689   5.91797
  Beta virt. eigenvalues --    5.99058   6.00840   6.03671   6.16713   6.17034
  Beta virt. eigenvalues --    6.21803   6.33430   6.36990   6.38961   6.48145
  Beta virt. eigenvalues --    6.57988   6.58654   6.65228   6.73959   6.75442
  Beta virt. eigenvalues --    6.79266   6.86467   6.98756   7.08078   7.18451
  Beta virt. eigenvalues --    7.21157   7.31470   7.33543   7.39644   7.41467
  Beta virt. eigenvalues --    7.48422   7.50465   7.51067   7.54023   7.61712
  Beta virt. eigenvalues --    7.63769   7.67525   7.69619   7.78311   7.90295
  Beta virt. eigenvalues --    7.91039   7.91864   8.01280   8.04959   8.07333
  Beta virt. eigenvalues --    8.11611   8.15433   8.17890   8.23788   8.25824
  Beta virt. eigenvalues --    8.28103   8.29193   8.35380   8.45469   8.52712
  Beta virt. eigenvalues --    8.57567   8.63912   8.67955   8.71593   8.77248
  Beta virt. eigenvalues --    8.83724   8.90055   8.90206   8.93855   8.95863
  Beta virt. eigenvalues --    9.03714   9.08384   9.13661   9.18001   9.18810
  Beta virt. eigenvalues --    9.33371   9.42670   9.54495   9.60330   9.68484
  Beta virt. eigenvalues --    9.77822   9.87804   9.91156  10.06162  10.07176
  Beta virt. eigenvalues --   10.41572  10.42839  10.61426  10.72297  10.90075
  Beta virt. eigenvalues --   10.94016  10.98857  11.02488  11.03071  11.30891
  Beta virt. eigenvalues --   11.37958  11.38124  11.50769  11.64796  11.79330
  Beta virt. eigenvalues --   11.86261  12.00803  12.04805  12.13623  12.17001
  Beta virt. eigenvalues --   12.31375  12.35041  13.06222  13.12658  13.48669
  Beta virt. eigenvalues --   14.14532  14.73287  14.82061  28.70484  37.93534
  Beta virt. eigenvalues --   48.16326 147.72146 197.24282 253.19039
          Condensed to atoms (all electrons):
               1          2          3          4          5          6
     1  C    4.934411   0.412973  -0.001726  -0.096039   0.404627   0.447150
     2  N    0.412973   6.014276   0.332467   0.235116  -0.013490  -0.066840
     3  H   -0.001726   0.332467   0.500750  -0.048546  -0.017276   0.004189
     4  O   -0.096039   0.235116  -0.048546   8.348994  -0.005513   0.032556
     5  H    0.404627  -0.013490  -0.017276  -0.005513   0.529701  -0.030585
     6  H    0.447150  -0.066840   0.004189   0.032556  -0.030585   0.493740
          Atomic-Atomic Spin Densities.
               1          2          3          4          5          6
     1  C   -0.000000  -0.000000   0.000000   0.000000  -0.000000   0.000000
     2  N   -0.000000   0.000000  -0.000000  -0.000000   0.000000  -0.000000
     3  H    0.000000  -0.000000   0.000000  -0.000000  -0.000000   0.000000
     4  O    0.000000  -0.000000  -0.000000   0.000000   0.000000  -0.000000
     5  H   -0.000000   0.000000  -0.000000   0.000000   0.000000  -0.000000
     6  H    0.000000  -0.000000   0.000000  -0.000000  -0.000000   0.000000
 Mulliken charges and spin densities:
               1          2
     1  C   -0.101397  -0.000000
     2  N    0.085499  -0.000000
     3  H    0.230142   0.000000
     4  O   -0.466568   0.000000
     5  H    0.132535  -0.000000
     6  H    0.119790   0.000000
 Sum of Mulliken charges =  -0.00000  -0.00000
 Mulliken charges and spin densities with hydrogens summed into heavy atoms:
               1          2
     1  C    0.150928  -0.000000
     2  N    0.315640  -0.000000
     4  O   -0.466568   0.000000
 Electronic spatial extent (au):  <R**2>=            516.7385
 Charge=             -0.0000 electrons
 Dipole moment (field-independent basis, Debye):
    X=             -2.0426    Y=              0.6500    Z=             -2.8185  Tot=              3.5410
 Quadrupole moment (field-independent basis, Debye-Ang):
   XX=            -26.4238   YY=            -19.3107   ZZ=            -19.1894
   XY=              2.1734   XZ=             -9.0843   YZ=              0.0907
 Traceless Quadrupole moment (field-independent basis, Debye-Ang):
   XX=             -4.7825   YY=              2.3306   ZZ=              2.4519
   XY=              2.1734   XZ=             -9.0843   YZ=              0.0907
 Octapole moment (field-independent basis, Debye-Ang**2):
  XXX=           -137.3102  YYY=              6.7344  ZZZ=            -23.4656  XYY=            -37.1743
  XXY=              8.8875  XXZ=            -34.1446  XZZ=            -41.1924  YZZ=              3.1690
  YYZ=             -6.6772  XYZ=              1.3668
 Hexadecapole moment (field-independent basis, Debye-Ang**3):
 XXXX=           -641.0304 YYYY=            -23.2544 ZZZZ=            -70.8682 XXXY=             37.3559
 XXXZ=           -139.1541 YYYX=             17.4652 YYYZ=              6.7247 ZZZX=            -66.6835
 ZZZY=              6.7505 XXYY=            -95.5956 XXZZ=           -115.8906 YYZZ=            -15.8134
 XXYZ=              6.4088 YYXZ=            -19.5244 ZZXY=              8.2390
 N-N= 7.235265144198D+01 E-N=-5.428849677489D+02  KE= 1.691262728931D+02
                          Isotropic Fermi Contact Couplings
        Atom                 a.u.       MegaHertz       Gauss      10(-4) cm-1
     1  C(13)             -0.00000      -0.00000      -0.00000      -0.00000
     2  N(14)              0.00000       0.00000       0.00000       0.00000
     3  H(1)              -0.00000      -0.00000      -0.00000      -0.00000
     4  O(17)             -0.00000       0.00000       0.00000       0.00000
     5  H(1)               0.00000       0.00000       0.00000       0.00000
     6  H(1)              -0.00000      -0.00000      -0.00000      -0.00000
 --------------------------------------------------------
       Center         ----  Spin Dipole Couplings  ----
                      3XX-RR        3YY-RR        3ZZ-RR
 --------------------------------------------------------
     1   Atom       -0.000000      0.000000      0.000000
     2   Atom       -0.000000      0.000000     -0.000000
     3   Atom       -0.000000      0.000000     -0.000000
     4   Atom       -0.000000     -0.000000      0.000000
     5   Atom        0.000000     -0.000000     -0.000000
     6   Atom        0.000000     -0.000000     -0.000000
 --------------------------------------------------------
                        XY            XZ            YZ
 --------------------------------------------------------
     1   Atom        0.000000     -0.000000      0.000000
     2   Atom       -0.000000      0.000000      0.000000
     3   Atom       -0.000000      0.000000      0.000000
     4   Atom       -0.000000      0.000000     -0.000000
     5   Atom       -0.000000      0.000000      0.000000
     6   Atom        0.000000     -0.000000     -0.000000
 --------------------------------------------------------


 ---------------------------------------------------------------------------------
              Anisotropic Spin Dipole Couplings in Principal Axis System
 ---------------------------------------------------------------------------------

       Atom             a.u.   MegaHertz   Gauss  10(-4) cm-1        Axes

              Baa    -0.0000    -0.000    -0.000    -0.000  0.9899 -0.0092  0.1413
     1 C(13)  Bbb     0.0000     0.000     0.000     0.000  0.0146  0.9992 -0.0373
              Bcc     0.0000     0.000     0.000     0.000 -0.1408  0.0390  0.9893
 
              Baa    -0.0000    -0.000    -0.000    -0.000 -0.4264 -0.5056  0.7500
     2 N(14)  Bbb    -0.0000    -0.000    -0.000    -0.000  0.9000 -0.3198  0.2961
              Bcc     0.0000     0.000     0.000     0.000  0.0901  0.8013  0.5914
 
              Baa    -0.0000    -0.000    -0.000    -0.000 -0.6453 -0.2039  0.7362
     3 H(1)   Bbb     0.0000     0.000     0.000     0.000 -0.4595  0.8735 -0.1609
              Bcc     0.0000     0.000     0.000     0.000  0.6103  0.4421  0.6574
 
              Baa    -0.0000     0.000     0.000     0.000  0.5938  0.7953  0.1223
     4 O(17)  Bbb    -0.0000     0.000     0.000     0.000  0.7623 -0.5075 -0.4017
              Bcc     0.0000    -0.000    -0.000    -0.000  0.2574 -0.3318  0.9076
 
              Baa    -0.0000    -0.000    -0.000    -0.000 -0.4866 -0.1680  0.8574
     5 H(1)   Bbb    -0.0000    -0.000    -0.000    -0.000  0.0587  0.9728  0.2239
              Bcc     0.0000     0.000     0.000     0.000  0.8717 -0.1593  0.4635
 
              Baa    -0.0000    -0.000    -0.000    -0.000  0.5853 -0.1227  0.8015
     6 H(1)   Bbb    -0.0000    -0.000    -0.000    -0.000 -0.0799  0.9749  0.2076
              Bcc     0.0000     0.000     0.000     0.000  0.8069  0.1856 -0.5608
 

 ---------------------------------------------------------------------------------

 No NMR shielding tensors so no spin-rotation constants.
 Leave Link  601 at Tue Jan  3 09:08:24 2023, MaxMem=   536870912 cpu:               0.9 elap:               0.5
 (Enter /opt/software/gaussian/g16.c01/l801.exe)
 DoSCS=F DFT=T ScalE2(SS,OS)=  1.000000  1.000000
 Range of M.O.s used for correlation:     1   291
 NBasis=   291 NAE=    12 NBE=    12 NFC=     0 NFV=     0
 NROrb=    291 NOA=    12 NOB=    12 NVA=   279 NVB=   279

 **** Warning!!: The largest alpha MO coefficient is  0.10193776D+03


 **** Warning!!: The largest beta MO coefficient is  0.10193776D+03

 Leave Link  801 at Tue Jan  3 09:08:24 2023, MaxMem=   536870912 cpu:               0.1 elap:               0.1
 (Enter /opt/software/gaussian/g16.c01/l914.exe)
 UHF ground state
 Doing stability rather than CIS.
 Two-electron integral symmetry not used.
 MDV=   536870912 DFT=T DoStab=T Mixed=T DoRPA=F DoScal=F NonHer=F
 Making orbital integer symmetry assigments:
    12 initial guesses have been made.
 Convergence on wavefunction:    0.001000000000000
 Davidson Disk Diagonalization:  ConvIn= 1.00D-03 SkipCon=T Conv= 1.00D-03.
 Max sub-space:  2000 roots to seek:    12 dimension of matrix:         6696
 Iteration     1 Dimension    12 NMult     0 NNew     12
 CISAX will form    12 AO SS matrices at one time.
 NMat=    12 NSing=    12 JSym2X= 0.
 FoFJK:  IHMeth= 1 ICntrl=       0 DoSepK=F KAlg= 0 I1Cent=           0 FoldK=F
 IRaf= 990000000 NMat=      12 IRICut=      30 DoRegI=T DoRafI=T ISym2E= 0 IDoP0=3 IntGTp=3.
 FoFCou: FMM=F IPFlag=           0 FMFlag=      100000 FMFlg1=           0
         NFxFlg=           0 DoJE=F BraDBF=F KetDBF=F FulRan=T
         wScrn=  0.000000 ICntrl=         0 IOpCl=  1 I1Cent=           0 NGrid=           0
         NMat0=   12 NMatS0=     12 NMatT0=    0 NMatD0=   12 NMtDS0=    0 NMtDT0=    0
 Symmetry not used in FoFCou.
 Raff kept on since  98.85% of shell-pairs survive, threshold=   0.20 IRatSp=99.
 Excitation Energies [eV] at current iteration:
 Root      1 :     1.833510061440028
 Root      2 :     3.886172029376085
 Root      3 :     4.600557956197130
 Root      4 :     5.295232431549633
 Root      5 :     5.366084114239160
 Root      6 :     5.844560785513382
 Root      7 :     6.163007064958761
 Root      8 :     6.240850906204438
 Root      9 :     6.250705362478469
 Root     10 :     6.923906542288235
 Root     11 :     7.024462026367035
 Root     12 :    13.710543546987614
 Iteration     2 Dimension    24 NMult    12 NNew     12
 CISAX will form    12 AO SS matrices at one time.
 NMat=    12 NSing=    12 JSym2X= 0.
 Root      1 not converged, maximum delta is    0.093353104702871
 Excitation Energies [eV] at current iteration:
 Root      1 :     1.315051307365921   Change is   -0.518458754074107
 Root      2 :     3.665030990359208   Change is   -0.221141039016877
 Root      3 :     4.547735578257480   Change is   -0.052822377939650
 Root      4 :     5.214912918404498   Change is   -0.080319513145134
 Root      5 :     5.344472124375148   Change is   -0.021611989864012
 Root      6 :     5.669787799008865   Change is   -0.174772986504517
 Root      7 :     6.050532446740024   Change is   -0.190318459464413
 Root      8 :     6.069142136655428   Change is   -0.093864928303334
 Root      9 :     6.224694120159369   Change is   -0.026011242319099
 Root     10 :     6.828763775996318   Change is   -0.095142766291917
 Root     11 :     6.922939168836879   Change is   -0.101522857530155
 Root     12 :     9.149200215168493
 Iteration     3 Dimension    27 NMult    24 NNew      3
 CISAX will form     3 AO SS matrices at one time.
 NMat=     3 NSing=     3 JSym2X= 0.
 Root      1 not converged, maximum delta is    0.012085957637878
 Excitation Energies [eV] at current iteration:
 Root      1 :     1.304895237876797   Change is   -0.010156069489124
 Root      2 :     3.662498699434405   Change is   -0.002532290924803
 Root      3 :     4.545339510697750   Change is   -0.002396067559730
 Iteration     4 Dimension    30 NMult    27 NNew      3
 CISAX will form     3 AO SS matrices at one time.
 NMat=     3 NSing=     3 JSym2X= 0.
 Root      1 not converged, maximum delta is    0.003857444084940
 Excitation Energies [eV] at current iteration:
 Root      1 :     1.304355067203693   Change is   -0.000540170673104
 Root      2 :     3.662467154197533   Change is   -0.000031545236873
 Root      3 :     4.545179890331563   Change is   -0.000159620366187
 Iteration     5 Dimension    33 NMult    30 NNew      3
 CISAX will form     3 AO SS matrices at one time.
 NMat=     3 NSing=     3 JSym2X= 0.
 Root      1 has converged.
 Excitation Energies [eV] at current iteration:
 Root      1 :     1.304340568282017   Change is   -0.000014498921677
 Root      2 :     3.662466307334026   Change is   -0.000000846863507
 Root      3 :     4.545173183061169   Change is   -0.000006707270394
 Convergence achieved on expansion vectors.
 ***********************************************************************
 Stability analysis using <AA,BB:AA,BB> singles matrix:
 ***********************************************************************
 1PDM for each excited state written to RWF  633
 Ground to excited state transition densities written to RWF  633

 Eigenvectors of the stability matrix:
 
 Excited state symmetry could not be determined.
 Eigenvector   1:  3.000-?Sym  Eigenvalue= 0.0479336  <S**2>=2.000
     12A -> 13A        0.68707
     12B -> 13B       -0.68707
 The wavefunction is stable under the perturbations considered.
 Leave Link  914 at Tue Jan  3 09:19:27 2023, MaxMem=   536870912 cpu:            1326.1 elap:             663.3
 (Enter /opt/software/gaussian/g16.c01/l508.exe)
 The wavefunction is already stable.
 Leave Link  508 at Tue Jan  3 09:19:27 2023, MaxMem=   536870912 cpu:               0.0 elap:               0.0
 (Enter /opt/software/gaussian/g16.c01/l601.exe)
 Copying SCF densities to generalized density rwf, IOpCl= 1 IROHF=0.

 **********************************************************************

            Population analysis using the SCF Density.

 **********************************************************************

 Alpha  occ. eigenvalues --  -19.11936 -14.47330 -10.22695  -1.12782  -0.87363
 Alpha  occ. eigenvalues --   -0.67260  -0.55975  -0.49590  -0.46682  -0.43216
 Alpha  occ. eigenvalues --   -0.27215  -0.24820
 Alpha virt. eigenvalues --   -0.04853  -0.01332   0.01479   0.04678   0.06422
 Alpha virt. eigenvalues --    0.06947   0.07986   0.09158   0.10981   0.13039
 Alpha virt. eigenvalues --    0.13244   0.15296   0.16628   0.18783   0.19044
 Alpha virt. eigenvalues --    0.21448   0.21477   0.22149   0.23650   0.25229
 Alpha virt. eigenvalues --    0.25995   0.26368   0.27751   0.30368   0.30905
 Alpha virt. eigenvalues --    0.30988   0.32716   0.34753   0.35358   0.37608
 Alpha virt. eigenvalues --    0.38796   0.38866   0.39020   0.41258   0.41561
 Alpha virt. eigenvalues --    0.46536   0.47604   0.48595   0.50492   0.51630
 Alpha virt. eigenvalues --    0.52055   0.53781   0.57036   0.58679   0.60692
 Alpha virt. eigenvalues --    0.61296   0.64045   0.65337   0.69432   0.70470
 Alpha virt. eigenvalues --    0.74239   0.77760   0.79600   0.82385   0.86029
 Alpha virt. eigenvalues --    0.86954   0.87506   0.90485   0.91541   0.95052
 Alpha virt. eigenvalues --    0.95701   0.98821   1.04835   1.09036   1.09233
 Alpha virt. eigenvalues --    1.09901   1.19041   1.19814   1.23759   1.25376
 Alpha virt. eigenvalues --    1.28723   1.32019   1.35063   1.38718   1.42446
 Alpha virt. eigenvalues --    1.44062   1.49233   1.50913   1.56882   1.57487
 Alpha virt. eigenvalues --    1.63524   1.70002   1.76089   1.80359   1.81827
 Alpha virt. eigenvalues --    1.85390   1.87205   1.87633   1.93406   1.93459
 Alpha virt. eigenvalues --    1.96363   2.02461   2.06252   2.13157   2.15912
 Alpha virt. eigenvalues --    2.19072   2.20630   2.22336   2.30111   2.33861
 Alpha virt. eigenvalues --    2.41521   2.42455   2.45518   2.47166   2.52754
 Alpha virt. eigenvalues --    2.53348   2.55212   2.62465   2.65649   2.65832
 Alpha virt. eigenvalues --    2.70925   2.73138   2.79271   2.82362   2.85195
 Alpha virt. eigenvalues --    2.91509   2.92310   2.93389   2.98031   3.00307
 Alpha virt. eigenvalues --    3.08334   3.11925   3.13552   3.16004   3.29210
 Alpha virt. eigenvalues --    3.31359   3.33361   3.37764   3.38618   3.45730
 Alpha virt. eigenvalues --    3.50439   3.57509   3.62018   3.62540   3.68189
 Alpha virt. eigenvalues --    3.76103   3.79797   3.80729   3.95565   4.04273
 Alpha virt. eigenvalues --    4.04707   4.10976   4.16941   4.17977   4.18356
 Alpha virt. eigenvalues --    4.28153   4.29108   4.32359   4.58236   4.71801
 Alpha virt. eigenvalues --    4.82357   4.84593   4.88949   4.91458   5.11942
 Alpha virt. eigenvalues --    5.14899   5.21431   5.28284   5.29597   5.42361
 Alpha virt. eigenvalues --    5.44086   5.47058   5.49962   5.54300   5.58706
 Alpha virt. eigenvalues --    5.59481   5.75742   5.81853   5.86689   5.91797
 Alpha virt. eigenvalues --    5.99058   6.00840   6.03671   6.16713   6.17034
 Alpha virt. eigenvalues --    6.21803   6.33430   6.36990   6.38961   6.48145
 Alpha virt. eigenvalues --    6.57988   6.58654   6.65228   6.73959   6.75442
 Alpha virt. eigenvalues --    6.79266   6.86467   6.98756   7.08078   7.18451
 Alpha virt. eigenvalues --    7.21157   7.31470   7.33543   7.39644   7.41467
 Alpha virt. eigenvalues --    7.48422   7.50465   7.51067   7.54023   7.61712
 Alpha virt. eigenvalues --    7.63769   7.67525   7.69619   7.78311   7.90295
 Alpha virt. eigenvalues --    7.91039   7.91864   8.01280   8.04959   8.07333
 Alpha virt. eigenvalues --    8.11611   8.15433   8.17890   8.23788   8.25824
 Alpha virt. eigenvalues --    8.28103   8.29193   8.35380   8.45469   8.52712
 Alpha virt. eigenvalues --    8.57567   8.63912   8.67955   8.71593   8.77248
 Alpha virt. eigenvalues --    8.83724   8.90055   8.90206   8.93855   8.95863
 Alpha virt. eigenvalues --    9.03714   9.08384   9.13661   9.18001   9.18810
 Alpha virt. eigenvalues --    9.33371   9.42670   9.54495   9.60330   9.68484
 Alpha virt. eigenvalues --    9.77822   9.87804   9.91156  10.06162  10.07176
 Alpha virt. eigenvalues --   10.41572  10.42839  10.61426  10.72297  10.90075
 Alpha virt. eigenvalues --   10.94016  10.98857  11.02488  11.03071  11.30891
 Alpha virt. eigenvalues --   11.37958  11.38124  11.50769  11.64796  11.79330
 Alpha virt. eigenvalues --   11.86261  12.00803  12.04805  12.13623  12.17001
 Alpha virt. eigenvalues --   12.31375  12.35041  13.06222  13.12658  13.48669
 Alpha virt. eigenvalues --   14.14532  14.73287  14.82061  28.70484  37.93534
 Alpha virt. eigenvalues --   48.16326 147.72146 197.24282 253.19039
  Beta  occ. eigenvalues --  -19.11936 -14.47330 -10.22695  -1.12782  -0.87363
  Beta  occ. eigenvalues --   -0.67260  -0.55975  -0.49590  -0.46682  -0.43216
  Beta  occ. eigenvalues --   -0.27215  -0.24820
  Beta virt. eigenvalues --   -0.04853  -0.01332   0.01479   0.04678   0.06422
  Beta virt. eigenvalues --    0.06947   0.07986   0.09158   0.10981   0.13039
  Beta virt. eigenvalues --    0.13244   0.15296   0.16628   0.18783   0.19044
  Beta virt. eigenvalues --    0.21448   0.21477   0.22149   0.23650   0.25229
  Beta virt. eigenvalues --    0.25995   0.26368   0.27751   0.30368   0.30905
  Beta virt. eigenvalues --    0.30988   0.32716   0.34753   0.35358   0.37608
  Beta virt. eigenvalues --    0.38796   0.38866   0.39020   0.41258   0.41561
  Beta virt. eigenvalues --    0.46536   0.47604   0.48595   0.50492   0.51630
  Beta virt. eigenvalues --    0.52055   0.53781   0.57036   0.58679   0.60692
  Beta virt. eigenvalues --    0.61296   0.64045   0.65337   0.69432   0.70470
  Beta virt. eigenvalues --    0.74239   0.77760   0.79600   0.82385   0.86029
  Beta virt. eigenvalues --    0.86954   0.87506   0.90485   0.91541   0.95052
  Beta virt. eigenvalues --    0.95701   0.98821   1.04835   1.09036   1.09233
  Beta virt. eigenvalues --    1.09901   1.19041   1.19814   1.23759   1.25376
  Beta virt. eigenvalues --    1.28723   1.32019   1.35063   1.38718   1.42446
  Beta virt. eigenvalues --    1.44062   1.49233   1.50913   1.56882   1.57487
  Beta virt. eigenvalues --    1.63524   1.70002   1.76089   1.80359   1.81827
  Beta virt. eigenvalues --    1.85390   1.87205   1.87633   1.93406   1.93459
  Beta virt. eigenvalues --    1.96363   2.02461   2.06252   2.13157   2.15912
  Beta virt. eigenvalues --    2.19072   2.20630   2.22336   2.30111   2.33861
  Beta virt. eigenvalues --    2.41521   2.42455   2.45518   2.47166   2.52754
  Beta virt. eigenvalues --    2.53348   2.55212   2.62465   2.65649   2.65832
  Beta virt. eigenvalues --    2.70925   2.73138   2.79271   2.82362   2.85195
  Beta virt. eigenvalues --    2.91509   2.92310   2.93389   2.98031   3.00307
  Beta virt. eigenvalues --    3.08334   3.11925   3.13552   3.16004   3.29210
  Beta virt. eigenvalues --    3.31359   3.33361   3.37764   3.38618   3.45730
  Beta virt. eigenvalues --    3.50439   3.57509   3.62018   3.62540   3.68189
  Beta virt. eigenvalues --    3.76103   3.79797   3.80729   3.95565   4.04273
  Beta virt. eigenvalues --    4.04707   4.10976   4.16941   4.17977   4.18356
  Beta virt. eigenvalues --    4.28153   4.29108   4.32359   4.58236   4.71801
  Beta virt. eigenvalues --    4.82357   4.84593   4.88949   4.91458   5.11942
  Beta virt. eigenvalues --    5.14899   5.21431   5.28284   5.29597   5.42361
  Beta virt. eigenvalues --    5.44086   5.47058   5.49962   5.54300   5.58706
  Beta virt. eigenvalues --    5.59481   5.75742   5.81853   5.86689   5.91797
  Beta virt. eigenvalues --    5.99058   6.00840   6.03671   6.16713   6.17034
  Beta virt. eigenvalues --    6.21803   6.33430   6.36990   6.38961   6.48145
  Beta virt. eigenvalues --    6.57988   6.58654   6.65228   6.73959   6.75442
  Beta virt. eigenvalues --    6.79266   6.86467   6.98756   7.08078   7.18451
  Beta virt. eigenvalues --    7.21157   7.31470   7.33543   7.39644   7.41467
  Beta virt. eigenvalues --    7.48422   7.50465   7.51067   7.54023   7.61712
  Beta virt. eigenvalues --    7.63769   7.67525   7.69619   7.78311   7.90295
  Beta virt. eigenvalues --    7.91039   7.91864   8.01280   8.04959   8.07333
  Beta virt. eigenvalues --    8.11611   8.15433   8.17890   8.23788   8.25824
  Beta virt. eigenvalues --    8.28103   8.29193   8.35380   8.45469   8.52712
  Beta virt. eigenvalues --    8.57567   8.63912   8.67955   8.71593   8.77248
  Beta virt. eigenvalues --    8.83724   8.90055   8.90206   8.93855   8.95863
  Beta virt. eigenvalues --    9.03714   9.08384   9.13661   9.18001   9.18810
  Beta virt. eigenvalues --    9.33371   9.42670   9.54495   9.60330   9.68484
  Beta virt. eigenvalues --    9.77822   9.87804   9.91156  10.06162  10.07176
  Beta virt. eigenvalues --   10.41572  10.42839  10.61426  10.72297  10.90075
  Beta virt. eigenvalues --   10.94016  10.98857  11.02488  11.03071  11.30891
  Beta virt. eigenvalues --   11.37958  11.38124  11.50769  11.64796  11.79330
  Beta virt. eigenvalues --   11.86261  12.00803  12.04805  12.13623  12.17001
  Beta virt. eigenvalues --   12.31375  12.35041  13.06222  13.12658  13.48669
  Beta virt. eigenvalues --   14.14532  14.73287  14.82061  28.70484  37.93534
  Beta virt. eigenvalues --   48.16326 147.72146 197.24282 253.19039
          Condensed to atoms (all electrons):
               1          2          3          4          5          6
     1  C    4.934411   0.412973  -0.001726  -0.096039   0.404627   0.447150
     2  N    0.412973   6.014276   0.332467   0.235116  -0.013490  -0.066840
     3  H   -0.001726   0.332467   0.500750  -0.048546  -0.017276   0.004189
     4  O   -0.096039   0.235116  -0.048546   8.348994  -0.005513   0.032556
     5  H    0.404627  -0.013490  -0.017276  -0.005513   0.529701  -0.030585
     6  H    0.447150  -0.066840   0.004189   0.032556  -0.030585   0.493740
          Atomic-Atomic Spin Densities.
               1          2          3          4          5          6
     1  C   -0.000000  -0.000000   0.000000   0.000000  -0.000000   0.000000
     2  N   -0.000000   0.000000  -0.000000  -0.000000   0.000000  -0.000000
     3  H    0.000000  -0.000000   0.000000  -0.000000  -0.000000   0.000000
     4  O    0.000000  -0.000000  -0.000000   0.000000   0.000000  -0.000000
     5  H   -0.000000   0.000000  -0.000000   0.000000   0.000000  -0.000000
     6  H    0.000000  -0.000000   0.000000  -0.000000  -0.000000   0.000000
 Mulliken charges and spin densities:
               1          2
     1  C   -0.101397  -0.000000
     2  N    0.085499  -0.000000
     3  H    0.230142   0.000000
     4  O   -0.466568   0.000000
     5  H    0.132535  -0.000000
     6  H    0.119790   0.000000
 Sum of Mulliken charges =  -0.00000  -0.00000
 Mulliken charges and spin densities with hydrogens summed into heavy atoms:
               1          2
     1  C    0.150928  -0.000000
     2  N    0.315640  -0.000000
     4  O   -0.466568   0.000000
 Electronic spatial extent (au):  <R**2>=            516.7385
 Charge=             -0.0000 electrons
 Dipole moment (field-independent basis, Debye):
    X=             -2.0426    Y=              0.6500    Z=             -2.8185  Tot=              3.5410
 Quadrupole moment (field-independent basis, Debye-Ang):
   XX=            -26.4238   YY=            -19.3107   ZZ=            -19.1894
   XY=              2.1734   XZ=             -9.0843   YZ=              0.0907
 Traceless Quadrupole moment (field-independent basis, Debye-Ang):
   XX=             -4.7825   YY=              2.3306   ZZ=              2.4519
   XY=              2.1734   XZ=             -9.0843   YZ=              0.0907
 Octapole moment (field-independent basis, Debye-Ang**2):
  XXX=           -137.3102  YYY=              6.7344  ZZZ=            -23.4656  XYY=            -37.1743
  XXY=              8.8875  XXZ=            -34.1446  XZZ=            -41.1924  YZZ=              3.1690
  YYZ=             -6.6772  XYZ=              1.3668
 Hexadecapole moment (field-independent basis, Debye-Ang**3):
 XXXX=           -641.0304 YYYY=            -23.2544 ZZZZ=            -70.8682 XXXY=             37.3559
 XXXZ=           -139.1541 YYYX=             17.4652 YYYZ=              6.7247 ZZZX=            -66.6835
 ZZZY=              6.7505 XXYY=            -95.5956 XXZZ=           -115.8906 YYZZ=            -15.8134
 XXYZ=              6.4088 YYXZ=            -19.5244 ZZXY=              8.2390
 N-N= 7.235265144198D+01 E-N=-5.428849677489D+02  KE= 1.691262728931D+02
                          Isotropic Fermi Contact Couplings
        Atom                 a.u.       MegaHertz       Gauss      10(-4) cm-1
     1  C(13)             -0.00000      -0.00000      -0.00000      -0.00000
     2  N(14)              0.00000       0.00000       0.00000       0.00000
     3  H(1)              -0.00000      -0.00000      -0.00000      -0.00000
     4  O(17)             -0.00000       0.00000       0.00000       0.00000
     5  H(1)               0.00000       0.00000       0.00000       0.00000
     6  H(1)              -0.00000      -0.00000      -0.00000      -0.00000
 --------------------------------------------------------
       Center         ----  Spin Dipole Couplings  ----
                      3XX-RR        3YY-RR        3ZZ-RR
 --------------------------------------------------------
     1   Atom       -0.000000      0.000000      0.000000
     2   Atom       -0.000000      0.000000     -0.000000
     3   Atom       -0.000000      0.000000     -0.000000
     4   Atom       -0.000000     -0.000000      0.000000
     5   Atom        0.000000     -0.000000     -0.000000
     6   Atom        0.000000     -0.000000     -0.000000
 --------------------------------------------------------
                        XY            XZ            YZ
 --------------------------------------------------------
     1   Atom        0.000000     -0.000000      0.000000
     2   Atom       -0.000000      0.000000      0.000000
     3   Atom       -0.000000      0.000000      0.000000
     4   Atom       -0.000000      0.000000     -0.000000
     5   Atom       -0.000000      0.000000      0.000000
     6   Atom        0.000000     -0.000000     -0.000000
 --------------------------------------------------------


 ---------------------------------------------------------------------------------
              Anisotropic Spin Dipole Couplings in Principal Axis System
 ---------------------------------------------------------------------------------

       Atom             a.u.   MegaHertz   Gauss  10(-4) cm-1        Axes

              Baa    -0.0000    -0.000    -0.000    -0.000  0.9899 -0.0092  0.1413
     1 C(13)  Bbb     0.0000     0.000     0.000     0.000  0.0146  0.9992 -0.0373
              Bcc     0.0000     0.000     0.000     0.000 -0.1408  0.0390  0.9893
 
              Baa    -0.0000    -0.000    -0.000    -0.000 -0.4264 -0.5056  0.7500
     2 N(14)  Bbb    -0.0000    -0.000    -0.000    -0.000  0.9000 -0.3198  0.2961
              Bcc     0.0000     0.000     0.000     0.000  0.0901  0.8013  0.5914
 
              Baa    -0.0000    -0.000    -0.000    -0.000 -0.6453 -0.2039  0.7362
     3 H(1)   Bbb     0.0000     0.000     0.000     0.000 -0.4595  0.8735 -0.1609
              Bcc     0.0000     0.000     0.000     0.000  0.6103  0.4421  0.6574
 
              Baa    -0.0000     0.000     0.000     0.000  0.5938  0.7953  0.1223
     4 O(17)  Bbb    -0.0000     0.000     0.000     0.000  0.7623 -0.5075 -0.4017
              Bcc     0.0000    -0.000    -0.000    -0.000  0.2574 -0.3318  0.9076
 
              Baa    -0.0000    -0.000    -0.000    -0.000 -0.4866 -0.1680  0.8574
     5 H(1)   Bbb    -0.0000    -0.000    -0.000    -0.000  0.0587  0.9728  0.2239
              Bcc     0.0000     0.000     0.000     0.000  0.8717 -0.1593  0.4635
 
              Baa    -0.0000    -0.000    -0.000    -0.000  0.5853 -0.1227  0.8015
     6 H(1)   Bbb    -0.0000    -0.000    -0.000    -0.000 -0.0799  0.9749  0.2076
              Bcc     0.0000     0.000     0.000     0.000  0.8069  0.1856 -0.5608
 

 ---------------------------------------------------------------------------------

 No NMR shielding tensors so no spin-rotation constants.
 Leave Link  601 at Tue Jan  3 09:19:28 2023, MaxMem=   536870912 cpu:               0.9 elap:               0.5
 (Enter /opt/software/gaussian/g16.c01/l9999.exe)

 Test job not archived.
 1\1\GINC-GRA738\Stability\UB3LYP\Gen\C1H3N1O1\BHAVUK\03-Jan-2023\0\\#p
  ub3lyp/gen stable=opt scf=(maxcycle=900,verytightlineq,xqc) integral=
 grid=ultrafine symmetry=None density=current iop(99/18=-1) output=wfn\
 \0002_q000_m01_k00_opt_uwb97xd_def2svpd/0002_q000_m01_k00_force_ub3lyp
 _def2qzvpd stable-force\\0,1\C,0,0.9341359983,-0.0506101672,0.05339166
 33\N,0,2.2303561638,-0.0607282973,0.0971529523\H,0,2.7104299206,0.1445
 551233,-0.7929401941\O,0,2.9768985022,-0.2863976361,1.0755945973\H,0,0
 .4602474304,0.169181767,-0.8998201368\H,0,0.383341983,-0.2613407898,0.
 9669611147\\Version=ES64L-G16RevC.01\HF=-169.8885619\S2=0.\S2-1=0.\S2A
 =0.\RMSD=1.623e-09\Dipole=-0.8036023,0.2557239,-1.108877\Quadrupole=-3
 .5556533,1.7327569,1.8228964,1.6158918,-6.753946,0.067408\PG=Unknown\\
 @

 Writing a WFN file to "0002_q000_m01_k00_force_ub3lyp_def2qzvpd.wfn"


 THE ONLY EXISTING THINGS ARE ATOMS AND EMPTY SPACE;
 ALL ELSE IS MERE OPINION. -- DEMOCRITUS OF ABDERA D. 370 B.C.
 EXPERIMENTS ARE THE ONLY MEANS OF KNOWLEDGE AT OUR DISPOSAL
 THE REST IS POETRY, IMAGINATION. -- MAX PLANCK
 Job cpu time:       0 days  0 hours 30 minutes 38.6 seconds.
 Elapsed time:       0 days  0 hours 15 minutes 19.6 seconds.
 File lengths (MBytes):  RWF=    181 Int=      0 D2E=      0 Chk=     11 Scr=      1
 Normal termination of Gaussian 16 at Tue Jan  3 09:19:28 2023.
 Initial command:
 /opt/software/gaussian/g16.c01/l1.exe "/localscratch/bhavuk.2151353.0/Gau-17371.inp" -scrdir="/localscratch/bhavuk.2151353.0/"
 Entering Link 1 = /opt/software/gaussian/g16.c01/l1.exe PID=     19545.
  
 Copyright (c) 1988-2019, Gaussian, Inc.  All Rights Reserved.
  
 This is part of the Gaussian(R) 16 program.  It is based on
 the Gaussian(R) 09 system (copyright 2009, Gaussian, Inc.),
 the Gaussian(R) 03 system (copyright 2003, Gaussian, Inc.),
 the Gaussian(R) 98 system (copyright 1998, Gaussian, Inc.),
 the Gaussian(R) 94 system (copyright 1995, Gaussian, Inc.),
 the Gaussian 92(TM) system (copyright 1992, Gaussian, Inc.),
 the Gaussian 90(TM) system (copyright 1990, Gaussian, Inc.),
 the Gaussian 88(TM) system (copyright 1988, Gaussian, Inc.),
 the Gaussian 86(TM) system (copyright 1986, Carnegie Mellon
 University), and the Gaussian 82(TM) system (copyright 1983,
 Carnegie Mellon University). Gaussian is a federally registered
 trademark of Gaussian, Inc.
  
 This software contains proprietary and confidential information,
 including trade secrets, belonging to Gaussian, Inc.
  
 This software is provided under written license and may be
 used, copied, transmitted, or stored only in accord with that
 written license.
  
 The following legend is applicable only to US Government
 contracts under FAR:
  
                    RESTRICTED RIGHTS LEGEND
  
 Use, reproduction and disclosure by the US Government is
 subject to restrictions as set forth in subparagraphs (a)
 and (c) of the Commercial Computer Software - Restricted
 Rights clause in FAR 52.227-19.
  
 Gaussian, Inc.
 340 Quinnipiac St., Bldg. 40, Wallingford CT 06492
  
  
 ---------------------------------------------------------------
 Warning -- This program may not be used in any manner that
 competes with the business of Gaussian, Inc. or will provide
 assistance to any competitor of Gaussian, Inc.  The licensee
 of this program is prohibited from giving any competitor of
 Gaussian, Inc. access to this program.  By using this program,
 the user acknowledges that Gaussian, Inc. is engaged in the
 business of creating and licensing software in the field of
 computational chemistry and represents and warrants to the
 licensee that it is not a competitor of Gaussian, Inc. and that
 it will not use this program in any manner prohibited above.
 ---------------------------------------------------------------
  

 Cite this work as:
 Gaussian 16, Revision C.01,
 M. J. Frisch, G. W. Trucks, H. B. Schlegel, G. E. Scuseria, 
 M. A. Robb, J. R. Cheeseman, G. Scalmani, V. Barone, 
 G. A. Petersson, H. Nakatsuji, X. Li, M. Caricato, A. V. Marenich, 
 J. Bloino, B. G. Janesko, R. Gomperts, B. Mennucci, H. P. Hratchian, 
 J. V. Ortiz, A. F. Izmaylov, J. L. Sonnenberg, D. Williams-Young, 
 F. Ding, F. Lipparini, F. Egidi, J. Goings, B. Peng, A. Petrone, 
 T. Henderson, D. Ranasinghe, V. G. Zakrzewski, J. Gao, N. Rega, 
 G. Zheng, W. Liang, M. Hada, M. Ehara, K. Toyota, R. Fukuda, 
 J. Hasegawa, M. Ishida, T. Nakajima, Y. Honda, O. Kitao, H. Nakai, 
 T. Vreven, K. Throssell, J. A. Montgomery, Jr., J. E. Peralta, 
 F. Ogliaro, M. J. Bearpark, J. J. Heyd, E. N. Brothers, K. N. Kudin, 
 V. N. Staroverov, T. A. Keith, R. Kobayashi, J. Normand, 
 K. Raghavachari, A. P. Rendell, J. C. Burant, S. S. Iyengar, 
 J. Tomasi, M. Cossi, J. M. Millam, M. Klene, C. Adamo, R. Cammi, 
 J. W. Ochterski, R. L. Martin, K. Morokuma, O. Farkas, 
 J. B. Foresman, and D. J. Fox, Gaussian, Inc., Wallingford CT, 2019.
 
 ******************************************
 Gaussian 16:  ES64L-G16RevC.01  3-Jul-2019
                 3-Jan-2023 
 ******************************************
 %chk=0002_q000_m01_k00_force_ub3lyp_def2qzvpd.chk
 %nprocshared=2
 Will use up to    2 processors via shared memory.
 %mem=4GB
 ----------------------------------------------------------------------
 #p ub3lyp/chkbasis force guess=read geom=check scf=(maxcycle=900,veryt
 ightlineq,xqc) integral=grid=ultrafine symmetry=None density=current p
 op=(cm5,hlygat,mbs,npa) output=wfx
 ----------------------------------------------------------------------
 1/10=7,29=2,30=1,38=1/1,3;
 2/12=2,15=3,40=1/2;
 3/5=7,6=2,11=2,14=-4,25=1,30=1,67=1,71=1,74=-5,75=-5,116=2/1,2,3;
 4/5=1/1;
 5/5=2,7=900,8=3,13=1,17=3,38=6/2,8;
 6/7=2,8=2,9=2,10=2,15=8,20=15,22=-1,27=100,28=1,40=-1,79=1/1,2,7;
 7/29=1,30=1/1,2,3,16;
 1/10=7,30=1/3;
 99/6=200/99;
 Leave Link    1 at Tue Jan  3 09:19:28 2023, MaxMem=   536870912 cpu:               0.1 elap:               0.1
 (Enter /opt/software/gaussian/g16.c01/l101.exe)
 ----------------------------------------------------------------------
 0002_q000_m01_k00_opt_uwb97xd_def2svpd/0002_q000_m01_k00_force_ub3lyp_
 def2qzvpd stable-force
 ----------------------------------------------------------------------
 Structure from the checkpoint file:  "0002_q000_m01_k00_force_ub3lyp_def2qzvpd.chk"
 Charge =  0 Multiplicity = 1
 Z-Matrix found in chk file.
 C,0,0.9341359983,-0.0506101672,0.0533916633
 N,0,2.2303561638,-0.0607282973,0.0971529523
 H,0,2.7104299206,0.1445551233,-0.7929401941
 O,0,2.9768985022,-0.2863976361,1.0755945973
 H,0,0.4602474304,0.169181767,-0.8998201368
 H,0,0.383341983,-0.2613407898,0.9669611147
 Recover connectivity data from disk.
 ITRead=  0  0  0  0  0  0
 MicOpt= -1 -1 -1 -1 -1 -1
 NAtoms=      6 NQM=        6 NQMF=       0 NMMI=      0 NMMIF=      0
                NMic=       0 NMicF=      0.
                    Isotopes and Nuclear Properties:
 (Nuclear quadrupole moments (NQMom) in fm**2, nuclear magnetic moments (NMagM)
  in nuclear magnetons)

  Atom         1           2           3           4           5           6
 IAtWgt=          12          14           1          16           1           1
 AtmWgt=  12.0000000  14.0030740   1.0078250  15.9949146   1.0078250   1.0078250
 NucSpn=           0           2           1           0           1           1
 AtZEff=   3.6000000   4.5500000   1.0000000   5.6000000   1.0000000   1.0000000
 NQMom=    0.0000000   2.0440000   0.0000000   0.0000000   0.0000000   0.0000000
 NMagM=    0.0000000   0.4037610   2.7928460   0.0000000   2.7928460   2.7928460
 AtZNuc=   6.0000000   7.0000000   1.0000000   8.0000000   1.0000000   1.0000000
 Leave Link  101 at Tue Jan  3 09:19:28 2023, MaxMem=   536870912 cpu:               0.3 elap:               0.2
 (Enter /opt/software/gaussian/g16.c01/l103.exe)

 GradGradGradGradGradGradGradGradGradGradGradGradGradGradGradGradGradGrad
 Berny optimization.
 Initialization pass.
 Trust Radius=3.00D-01 FncErr=1.00D-07 GrdErr=1.00D-07 EigMax=2.50D+02 EigMin=1.00D-04
 Number of steps in this run=      2 maximum allowed number of steps=      2.
 GradGradGradGradGradGradGradGradGradGradGradGradGradGradGradGradGradGrad

 Leave Link  103 at Tue Jan  3 09:19:28 2023, MaxMem=   536870912 cpu:               0.1 elap:               0.0
 (Enter /opt/software/gaussian/g16.c01/l202.exe)
                          Input orientation:                          
 ---------------------------------------------------------------------
 Center     Atomic      Atomic             Coordinates (Angstroms)
 Number     Number       Type             X           Y           Z
 ---------------------------------------------------------------------
      1          6           0        0.934136   -0.050610    0.053392
      2          7           0        2.230356   -0.060728    0.097153
      3          1           0        2.710430    0.144555   -0.792940
      4          8           0        2.976899   -0.286398    1.075595
      5          1           0        0.460247    0.169182   -0.899820
      6          1           0        0.383342   -0.261341    0.966961
 ---------------------------------------------------------------------
                    Distance matrix (angstroms):
                    1          2          3          4          5
     1  C    0.000000
     2  N    1.296998   0.000000
     3  H    1.977268   1.031929   0.000000
     4  O    2.296383   1.251239   1.936013   0.000000
     5  H    1.086964   2.044529   2.252854   3.231617   0.000000
     6  H    1.087378   2.051408   2.945733   2.595952   1.917325
                    6
     6  H    0.000000
 Symmetry turned off by external request.
 Stoichiometry    CH3NO
 Rotational constants (GHZ):          75.8819039          11.9122881          10.2959784
 Leave Link  202 at Tue Jan  3 09:19:28 2023, MaxMem=   536870912 cpu:               0.0 elap:               0.0
 (Enter /opt/software/gaussian/g16.c01/l301.exe)
 Basis read from chk: "0002_q000_m01_k00_force_ub3lyp_def2qzvpd.chk" (5D, 7F)
 No pseudopotential information found on chk file.
   291 basis functions,   423 primitive gaussians,   354 cartesian basis functions
    12 alpha electrons       12 beta electrons
       nuclear repulsion energy        72.3526514420 Hartrees.
 IExCor=  402 DFT=T Ex+Corr=B3LYP ExCW=0 ScaHFX=  0.200000
 ScaDFX=  0.800000  0.720000  1.000000  0.810000 ScalE2=  1.000000  1.000000
 IRadAn=      5 IRanWt=     -1 IRanGd=            0 ICorTp=0 IEmpDi=  4
 NAtoms=    6 NActive=    6 NUniq=    6 SFac= 1.00D+00 NAtFMM=   60 NAOKFM=F Big=F
 Integral buffers will be    131072 words long.
 Raffenetti 2 integral format.
 Two-electron integral symmetry is turned off.
 No density basis found on file  20724.
 Leave Link  301 at Tue Jan  3 09:19:28 2023, MaxMem=   536870912 cpu:               0.1 elap:               0.1
 (Enter /opt/software/gaussian/g16.c01/l302.exe)
 NPDir=0 NMtPBC=     1 NCelOv=     1 NCel=       1 NClECP=     1 NCelD=      1
         NCelK=      1 NCelE2=     1 NClLst=     1 CellRange=     0.0.
 One-electron integrals computed using PRISM.
 NBasis=   291 RedAO= T EigKep=  4.75D-06  NBF=   291
 NBsUse=   291 1.00D-06 EigRej= -1.00D+00 NBFU=   291
 Precomputing XC quadrature grid using
 IXCGrd= 4 IRadAn=           5 IRanWt=          -1 IRanGd=           0 AccXCQ= 0.00D+00.
 Generated NRdTot=       0 NPtTot=           0 NUsed=           0 NTot=          32
 NSgBfM=   354   354   354   354   354 MxSgAt=     6 MxSgA2=     6.
 Leave Link  302 at Tue Jan  3 09:19:29 2023, MaxMem=   536870912 cpu:               0.6 elap:               0.3
 (Enter /opt/software/gaussian/g16.c01/l303.exe)
 DipDrv:  MaxL=1.
 Leave Link  303 at Tue Jan  3 09:19:29 2023, MaxMem=   536870912 cpu:               0.1 elap:               0.1
 (Enter /opt/software/gaussian/g16.c01/l401.exe)
 Initial guess from the checkpoint file:  "0002_q000_m01_k00_force_ub3lyp_def2qzvpd.chk"
 B after Tr=     0.000000    0.000000    0.000000
         Rot=    1.000000    0.000000    0.000000    0.000000 Ang=   0.00 deg.
 Guess basis will be translated and rotated to current coordinates.
 JPrj=2 DoOrth=T DoCkMO=T.
[...]
   208    O    4  f(S1)  Ryd( 5f)     0.00000      10.64900
   209    O    4  f(C2)  Ryd( 4f)     0.00002       4.78665
   210    O    4  f(C2)  Ryd( 5f)     0.00000      10.81982
   211    O    4  f(S2)  Ryd( 4f)     0.00002       4.71297
   212    O    4  f(S2)  Ryd( 5f)     0.00000      10.68808
   213    O    4  f(C3)  Ryd( 4f)     0.00000       4.39393
   214    O    4  f(C3)  Ryd( 5f)     0.00000      10.36164
   215    O    4  f(S3)  Ryd( 4f)     0.00000       4.37482
   216    O    4  f(S3)  Ryd( 5f)     0.00000      10.32552
   217    O    4  g(0)   Ryd( 5g)     0.00000       9.41003
   218    O    4  g(C1)  Ryd( 5g)     0.00000       9.56023
   219    O    4  g(S1)  Ryd( 5g)     0.00000       9.22236
   220    O    4  g(C2)  Ryd( 5g)     0.00000       9.33012
   221    O    4  g(S2)  Ryd( 5g)     0.00000       9.33712
   222    O    4  g(C3)  Ryd( 5g)     0.00000       9.28994
   223    O    4  g(S3)  Ryd( 5g)     0.00000       9.26884
   224    O    4  g(C4)  Ryd( 5g)     0.00000       9.01937
   225    O    4  g(S4)  Ryd( 5g)     0.00000       9.01476
 
   226    H    5  S      Val( 1S)     0.39988      -0.02052
   227    H    5  S      Ryd( 2S)     0.00021       1.29504
   228    H    5  S      Ryd( 3S)     0.00002       1.82754
   229    H    5  S      Ryd( 4S)     0.00001       4.72332
   230    H    5  px     Ryd( 2p)     0.00005       1.59234
   231    H    5  px     Ryd( 4p)     0.00003       3.10446
   232    H    5  px     Ryd( 3p)     0.00003       2.55538
   233    H    5  px     Ryd( 5p)     0.00000       7.85338
   234    H    5  py     Ryd( 2p)     0.00048       1.19995
   235    H    5  py     Ryd( 4p)     0.00001       2.74918
   236    H    5  py     Ryd( 3p)     0.00000       1.94403
   237    H    5  py     Ryd( 5p)     0.00000       7.43162
   238    H    5  pz     Ryd( 2p)     0.00010       1.44587
   239    H    5  pz     Ryd( 4p)     0.00010       3.81816
   240    H    5  pz     Ryd( 3p)     0.00001       3.37276
   241    H    5  pz     Ryd( 5p)     0.00000       8.14792
   242    H    5  dxy    Ryd( 3d)     0.00001       3.01869
   243    H    5  dxy    Ryd( 4d)     0.00000       7.75955
   244    H    5  dxz    Ryd( 3d)     0.00003       3.86727
   245    H    5  dxz    Ryd( 4d)     0.00000       8.37447
   246    H    5  dyz    Ryd( 3d)     0.00012       3.41150
   247    H    5  dyz    Ryd( 4d)     0.00000       8.10986
   248    H    5  dx2y2  Ryd( 3d)     0.00002       3.18400
   249    H    5  dx2y2  Ryd( 4d)     0.00000       7.81540
   250    H    5  dz2    Ryd( 3d)     0.00003       3.89701
   251    H    5  dz2    Ryd( 4d)     0.00000       8.44511
   252    H    5  f(0)   Ryd( 4f)     0.00001       6.78289
   253    H    5  f(C1)  Ryd( 4f)     0.00001       6.72623
   254    H    5  f(S1)  Ryd( 4f)     0.00001       6.65424
   255    H    5  f(C2)  Ryd( 4f)     0.00001       6.50604
   256    H    5  f(S2)  Ryd( 4f)     0.00000       6.48112
   257    H    5  f(C3)  Ryd( 4f)     0.00000       6.14941
   258    H    5  f(S3)  Ryd( 4f)     0.00000       6.12923
 
   259    H    6  S      Val( 1S)     0.39301      -0.00579
   260    H    6  S      Ryd( 2S)     0.00061       1.18032
   261    H    6  S      Ryd( 3S)     0.00003       1.28273
   262    H    6  S      Ryd( 4S)     0.00001       5.36598
   263    H    6  px     Ryd( 2p)     0.00003       1.69807
   264    H    6  px     Ryd( 4p)     0.00005       3.21627
   265    H    6  px     Ryd( 3p)     0.00002       2.50230
   266    H    6  px     Ryd( 5p)     0.00000       7.95975
   267    H    6  py     Ryd( 2p)     0.00041       1.24632
   268    H    6  py     Ryd( 4p)     0.00001       2.74375
   269    H    6  py     Ryd( 3p)     0.00000       1.81393
   270    H    6  py     Ryd( 5p)     0.00000       7.52442
   271    H    6  pz     Ryd( 2p)     0.00011       1.58076
   272    H    6  pz     Ryd( 4p)     0.00011       3.81421
   273    H    6  pz     Ryd( 3p)     0.00001       3.11554
   274    H    6  pz     Ryd( 5p)     0.00000       8.16524
   275    H    6  dxy    Ryd( 3d)     0.00001       3.12822
   276    H    6  dxy    Ryd( 4d)     0.00000       7.75179
   277    H    6  dxz    Ryd( 3d)     0.00002       3.98975
   278    H    6  dxz    Ryd( 4d)     0.00000       8.32728
   279    H    6  dyz    Ryd( 3d)     0.00008       3.42235
   280    H    6  dyz    Ryd( 4d)     0.00000       8.02886
   281    H    6  dx2y2  Ryd( 3d)     0.00001       3.28828
   282    H    6  dx2y2  Ryd( 4d)     0.00000       7.82045
   283    H    6  dz2    Ryd( 3d)     0.00003       3.84001
   284    H    6  dz2    Ryd( 4d)     0.00000       8.37268
   285    H    6  f(0)   Ryd( 4f)     0.00001       6.78547
   286    H    6  f(C1)  Ryd( 4f)     0.00002       6.70765
   287    H    6  f(S1)  Ryd( 4f)     0.00001       6.62903
   288    H    6  f(C2)  Ryd( 4f)     0.00001       6.48857
   289    H    6  f(S2)  Ryd( 4f)     0.00000       6.47017
   290    H    6  f(C3)  Ryd( 4f)     0.00000       6.22027
   291    H    6  f(S3)  Ryd( 4f)     0.00000       6.19709

 WARNING:  Population inversion found on atom  C    1
           Population inversion found on atom  N    2
           Population inversion found on atom  H    3
           Population inversion found on atom  O    4
           Population inversion found on atom  H    5
           Population inversion found on atom  H    6


 Summary of Natural Population Analysis:                  
                                                          
                                       Natural Population 
                Natural  -----------------------------------------------
    Atom  No    Charge         Core      Valence    Rydberg      Total
 -----------------------------------------------------------------------
      C    1   -0.11240      0.99971     2.09994    0.01275     3.11240
      N    2   -0.02148      0.99972     2.49918    0.02258     3.52148
      H    3    0.17621      0.00000     0.32026    0.00353     0.32379
      O    4   -0.24649      0.99993     3.23602    0.01054     4.24649
      H    5    0.09878      0.00000     0.39988    0.00133     0.40122
      H    6    0.10538      0.00000     0.39301    0.00161     0.39462
 =======================================================================
   * Total *    0.00000      2.99936     8.94829    0.05235    12.00000

                                 Natural Population      
 --------------------------------------------------------
   Core                       2.99936 ( 99.9787% of   3)
   Valence                    8.94829 ( 99.4254% of   9)
   Natural Minimal Basis     11.94765 ( 99.5637% of  12)
   Natural Rydberg Basis      0.05235 (  0.4363% of  12)
 --------------------------------------------------------

    Atom  No          Natural Electron Configuration
 ----------------------------------------------------------------------------
      C    1      [core]2S( 0.53)2p( 1.57)3p( 0.01)
      N    2      [core]2S( 0.60)2p( 1.90)3p( 0.01)3d( 0.01)
      H    3            1S( 0.32)
      O    4      [core]2S( 0.88)2p( 2.36)
      H    5            1S( 0.40)
      H    6            1S( 0.39)


 NBO analysis skipped by request.
 Leave Link  607 at Tue Jan  3 09:19:57 2023, MaxMem=   536870912 cpu:               3.9 elap:               2.0
 (Enter /opt/software/gaussian/g16.c01/l701.exe)
 ... and contract with generalized density number  0.
 Compute integral first derivatives.
 Leave Link  701 at Tue Jan  3 09:19:58 2023, MaxMem=   536870912 cpu:               0.5 elap:               0.2
 (Enter /opt/software/gaussian/g16.c01/l702.exe)
 L702 exits ... SP integral derivatives will be done elsewhere.
 Leave Link  702 at Tue Jan  3 09:19:58 2023, MaxMem=   536870912 cpu:               0.1 elap:               0.0
 (Enter /opt/software/gaussian/g16.c01/l703.exe)
 Integral derivatives from FoFJK, PRISM(SPDF).
 Compute integral first derivatives, UseDBF=F ICtDFT=           0.
 Calling FoFJK, ICntrl=      2127 FMM=F ISym2X=0 I1Cent= 0 IOpClX= 1 NMat=1 NMatS=1 NMatT=0.
 FoFJK:  IHMeth= 1 ICntrl=    2127 DoSepK=F KAlg= 0 I1Cent=           0 FoldK=F
 IRaf=         0 NMat=       1 IRICut=       1 DoRegI=T DoRafI=F ISym2E= 0 IDoP0=0 IntGTp=1.
 FoFCou: FMM=F IPFlag=           0 FMFlag=      100000 FMFlg1=         800
         NFxFlg=           0 DoJE=F BraDBF=F KetDBF=F FulRan=T
         wScrn=  0.000000 ICntrl=      2127 IOpCl=  1 I1Cent=           0 NGrid=           0
         NMat0=    1 NMatS0=      1 NMatT0=    0 NMatD0=    1 NMtDS0=    0 NMtDT0=    0
 Symmetry not used in FoFCou.
 Leave Link  703 at Tue Jan  3 09:21:44 2023, MaxMem=   536870912 cpu:             211.6 elap:             105.8
 (Enter /opt/software/gaussian/g16.c01/l716.exe)
 Dipole        =-8.03603334D-01 2.55723970D-01-1.10887742D+00
 -------------------------------------------------------------------
 Center     Atomic                   Forces (Hartrees/Bohr)
 Number     Number              X              Y              Z
 -------------------------------------------------------------------
      1        6          -0.006895021    0.000198623   -0.000883651
      2        7          -0.002559647    0.001703742   -0.007382152
      3        1          -0.001609647   -0.000415706    0.001800691
      4        8           0.004954313   -0.001418104    0.006151390
      5        1           0.002877677   -0.001502967    0.006524564
      6        1           0.003232324    0.001434412   -0.006210842
 -------------------------------------------------------------------
 Cartesian Forces:  Max     0.007382152 RMS     0.003992384
 Z-matrix is all fixed cartesians, so copy forces.
 Force constants in Cartesian coordinates: 
                1             2             3             4             5 
      1  0.101329D+01
      2 -0.181037D-02  0.203575D+00
      3  0.786374D-02 -0.124878D+00  0.716256D+00
      4 -0.679882D+00  0.300493D-02 -0.129771D-01  0.122912D+01
      5  0.376763D-02 -0.101951D+00  0.210923D-01 -0.513644D-01  0.222812D+00
      6 -0.162703D-01  0.210924D-01 -0.188542D+00  0.222639D+00 -0.201358D+00
      7 -0.102620D-02 -0.665546D-02  0.288574D-01 -0.181518D+00 -0.289962D-01
      8  0.121571D-03  0.160790D-01  0.116710D-03 -0.287431D-01 -0.726755D-01
      9 -0.525445D-03  0.118691D-03  0.155912D-01  0.124629D+00  0.655904D-01
     10  0.119887D-02  0.777540D-02 -0.337130D-01 -0.367761D+00  0.763242D-01
     11  0.200587D-03  0.190369D-01 -0.153988D-02  0.768689D-01 -0.806506D-01
     12 -0.868461D-03 -0.154186D-02  0.253675D-01 -0.333281D+00  0.114090D+00
     13 -0.158674D+00  0.217720D-01 -0.944370D-01  0.990489D-03  0.642211D-02
     14  0.210005D-01 -0.665152D-01  0.549206D-01  0.108065D-03  0.144495D-01
     15 -0.910994D-01  0.549244D-01 -0.292045D+00 -0.467503D-03  0.139020D-03
     16 -0.174911D+00 -0.240865D-01  0.104406D+00 -0.948593D-03 -0.615334D-02
     17 -0.232800D-01 -0.702247D-01  0.502880D-01  0.125613D-03  0.180161D-01
     18  0.100900D+00  0.502841D-01 -0.276628D+00 -0.542935D-03  0.445850D-03
                6             7             8             9            10 
      6  0.104942D+01
      7  0.125728D+00  0.157894D+00
      8  0.655912D-01  0.315330D-01  0.477677D-01
      9 -0.341942D+00 -0.136727D+00 -0.699667D-01  0.335000D+00
     10 -0.330918D+00  0.246502D-01 -0.291152D-02  0.126236D-01  0.341912D+00
     11  0.114089D+00  0.411862D-02  0.878005D-02  0.424634D-02 -0.811881D-01
     12 -0.549005D+00 -0.178579D-01  0.424651D-02 -0.865234D-02  0.352007D+00
     13 -0.278537D-01  0.000000D+00  0.000000D+00  0.000000D+00  0.000000D+00
     14  0.139979D-03  0.000000D+00 -0.908908D-02 -0.209632D-02  0.000000D+00
     15  0.138797D-01  0.000000D+00 -0.209566D-02 -0.483348D-03  0.000000D+00
     16  0.266748D-01  0.000000D+00  0.000000D+00  0.000000D+00  0.000000D+00
     17  0.444845D-03  0.000000D+00  0.913787D-02  0.210757D-02  0.000000D+00
     18  0.161850D-01  0.000000D+00  0.210791D-02  0.486171D-03  0.000000D+00
               11            12            13            14            15 
     11  0.528801D-01
     12 -0.116784D+00  0.532292D+00
     13  0.000000D+00  0.000000D+00  0.128269D+00
     14  0.864159D-02  0.199298D-02 -0.243128D-01  0.428129D-01
     15  0.199249D-02  0.459521D-03  0.105452D+00 -0.591266D-01  0.285599D+00
     16  0.000000D+00  0.000000D+00  0.294149D-01  0.320416D-02 -0.138848D-01
     17 -0.868798D-02 -0.200368D-02 -0.388133D-02  0.970030D-02  0.416630D-02
     18 -0.200413D-02 -0.462205D-03  0.168390D-01  0.416934D-02 -0.741015D-02
               16            17            18 
     16  0.146445D+00
     17  0.270357D-01  0.420584D-01
     18 -0.117196D+00 -0.550030D-01  0.267829D+00
 Leave Link  716 at Tue Jan  3 09:21:44 2023, MaxMem=   536870912 cpu:               0.1 elap:               0.1
 (Enter /opt/software/gaussian/g16.c01/l103.exe)

 GradGradGradGradGradGradGradGradGradGradGradGradGradGradGradGradGradGrad
 Berny optimization.
 Search for a local minimum.
 Step number   1 out of a maximum of    2
 All quantities printed in internal units (Hartrees-Bohrs-Radians)
 Second derivative matrix not updated -- first step.
 The second derivative matrix:
                          X1        Y1        Z1        X2        Y2
           X1           1.01329
           Y1          -0.00181   0.20358
           Z1           0.00786  -0.12488   0.71626
           X2          -0.67988   0.00300  -0.01298   1.22912
           Y2           0.00377  -0.10195   0.02109  -0.05136   0.22281
           Z2          -0.01627   0.02109  -0.18854   0.22264  -0.20136
           X3          -0.00103  -0.00666   0.02886  -0.18152  -0.02900
           Y3           0.00012   0.01608   0.00012  -0.02874  -0.07268
           Z3          -0.00053   0.00012   0.01559   0.12463   0.06559
           X4           0.00120   0.00778  -0.03371  -0.36776   0.07632
           Y4           0.00020   0.01904  -0.00154   0.07687  -0.08065
           Z4          -0.00087  -0.00154   0.02537  -0.33328   0.11409
           X5          -0.15867   0.02177  -0.09444   0.00099   0.00642
           Y5           0.02100  -0.06652   0.05492   0.00011   0.01445
           Z5          -0.09110   0.05492  -0.29205  -0.00047   0.00014
           X6          -0.17491  -0.02409   0.10441  -0.00095  -0.00615
           Y6          -0.02328  -0.07022   0.05029   0.00013   0.01802
           Z6           0.10090   0.05028  -0.27663  -0.00054   0.00045
                          Z2        X3        Y3        Z3        X4
           Z2           1.04942
           X3           0.12573   0.15789
           Y3           0.06559   0.03153   0.04777
           Z3          -0.34194  -0.13673  -0.06997   0.33500
           X4          -0.33092   0.02465  -0.00291   0.01262   0.34191
           Y4           0.11409   0.00412   0.00878   0.00425  -0.08119
           Z4          -0.54900  -0.01786   0.00425  -0.00865   0.35201
           X5          -0.02785  -0.00000  -0.00000  -0.00000   0.00000
           Y5           0.00014  -0.00000  -0.00909  -0.00210   0.00000
           Z5           0.01388  -0.00000  -0.00210  -0.00048   0.00000
           X6           0.02667   0.00000   0.00000   0.00000  -0.00000
           Y6           0.00044   0.00000   0.00914   0.00211  -0.00000
           Z6           0.01618   0.00000   0.00211   0.00049  -0.00000
                          Y4        Z4        X5        Y5        Z5
           Y4           0.05288
           Z4          -0.11678   0.53229
           X5           0.00000   0.00000   0.12827
           Y5           0.00864   0.00199  -0.02431   0.04281
           Z5           0.00199   0.00046   0.10545  -0.05913   0.28560
           X6          -0.00000  -0.00000   0.02941   0.00320  -0.01388
           Y6          -0.00869  -0.00200  -0.00388   0.00970   0.00417
           Z6          -0.00200  -0.00046   0.01684   0.00417  -0.00741
                          X6        Y6        Z6
           X6           0.14644
           Y6           0.02704   0.04206
           Z6          -0.11720  -0.05500   0.26783
 ITU=  0
     Eigenvalues ---    0.03447   0.04394   0.09385   0.09776   0.15149
     Eigenvalues ---    0.18516   0.28085   0.33564   0.68419   0.94438
     Eigenvalues ---    1.52455   2.16742
 Angle between quadratic step and forces=  44.67 degrees.
 Linear search not attempted -- first point.
 B after Tr=     0.000769   -0.000237    0.000984
         Rot=    1.000000    0.000001   -0.000056   -0.000014 Ang=   0.01 deg.
 Variable       Old X    -DE/DX   Delta X   Delta X   Delta X     New X
                                 (Linear)    (Quad)   (Total)
    X1        1.76526  -0.00690   0.00000  -0.00365  -0.00287   1.76239
    Y1       -0.09564   0.00020   0.00000   0.00048   0.00030  -0.09534
    Z1        0.10090  -0.00088   0.00000  -0.00217  -0.00139   0.09951
    X2        4.21476  -0.00256   0.00000  -0.00254  -0.00174   4.21302
    Y2       -0.11476   0.00170   0.00000   0.00005  -0.00007  -0.11483
    Z2        0.18359  -0.00738   0.00000  -0.00025   0.00026   0.18385
    X3        5.12197  -0.00161   0.00000  -0.01247  -0.01188   5.11009
    Y3        0.27317  -0.00042   0.00000  -0.00019  -0.00029   0.27288
    Z3       -1.49844   0.00180   0.00000   0.00084   0.00125  -1.49719
    X4        5.62552   0.00495   0.00000   0.00777   0.00878   5.63430
    Y4       -0.54121  -0.00142   0.00000  -0.00093  -0.00101  -0.54222
    Z4        2.03258   0.00615   0.00000   0.00405   0.00441   2.03699
    X5        0.86974   0.00288   0.00000   0.00512   0.00569   0.87543
    Y5        0.31971  -0.00150   0.00000  -0.00369  -0.00391   0.31580
    Z5       -1.70041   0.00652   0.00000   0.01611   0.01700  -1.68341
    X6        0.72441   0.00323   0.00000   0.00104   0.00202   0.72643
    Y6       -0.49386   0.00143   0.00000   0.00519   0.00497  -0.48889
    Z6        1.82729  -0.00621   0.00000  -0.02244  -0.02153   1.80576
         Item               Value     Threshold  Converged?
 Maximum Force            0.007382     0.000450     NO 
 RMS     Force            0.003992     0.000300     NO 
 Maximum Displacement     0.021535     0.001800     NO 
 RMS     Displacement     0.007756     0.001200     NO 
 Predicted change in Energy=-1.987929D-04
 GradGradGradGradGradGradGradGradGradGradGradGradGradGradGradGradGradGrad

 Leave Link  103 at Tue Jan  3 09:21:44 2023, MaxMem=   536870912 cpu:               0.2 elap:               0.1
 (Enter /opt/software/gaussian/g16.c01/l9999.exe)
 Unable to Open any file for archive entry.
 1\1\GINC-GRA738\Force\UB3LYP\Gen\C1H3N1O1\BHAVUK\03-Jan-2023\0\\#p ub3
 lyp/chkbasis force guess=read geom=check scf=(maxcycle=900,verytightli
 neq,xqc) integral=grid=ultrafine symmetry=None density=current pop=(cm
 5,hlygat,mbs,npa) output=wfx\\0002_q000_m01_k00_opt_uwb97xd_def2svpd/0
 002_q000_m01_k00_force_ub3lyp_def2qzvpd stable-force\\0,1\C,0.93413599
 83,-0.0506101672,0.0533916633\N,2.2303561638,-0.0607282973,0.097152952
 3\H,2.7104299206,0.1445551233,-0.7929401941\O,2.9768985022,-0.28639763
 61,1.0755945973\H,0.4602474304,0.169181767,-0.8998201368\H,0.383341983
 ,-0.2613407898,0.9669611147\\Version=ES64L-G16RevC.01\HF=-169.8885619\
 S2=0.\S2-1=0.\S2A=0.\RMSD=6.659e-10\RMSF=3.992e-03\Dipole=-0.8036033,0
 .255724,-1.1088774\Quadrupole=-3.5556577,1.7327597,1.8228981,1.6158925
 ,-6.7539485,0.0674083\PG=Unknown\\@
 The archive entry for this job was punched.

 Writing a WFNX file to "0002_q000_m01_k00_force_ub3lyp_def2qzvpd.wfx"


 LET US PLACE AT THE END OF EVERY CHAPTER.....THE
 TWO LETTERS USED BY THE ROMAN JUDGES WHEN THEY DID
 NOT UNDERSTAND A PLEADING.
 N. L. -NON LIQUET- IT IS NOT CLEAR.
                                              -- VOLTAIRE
 Job cpu time:       0 days  0 hours  4 minutes 30.7 seconds.
 Elapsed time:       0 days  0 hours  2 minutes 15.2 seconds.
 File lengths (MBytes):  RWF=     84 Int=      0 D2E=      0 Chk=     11 Scr=      1
 Normal termination of Gaussian 16 at Tue Jan  3 09:21:44 2023.
