 Entering Gaussian System, Link 0=g16
 Input=0002_q000_m01_k00_force_ub3lyp_def2svpd.com
 Output=0002_q000_m01_k00_force_ub3lyp_def2svpd.log
 Initial command:
 /opt/software/gaussian/g16.c01/l1.exe "/localscratch/bhavuk.2151355.0/Gau-6125.inp" -scrdir="/localscratch/bhavuk.2151355.0/"
 Entering Link 1 = /opt/software/gaussian/g16.c01/l1.exe PID=      6126.
  
 Copyright (c) 1988-2019, Gaussian, Inc.  All Rights Reserved.
  
 This is part of the Gaussian(R) 16 program.  It is based on
 the Gaussian(R) 09 system (copyright 2009, Gaussian, Inc.),
 the Gaussian(R) 03 system (copyright 2003, Gaussian, Inc.),
 the Gaussian(R) 98 system (copyright 1998, Gaussian, Inc.),
 the Gaussian(R) 94 system (copyright 1995, Gaussian, Inc.),
 the Gaussian 92(TM) system (copyright 1992, Gaussian, Inc.),
 the Gaussian 90(TM) system (copyright 1990, Gaussian, Inc.),
 the Gaussian 88(TM) system (copyright 1988, Gaussian, Inc.),
 the Gaussian 86(TM) system (copyright 1986, Carnegie Mellon
 University), and the Gaussian 82(TM) system (copyright 1983,
 Carnegie Mellon University). Gaussian is a federally registered
 trademark of Gaussian, Inc.
  
 This software contains proprietary and confidential information,
 including trade secrets, belonging to Gaussian, Inc.
  
 This software is provided under written license and may be
 used, copied, transmitted, or stored only in accord with that
 written license.
  
 The following legend is applicable only to US Government
 contracts under FAR:
  
                    RESTRICTED RIGHTS LEGEND
  
 Use, reproduction and disclosure by the US Government is
 subject to restrictions as set forth in subparagraphs (a)
 and (c) of the Commercial Computer Software - Restricted
 Rights clause in FAR 52.227-19.
  
 Gaussian, Inc.
 340 Quinnipiac St., Bldg. 40, Wallingford CT 06492
  
  
 ---------------------------------------------------------------
 Warning -- This program may not be used in any manner that
 competes with the business of Gaussian, Inc. or will provide
 assistance to any competitor of Gaussian, Inc.  The licensee
 of this program is prohibited from giving any competitor of
 Gaussian, Inc. access to this program.  By using this program,
 the user acknowledges that Gaussian, Inc. is engaged in the
 business of creating and licensing software in the field of
 computational chemistry and represents and warrants to the
 licensee that it is not a competitor of Gaussian, Inc. and that
 it will not use this program in any manner prohibited above.
 ---------------------------------------------------------------
  

 Cite this work as:
 Gaussian 16, Revision C.01,
 M. J. Frisch, G. W. Trucks, H. B. Schlegel, G. E. Scuseria, 
 M. A. Robb, J. R. Cheeseman, G. Scalmani, V. Barone, 
 G. A. Petersson, H. Nakatsuji, X. Li, M. Caricato, A. V. Marenich, 
 J. Bloino, B. G. Janesko, R. Gomperts, B. Mennucci, H. P. Hratchian, 
 J. V. Ortiz, A. F. Izmaylov, J. L. Sonnenberg, D. Williams-Young, 
 F. Ding, F. Lipparini, F. Egidi, J. Goings, B. Peng, A. Petrone, 
 T. Henderson, D. Ranasinghe, V. G. Zakrzewski, J. Gao, N. Rega, 
 G. Zheng, W. Liang, M. Hada, M. Ehara, K. Toyota, R. Fukuda, 
 J. Hasegawa, M. Ishida, T. Nakajima, Y. Honda, O. Kitao, H. Nakai, 
 T. Vreven, K. Throssell, J. A. Montgomery, Jr., J. E. Peralta, 
 F. Ogliaro, M. J. Bearpark, J. J. Heyd, E. N. Brothers, K. N. Kudin, 
 V. N. Staroverov, T. A. Keith, R. Kobayashi, J. Normand, 
 K. Raghavachari, A. P. Rendell, J. C. Burant, S. S. Iyengar, 
 J. Tomasi, M. Cossi, J. M. Millam, M. Klene, C. Adamo, R. Cammi, 
 J. W. Ochterski, R. L. Martin, K. Morokuma, O. Farkas, 
 J. B. Foresman, and D. J. Fox, Gaussian, Inc., Wallingford CT, 2019.
 
 ******************************************
 Gaussian 16:  ES64L-G16RevC.01  3-Jul-2019
                 3-Jan-2023 
 ******************************************
 %chk=0002_q000_m01_k00_force_ub3lyp_def2svpd.chk
 %nprocshared=2
 Will use up to    2 processors via shared memory.
 %mem=4GB
 ----------------------------------------------------------------------
 #p ub3lyp/gen stable=opt scf=(maxcycle=900,verytightlineq,xqc) integra
 l=grid=ultrafine symmetry=None density=current iop(99/18=-1) output=wf
 n
 ----------------------------------------------------------------------
 1/38=1,172=1/1;
 2/12=2,15=3,17=6,18=5,40=1/2;
 3/5=7,11=2,25=1,30=1,74=-5,75=-5,116=2/1,2,3;
 4//1;
 5/5=2,7=900,8=3,13=1,17=3,38=5/2,8;
 6/7=2,8=2,9=2,10=2,22=-1,28=1/1;
 8/6=1,10=90,11=11/1;
 9/8=-3,42=1,46=1/14;
 5/5=2,7=900,8=3,17=43,38=5/8(-2);
 6/7=2,8=2,9=2,10=2,22=-1,28=1/1;
 99/5=1,6=100,9=1,18=-1/99;
 Leave Link    1 at Tue Jan  3 09:04:14 2023, MaxMem=   536870912 cpu:               0.1 elap:               0.1
 (Enter /opt/software/gaussian/g16.c01/l101.exe)
 ----------------------------------------------------------------------
 0002_q000_m01_k00_opt_uwb97xd_def2svpd/0002_q000_m01_k00_force_ub3lyp_
 def2svpd stable-force
 ----------------------------------------------------------------------
 Symbolic Z-matrix:
 Charge =  0 Multiplicity = 1
 C                     0.93414  -0.05061   0.05339 
 N                     2.23036  -0.06073   0.09715 
 H                     2.71043   0.14456  -0.79294 
 O                     2.9769   -0.2864    1.07559 
 H                     0.46025   0.16918  -0.89982 
 H                     0.38334  -0.26134   0.96696 
 
 ITRead=  0  0  0  0  0  0
 MicOpt= -1 -1 -1 -1 -1 -1
 NAtoms=      6 NQM=        6 NQMF=       0 NMMI=      0 NMMIF=      0
                NMic=       0 NMicF=      0.
                    Isotopes and Nuclear Properties:
 (Nuclear quadrupole moments (NQMom) in fm**2, nuclear magnetic moments (NMagM)
  in nuclear magnetons)

  Atom         1           2           3           4           5           6
 IAtWgt=          12          14           1          16           1           1
 AtmWgt=  12.0000000  14.0030740   1.0078250  15.9949146   1.0078250   1.0078250
 NucSpn=           0           2           1           0           1           1
 AtZEff=  -0.0000000  -0.0000000  -0.0000000  -0.0000000  -0.0000000  -0.0000000
 NQMom=    0.0000000   2.0440000   0.0000000   0.0000000   0.0000000   0.0000000
 NMagM=    0.0000000   0.4037610   2.7928460   0.0000000   2.7928460   2.7928460
 AtZNuc=   6.0000000   7.0000000   1.0000000   8.0000000   1.0000000   1.0000000
 Leave Link  101 at Tue Jan  3 09:04:15 2023, MaxMem=   536870912 cpu:               0.5 elap:               0.3
 (Enter /opt/software/gaussian/g16.c01/l202.exe)
                          Input orientation:                          
 ---------------------------------------------------------------------
 Center     Atomic      Atomic             Coordinates (Angstroms)
 Number     Number       Type             X           Y           Z
 ---------------------------------------------------------------------
      1          6           0        0.934136   -0.050610    0.053392
      2          7           0        2.230356   -0.060728    0.097153
      3          1           0        2.710430    0.144555   -0.792940
      4          8           0        2.976899   -0.286398    1.075595
      5          1           0        0.460247    0.169182   -0.899820
      6          1           0        0.383342   -0.261341    0.966961
 ---------------------------------------------------------------------
                    Distance matrix (angstroms):
                    1          2          3          4          5
     1  C    0.000000
     2  N    1.296998   0.000000
     3  H    1.977268   1.031929   0.000000
     4  O    2.296383   1.251239   1.936013   0.000000
     5  H    1.086964   2.044529   2.252854   3.231617   0.000000
     6  H    1.087378   2.051408   2.945733   2.595952   1.917325
                    6
     6  H    0.000000
 Symmetry turned off by external request.
 Stoichiometry    CH3NO
 Rotational constants (GHZ):          75.8819039          11.9122881          10.2959784
 Leave Link  202 at Tue Jan  3 09:04:15 2023, MaxMem=   536870912 cpu:               0.0 elap:               0.0
 (Enter /opt/software/gaussian/g16.c01/l301.exe)
 General basis read from cards:  (5D, 7F)
 Centers:       3      5      6
 S 3 1.00
     Exponent=  1.3010701000D+01 Coefficients=  1.9682158000D-02
     Exponent=  1.9622572000D+00 Coefficients=  1.3796524000D-01
     Exponent=  4.4453796000D-01 Coefficients=  4.7831935000D-01
 S 1 1.00
     Exponent=  1.2194962000D-01 Coefficients=  1.0000000000D+00
 P 1 1.00
     Exponent=  8.0000000000D-01 Coefficients=  1.0000000000D+00
 P 1 1.00
     Exponent=  1.1704099050D-01 Coefficients=  1.0000000000D+00
 ****
 Centers:       1
 S 5 1.00
     Exponent=  1.2384016938D+03 Coefficients=  5.4568832082D-03
     Exponent=  1.8629004992D+02 Coefficients=  4.0638409211D-02
     Exponent=  4.2251176346D+01 Coefficients=  1.8025593888D-01
     Exponent=  1.1676557932D+01 Coefficients=  4.6315121755D-01
     Exponent=  3.5930506482D+00 Coefficients=  4.4087173314D-01
 S 1 1.00
     Exponent=  4.0245147363D-01 Coefficients=  1.0000000000D+00
 S 1 1.00
     Exponent=  1.3090182668D-01 Coefficients=  1.0000000000D+00
 S 1 1.00
     Exponent=  6.7053540256D-02 Coefficients=  1.0000000000D+00
 P 3 1.00
     Exponent=  9.4680970621D+00 Coefficients=  3.8387871728D-02
     Exponent=  2.0103545142D+00 Coefficients=  2.1117025112D-01
     Exponent=  5.4771004707D-01 Coefficients=  5.1328172114D-01
 P 1 1.00
     Exponent=  1.5268613795D-01 Coefficients=  1.0000000000D+00
 D 1 1.00
     Exponent=  8.0000000000D-01 Coefficients=  1.0000000000D+00
 D 1 1.00
     Exponent=  1.1713185140D-01 Coefficients=  1.0000000000D+00
 ****
 Centers:       2
 S 5 1.00
     Exponent=  1.7128415853D+03 Coefficients= -5.3934125305D-03
     Exponent=  2.5764812677D+02 Coefficients= -4.0221581118D-02
     Exponent=  5.8458245853D+01 Coefficients= -1.7931144990D-01
     Exponent=  1.6198367905D+01 Coefficients= -4.6376317823D-01
     Exponent=  5.0052600809D+00 Coefficients= -4.4171422662D-01
 S 1 1.00
     Exponent=  5.8731856571D-01 Coefficients=  1.0000000000D+00
 S 1 1.00
     Exponent=  1.8764592253D-01 Coefficients=  1.0000000000D+00
 S 1 1.00
     Exponent=  9.6171241529D-02 Coefficients=  1.0000000000D+00
 P 3 1.00
     Exponent=  1.3571470233D+01 Coefficients= -4.0072398852D-02
     Exponent=  2.9257372874D+00 Coefficients= -2.1807045028D-01
     Exponent=  7.9927750754D-01 Coefficients= -5.1294466049D-01
 P 1 1.00
     Exponent=  2.1954348034D-01 Coefficients=  1.0000000000D+00
 D 1 1.00
     Exponent=  1.0000000000D+00 Coefficients=  1.0000000000D+00
 D 1 1.00
     Exponent=  1.6697708112D-01 Coefficients=  1.0000000000D+00
 ****
 Centers:       4
 S 5 1.00
     Exponent=  2.2661767785D+03 Coefficients= -5.3431809926D-03
     Exponent=  3.4087010191D+02 Coefficients= -3.9890039230D-02
     Exponent=  7.7363135167D+01 Coefficients= -1.7853911985D-01
     Exponent=  2.1479644940D+01 Coefficients= -4.6427684959D-01
     Exponent=  6.6589433124D+00 Coefficients= -4.4309745172D-01
 S 1 1.00
     Exponent=  8.0975975668D-01 Coefficients=  1.0000000000D+00
 S 1 1.00
     Exponent=  2.5530772234D-01 Coefficients=  1.0000000000D+00
 S 1 1.00
     Exponent=  7.6572453250D-02 Coefficients=  1.0000000000D+00
 P 3 1.00
     Exponent=  1.7721504317D+01 Coefficients=  4.3394573193D-02
     Exponent=  3.8635505440D+00 Coefficients=  2.3094120765D-01
     Exponent=  1.0480920883D+00 Coefficients=  5.1375311064D-01
 P 1 1.00
     Exponent=  2.7641544411D-01 Coefficients=  1.0000000000D+00
 P 1 1.00
     Exponent=  6.9002276350D-02 Coefficients=  1.0000000000D+00
 D 1 1.00
     Exponent=  1.2000000000D+00 Coefficients=  1.0000000000D+00
 D 1 1.00
     Exponent=  1.7992024323D-01 Coefficients=  1.0000000000D+00
 ****
 Ernie: Thresh=  0.10000D-02 Tol=  0.10000D-05 Strict=F.
    87 basis functions,   129 primitive gaussians,    93 cartesian basis functions
    12 alpha electrons       12 beta electrons
       nuclear repulsion energy        72.3526514420 Hartrees.
 IExCor=  402 DFT=T Ex+Corr=B3LYP ExCW=0 ScaHFX=  0.200000
 ScaDFX=  0.800000  0.720000  1.000000  0.810000 ScalE2=  1.000000  1.000000
 IRadAn=      5 IRanWt=     -1 IRanGd=            0 ICorTp=0 IEmpDi=  4
 NAtoms=    6 NActive=    6 NUniq=    6 SFac= 1.00D+00 NAtFMM=   60 NAOKFM=F Big=F
 Integral buffers will be    131072 words long.
 Raffenetti 2 integral format.
 Two-electron integral symmetry is turned off.
 Leave Link  301 at Tue Jan  3 09:04:15 2023, MaxMem=   536870912 cpu:               0.2 elap:               0.1
 (Enter /opt/software/gaussian/g16.c01/l302.exe)
 NPDir=0 NMtPBC=     1 NCelOv=     1 NCel=       1 NClECP=     1 NCelD=      1
         NCelK=      1 NCelE2=     1 NClLst=     1 CellRange=     0.0.
 One-electron integrals computed using PRISM.
 NBasis=    87 RedAO= T EigKep=  2.05D-04  NBF=    87
 NBsUse=    87 1.00D-06 EigRej= -1.00D+00 NBFU=    87
 Precomputing XC quadrature grid using
 IXCGrd= 4 IRadAn=           5 IRanWt=          -1 IRanGd=           0 AccXCQ= 0.00D+00.
 Generated NRdTot=       0 NPtTot=           0 NUsed=           0 NTot=          32
 NSgBfM=    93    93    93    93    93 MxSgAt=     6 MxSgA2=     6.
 Leave Link  302 at Tue Jan  3 09:04:15 2023, MaxMem=   536870912 cpu:               0.4 elap:               0.2
 (Enter /opt/software/gaussian/g16.c01/l303.exe)
 DipDrv:  MaxL=1.
 Leave Link  303 at Tue Jan  3 09:04:15 2023, MaxMem=   536870912 cpu:               0.1 elap:               0.1
 (Enter /opt/software/gaussian/g16.c01/l401.exe)
 ExpMin= 6.71D-02 ExpMax= 2.27D+03 ExpMxC= 3.41D+02 IAcc=3 IRadAn=         5 AccDes= 0.00D+00
 Harris functional with IExCor=  402 and IRadAn=       5 diagonalized for initial guess.
 HarFok:  IExCor=  402 AccDes= 0.00D+00 IRadAn=         5 IDoV= 1 UseB2=F ITyADJ=14
 ICtDFT=  3500011 ScaDFX=  1.000000  1.000000  1.000000  1.000000
 FoFCou: FMM=F IPFlag=           0 FMFlag=      100000 FMFlg1=           0
         NFxFlg=           0 DoJE=T BraDBF=F KetDBF=T FulRan=T
         wScrn=  0.000000 ICntrl=       500 IOpCl=  0 I1Cent=   200000004 NGrid=           0
         NMat0=    1 NMatS0=      1 NMatT0=    0 NMatD0=    1 NMtDS0=    0 NMtDT0=    0
 Symmetry not used in FoFCou.
 Harris En= -169.702310787821    
 JPrj=0 DoOrth=F DoCkMO=F.
 Initial guess <Sx>= 0.0000 <Sy>= 0.0000 <Sz>= 0.0000 <S**2>=-0.0000 S=-0.0000
 Leave Link  401 at Tue Jan  3 09:04:16 2023, MaxMem=   536870912 cpu:               1.0 elap:               0.5
 (Enter /opt/software/gaussian/g16.c01/l502.exe)
 Keep R1 and R2 ints in memory in canonical form, NReq=16494677.
 FoFCou: FMM=F IPFlag=           0 FMFlag=           0 FMFlg1=           0
         NFxFlg=           0 DoJE=F BraDBF=F KetDBF=F FulRan=T
         wScrn=  0.000000 ICntrl=       600 IOpCl=  0 I1Cent=           0 NGrid=           0
         NMat0=    1 NMatS0=   3828 NMatT0=    0 NMatD0=    1 NMtDS0=    0 NMtDT0=    0
 Symmetry not used in FoFCou.
 Two-electron integral symmetry not used.
 UHF open shell SCF:
 Using DIIS extrapolation, IDIIS=  1040.
 NGot=   536870912 LenX=   522194701 LenY=   522185611
 Requested convergence on RMS density matrix=1.00D-08 within 128 cycles.
 Requested convergence on MAX density matrix=1.00D-06.
 Requested convergence on             energy=1.00D-06.
 No special actions if energy rises.
 Integral accuracy reduced to 1.0D-05 until final iterations.

 Cycle   1  Pass 0  IDiag  1:
 E= -169.608195618783    
 DIIS: error= 2.99D-02 at cycle   1 NSaved=   1.
 NSaved= 1 IEnMin= 1 EnMin= -169.608195618783     IErMin= 1 ErrMin= 2.99D-02
 ErrMax= 2.99D-02  0.00D+00 EMaxC= 1.00D-01 BMatC= 3.85D-01 BMatP= 3.85D-01
 IDIUse=3 WtCom= 7.01D-01 WtEn= 2.99D-01
 Coeff-Com:  0.100D+01
 Coeff-En:   0.100D+01
 Coeff:      0.100D+01
 Gap=     0.141 Goal=   None    Shift=    0.000
 Gap=     0.141 Goal=   None    Shift=    0.000
 GapD=    0.141 DampG=1.000 DampE=0.500 DampFc=0.5000 IDamp=-1.
 Damping current iteration by 5.00D-01
 RMSDP=9.02D-03 MaxDP=1.81D-01              OVMax= 2.50D-01

 Cycle   2  Pass 0  IDiag  1:
 E= -169.609425705292     Delta-E=       -0.001230086509 Rises=F Damp=T
 DIIS: error= 1.90D-02 at cycle   2 NSaved=   2.
 NSaved= 2 IEnMin= 2 EnMin= -169.609425705292     IErMin= 2 ErrMin= 1.90D-02
 ErrMax= 1.90D-02  0.00D+00 EMaxC= 1.00D-01 BMatC= 1.23D-01 BMatP= 3.85D-01
 IDIUse=3 WtCom= 8.10D-01 WtEn= 1.90D-01
 Coeff-Com:  0.329D+00 0.671D+00
 Coeff-En:   0.494D+00 0.506D+00
 Coeff:      0.360D+00 0.640D+00
 Gap=     0.283 Goal=   None    Shift=    0.000
 Gap=     0.283 Goal=   None    Shift=    0.000
 RMSDP=3.53D-03 MaxDP=6.92D-02 DE=-1.23D-03 OVMax= 2.48D-01

 Cycle   3  Pass 0  IDiag  1:
 E= -169.663122747032     Delta-E=       -0.053697041740 Rises=F Damp=F
 DIIS: error= 1.55D-02 at cycle   3 NSaved=   3.
 NSaved= 3 IEnMin= 3 EnMin= -169.663122747032     IErMin= 3 ErrMin= 1.55D-02
 ErrMax= 1.55D-02  0.00D+00 EMaxC= 1.00D-01 BMatC= 1.05D-01 BMatP= 1.23D-01
 IDIUse=3 WtCom= 8.45D-01 WtEn= 1.55D-01
 EnCoef did     2 forward-backward iterations
 Coeff-Com:  0.167D+00 0.456D+00 0.377D+00
 Coeff-En:   0.380D-01 0.782D-01 0.884D+00
 Coeff:      0.147D+00 0.398D+00 0.455D+00
 Gap=     0.193 Goal=   None    Shift=    0.000
 Gap=     0.193 Goal=   None    Shift=    0.000
 RMSDP=2.54D-03 MaxDP=7.12D-02 DE=-5.37D-02 OVMax= 1.50D-01

 Cycle   4  Pass 0  IDiag  1:
 E= -169.682629043794     Delta-E=       -0.019506296762 Rises=F Damp=F
 DIIS: error= 8.38D-03 at cycle   4 NSaved=   4.
 NSaved= 4 IEnMin= 4 EnMin= -169.682629043794     IErMin= 4 ErrMin= 8.38D-03
 ErrMax= 8.38D-03  0.00D+00 EMaxC= 1.00D-01 BMatC= 3.21D-02 BMatP= 1.05D-01
 IDIUse=3 WtCom= 9.16D-01 WtEn= 8.38D-02
 Coeff-Com:  0.542D-01 0.138D+00 0.339D+00 0.469D+00
 Coeff-En:   0.000D+00 0.000D+00 0.282D+00 0.718D+00
 Coeff:      0.496D-01 0.126D+00 0.334D+00 0.490D+00
 Gap=     0.199 Goal=   None    Shift=    0.000
 Gap=     0.199 Goal=   None    Shift=    0.000
 RMSDP=9.43D-04 MaxDP=2.50D-02 DE=-1.95D-02 OVMax= 5.67D-02

 Cycle   5  Pass 0  IDiag  1:
 E= -169.690191719617     Delta-E=       -0.007562675823 Rises=F Damp=F
 DIIS: error= 1.31D-03 at cycle   5 NSaved=   5.
 NSaved= 5 IEnMin= 5 EnMin= -169.690191719617     IErMin= 5 ErrMin= 1.31D-03
 ErrMax= 1.31D-03  0.00D+00 EMaxC= 1.00D-01 BMatC= 8.53D-04 BMatP= 3.21D-02
 IDIUse=3 WtCom= 9.87D-01 WtEn= 1.31D-02
 Coeff-Com:  0.543D-02 0.142D-01 0.119D+00 0.250D+00 0.611D+00
 Coeff-En:   0.000D+00 0.000D+00 0.000D+00 0.000D+00 0.100D+01
 Coeff:      0.535D-02 0.140D-01 0.117D+00 0.247D+00 0.616D+00
 Gap=     0.201 Goal=   None    Shift=    0.000
 Gap=     0.201 Goal=   None    Shift=    0.000
 RMSDP=1.57D-04 MaxDP=3.75D-03 DE=-7.56D-03 OVMax= 5.86D-03

 Cycle   6  Pass 0  IDiag  1:
 E= -169.690384571140     Delta-E=       -0.000192851523 Rises=F Damp=F
 DIIS: error= 2.57D-04 at cycle   6 NSaved=   6.
 NSaved= 6 IEnMin= 6 EnMin= -169.690384571140     IErMin= 6 ErrMin= 2.57D-04
 ErrMax= 2.57D-04  0.00D+00 EMaxC= 1.00D-01 BMatC= 2.87D-05 BMatP= 8.53D-04
 IDIUse=3 WtCom= 9.97D-01 WtEn= 2.57D-03
 Coeff-Com: -0.203D-02-0.214D-02 0.144D-01 0.390D-01 0.218D+00 0.733D+00
 Coeff-En:   0.000D+00 0.000D+00 0.000D+00 0.000D+00 0.000D+00 0.100D+01
 Coeff:     -0.202D-02-0.213D-02 0.144D-01 0.389D-01 0.217D+00 0.734D+00
 Gap=     0.201 Goal=   None    Shift=    0.000
 Gap=     0.201 Goal=   None    Shift=    0.000
 RMSDP=3.17D-05 MaxDP=4.22D-04 DE=-1.93D-04 OVMax= 5.92D-04

 Cycle   7  Pass 0  IDiag  1:
 E= -169.690390602180     Delta-E=       -0.000006031041 Rises=F Damp=F
 DIIS: error= 1.80D-05 at cycle   7 NSaved=   7.
 NSaved= 7 IEnMin= 7 EnMin= -169.690390602180     IErMin= 7 ErrMin= 1.80D-05
 ErrMax= 1.80D-05  0.00D+00 EMaxC= 1.00D-01 BMatC= 2.16D-07 BMatP= 2.87D-05
 IDIUse=1 WtCom= 1.00D+00 WtEn= 0.00D+00
 Coeff-Com: -0.440D-03-0.171D-03 0.335D-03 0.466D-03 0.266D-01 0.112D+00
 Coeff-Com:  0.861D+00
 Coeff:     -0.440D-03-0.171D-03 0.335D-03 0.466D-03 0.266D-01 0.112D+00
 Coeff:      0.861D+00
 Gap=     0.201 Goal=   None    Shift=    0.000
 Gap=     0.201 Goal=   None    Shift=    0.000
 RMSDP=5.25D-06 MaxDP=1.20D-04 DE=-6.03D-06 OVMax= 1.26D-04

 Initial convergence to 1.0D-05 achieved.  Increase integral accuracy.
 Cycle   8  Pass 1  IDiag  1:
 E= -169.690392132085     Delta-E=       -0.000001529905 Rises=F Damp=F
 DIIS: error= 3.39D-06 at cycle   1 NSaved=   1.
 NSaved= 1 IEnMin= 1 EnMin= -169.690392132085     IErMin= 1 ErrMin= 3.39D-06
 ErrMax= 3.39D-06  0.00D+00 EMaxC= 1.00D-01 BMatC= 1.09D-08 BMatP= 1.09D-08
 IDIUse=1 WtCom= 1.00D+00 WtEn= 0.00D+00
 Coeff-Com:  0.100D+01
 Coeff:      0.100D+01
 Gap=     0.201 Goal=   None    Shift=    0.000
 Gap=     0.201 Goal=   None    Shift=    0.000
 RMSDP=5.25D-06 MaxDP=1.20D-04 DE=-1.53D-06 OVMax= 6.95D-05

 Cycle   9  Pass 1  IDiag  1:
 E= -169.690392128854     Delta-E=        0.000000003231 Rises=F Damp=F
 DIIS: error= 1.00D-05 at cycle   2 NSaved=   2.
 NSaved= 2 IEnMin= 1 EnMin= -169.690392132085     IErMin= 1 ErrMin= 3.39D-06
 ErrMax= 1.00D-05  0.00D+00 EMaxC= 1.00D-01 BMatC= 3.07D-08 BMatP= 1.09D-08
 IDIUse=1 WtCom= 1.00D+00 WtEn= 0.00D+00
 Coeff-Com:  0.646D+00 0.354D+00
 Coeff:      0.646D+00 0.354D+00
 Gap=     0.201 Goal=   None    Shift=    0.000
 Gap=     0.201 Goal=   None    Shift=    0.000
 RMSDP=1.09D-06 MaxDP=2.95D-05 DE= 3.23D-09 OVMax= 6.13D-05

 Cycle  10  Pass 1  IDiag  1:
 E= -169.690392134497     Delta-E=       -0.000000005643 Rises=F Damp=F
 DIIS: error= 3.50D-06 at cycle   3 NSaved=   3.
 NSaved= 3 IEnMin= 3 EnMin= -169.690392134497     IErMin= 1 ErrMin= 3.39D-06
 ErrMax= 3.50D-06  0.00D+00 EMaxC= 1.00D-01 BMatC= 4.21D-09 BMatP= 1.09D-08
 IDIUse=1 WtCom= 1.00D+00 WtEn= 0.00D+00
 Coeff-Com:  0.222D+00 0.261D+00 0.517D+00
 Coeff:      0.222D+00 0.261D+00 0.517D+00
 Gap=     0.201 Goal=   None    Shift=    0.000
 Gap=     0.201 Goal=   None    Shift=    0.000
 RMSDP=3.89D-07 MaxDP=8.38D-06 DE=-5.64D-09 OVMax= 1.99D-05

 Cycle  11  Pass 1  IDiag  1:
 E= -169.690392135443     Delta-E=       -0.000000000946 Rises=F Damp=F
 DIIS: error= 7.24D-07 at cycle   4 NSaved=   4.
 NSaved= 4 IEnMin= 4 EnMin= -169.690392135443     IErMin= 4 ErrMin= 7.24D-07
 ErrMax= 7.24D-07  0.00D+00 EMaxC= 1.00D-01 BMatC= 1.45D-10 BMatP= 4.21D-09
 IDIUse=1 WtCom= 1.00D+00 WtEn= 0.00D+00
 Coeff-Com:  0.470D-01 0.874D-01 0.244D+00 0.622D+00
 Coeff:      0.470D-01 0.874D-01 0.244D+00 0.622D+00
 Gap=     0.201 Goal=   None    Shift=    0.000
 Gap=     0.201 Goal=   None    Shift=    0.000
 RMSDP=1.04D-07 MaxDP=2.07D-06 DE=-9.46D-10 OVMax= 3.72D-06

 Cycle  12  Pass 1  IDiag  1:
 E= -169.690392135466     Delta-E=       -0.000000000023 Rises=F Damp=F
 DIIS: error= 4.10D-07 at cycle   5 NSaved=   5.
 NSaved= 5 IEnMin= 5 EnMin= -169.690392135466     IErMin= 5 ErrMin= 4.10D-07
 ErrMax= 4.10D-07  0.00D+00 EMaxC= 1.00D-01 BMatC= 4.67D-11 BMatP= 1.45D-10
 IDIUse=1 WtCom= 1.00D+00 WtEn= 0.00D+00
 Coeff-Com: -0.110D-01 0.451D-02 0.471D-01 0.406D+00 0.553D+00
 Coeff:     -0.110D-01 0.451D-02 0.471D-01 0.406D+00 0.553D+00
 Gap=     0.201 Goal=   None    Shift=    0.000
 Gap=     0.201 Goal=   None    Shift=    0.000
 RMSDP=4.23D-08 MaxDP=9.60D-07 DE=-2.29D-11 OVMax= 1.33D-06

 Cycle  13  Pass 1  IDiag  1:
 E= -169.690392135477     Delta-E=       -0.000000000011 Rises=F Damp=F
 DIIS: error= 1.88D-08 at cycle   6 NSaved=   6.
 NSaved= 6 IEnMin= 6 EnMin= -169.690392135477     IErMin= 6 ErrMin= 1.88D-08
 ErrMax= 1.88D-08  0.00D+00 EMaxC= 1.00D-01 BMatC= 1.90D-13 BMatP= 4.67D-11
 IDIUse=1 WtCom= 1.00D+00 WtEn= 0.00D+00
 Coeff-Com: -0.343D-02-0.305D-04 0.326D-02 0.693D-01 0.120D+00 0.811D+00
 Coeff:     -0.343D-02-0.305D-04 0.326D-02 0.693D-01 0.120D+00 0.811D+00
 Gap=     0.201 Goal=   None    Shift=    0.000
 Gap=     0.201 Goal=   None    Shift=    0.000
 RMSDP=3.59D-09 MaxDP=4.29D-08 DE=-1.06D-11 OVMax= 1.13D-07

 SCF Done:  E(UB3LYP) =  -169.690392135     A.U. after   13 cycles
            NFock= 13  Conv=0.36D-08     -V/T= 2.0091
 <Sx>= 0.0000 <Sy>= 0.0000 <Sz>= 0.0000 <S**2>=-0.0000 S=-0.0000
 <L.S>=  0.00000000000    
 KE= 1.681587924196D+02 PE=-5.414961692869D+02 EE= 1.312943332898D+02
 Annihilation of the first spin contaminant:
 S**2 before annihilation    -0.0000,   after    -0.0000
 Leave Link  502 at Tue Jan  3 09:04:21 2023, MaxMem=   536870912 cpu:              10.5 elap:               5.4
 (Enter /opt/software/gaussian/g16.c01/l508.exe)
 QCSCF skips out because SCF is already converged.
 Leave Link  508 at Tue Jan  3 09:04:21 2023, MaxMem=   536870912 cpu:               0.0 elap:               0.0
 (Enter /opt/software/gaussian/g16.c01/l601.exe)
 Copying SCF densities to generalized density rwf, IOpCl= 1 IROHF=0.

 **********************************************************************

            Population analysis using the SCF Density.

 **********************************************************************

 Alpha  occ. eigenvalues --  -19.13223 -14.48667 -10.24172  -1.12063  -0.86742
 Alpha  occ. eigenvalues --   -0.67031  -0.55858  -0.49387  -0.46967  -0.43255
 Alpha  occ. eigenvalues --   -0.27287  -0.24920
 Alpha virt. eigenvalues --   -0.04833   0.00467   0.03773   0.09505   0.09928
 Alpha virt. eigenvalues --    0.11533   0.11834   0.13310   0.15938   0.17062
 Alpha virt. eigenvalues --    0.18376   0.21339   0.25193   0.25756   0.28435
 Alpha virt. eigenvalues --    0.29973   0.31654   0.33500   0.33877   0.35453
 Alpha virt. eigenvalues --    0.38541   0.40148   0.42645   0.43373   0.46240
 Alpha virt. eigenvalues --    0.47931   0.51771   0.54684   0.59753   0.60532
 Alpha virt. eigenvalues --    0.60893   0.62836   0.64391   0.66010   0.69123
 Alpha virt. eigenvalues --    0.72583   0.74525   0.84873   0.93645   0.96997
 Alpha virt. eigenvalues --    1.03290   1.06234   1.10134   1.15702   1.26303
 Alpha virt. eigenvalues --    1.40342   1.43053   1.49721   1.54932   1.56280
 Alpha virt. eigenvalues --    1.60621   1.61346   1.76769   1.77715   1.78290
 Alpha virt. eigenvalues --    1.90310   1.93303   2.03904   2.08549   2.16711
 Alpha virt. eigenvalues --    2.19017   2.20492   2.34514   2.40336   2.59602
 Alpha virt. eigenvalues --    2.61128   2.82002   2.87419   2.88094   2.98877
 Alpha virt. eigenvalues --    3.12106   3.20613   3.33090   3.59558   3.92743
  Beta  occ. eigenvalues --  -19.13223 -14.48667 -10.24172  -1.12063  -0.86742
  Beta  occ. eigenvalues --   -0.67031  -0.55858  -0.49387  -0.46967  -0.43255
  Beta  occ. eigenvalues --   -0.27287  -0.24920
  Beta virt. eigenvalues --   -0.04833   0.00467   0.03773   0.09505   0.09928
  Beta virt. eigenvalues --    0.11533   0.11834   0.13310   0.15938   0.17062
  Beta virt. eigenvalues --    0.18376   0.21339   0.25193   0.25756   0.28435
  Beta virt. eigenvalues --    0.29973   0.31654   0.33500   0.33877   0.35453
  Beta virt. eigenvalues --    0.38541   0.40148   0.42645   0.43373   0.46240
  Beta virt. eigenvalues --    0.47931   0.51771   0.54684   0.59753   0.60532
  Beta virt. eigenvalues --    0.60893   0.62836   0.64391   0.66010   0.69123
  Beta virt. eigenvalues --    0.72583   0.74525   0.84873   0.93645   0.96997
  Beta virt. eigenvalues --    1.03290   1.06234   1.10134   1.15702   1.26303
  Beta virt. eigenvalues --    1.40342   1.43053   1.49721   1.54932   1.56280
  Beta virt. eigenvalues --    1.60621   1.61346   1.76769   1.77715   1.78290
  Beta virt. eigenvalues --    1.90310   1.93303   2.03904   2.08549   2.16711
  Beta virt. eigenvalues --    2.19017   2.20492   2.34514   2.40336   2.59602
  Beta virt. eigenvalues --    2.61128   2.82002   2.87419   2.88094   2.98877
  Beta virt. eigenvalues --    3.12106   3.20613   3.33090   3.59558   3.92743
          Condensed to atoms (all electrons):
               1          2          3          4          5          6
     1  C    4.194773   0.481542  -0.032327  -0.085542   0.300445   0.327548
     2  N    0.481542   5.382854   0.443057   0.381465   0.014796   0.010446
     3  H   -0.032327   0.443057   0.823084  -0.087131  -0.039858   0.009044
     4  O   -0.085542   0.381465  -0.087131   8.244823  -0.002364  -0.027852
     5  H    0.300445   0.014796  -0.039858  -0.002364   1.161849  -0.158110
     6  H    0.327548   0.010446   0.009044  -0.027852  -0.158110   1.122296
          Atomic-Atomic Spin Densities.
               1          2          3          4          5          6
     1  C   -0.000000   0.000000  -0.000000  -0.000000  -0.000000  -0.000000
     2  N    0.000000   0.000000  -0.000000  -0.000000   0.000000   0.000000
     3  H   -0.000000  -0.000000  -0.000000  -0.000000   0.000000  -0.000000
     4  O   -0.000000  -0.000000  -0.000000   0.000000  -0.000000   0.000000
     5  H   -0.000000   0.000000   0.000000  -0.000000   0.000000   0.000000
     6  H   -0.000000   0.000000  -0.000000   0.000000   0.000000   0.000000
 Mulliken charges and spin densities:
               1          2
     1  C    0.813560  -0.000000
     2  N    0.285839   0.000000
     3  H   -0.115868  -0.000000
     4  O   -0.423399  -0.000000
     5  H   -0.276759   0.000000
     6  H   -0.283373   0.000000
 Sum of Mulliken charges =  -0.00000  -0.00000
 Mulliken charges and spin densities with hydrogens summed into heavy atoms:
               1          2
     1  C    0.253428  -0.000000
     2  N    0.169971   0.000000
     4  O   -0.423399  -0.000000
 Electronic spatial extent (au):  <R**2>=            517.0704
 Charge=             -0.0000 electrons
 Dipole moment (field-independent basis, Debye):
    X=             -2.1106    Y=              0.6670    Z=             -2.8923  Tot=              3.6421
 Quadrupole moment (field-independent basis, Debye-Ang):
   XX=            -26.8229   YY=            -19.1990   ZZ=            -19.3484
   XY=              2.2248   XZ=             -9.2957   YZ=              0.1597
 Traceless Quadrupole moment (field-independent basis, Debye-Ang):
   XX=             -5.0328   YY=              2.5911   ZZ=              2.4417
   XY=              2.2248   XZ=             -9.2957   YZ=              0.1597
 Octapole moment (field-independent basis, Debye-Ang**2):
  XXX=           -139.1455  YYY=              6.8284  ZZZ=            -23.8037  XYY=            -37.2620
  XXY=              9.0589  XXZ=            -34.8213  XZZ=            -41.6155  YZZ=              3.1807
  YYZ=             -6.8323  XYZ=              1.4576
 Hexadecapole moment (field-independent basis, Debye-Ang**3):
 XXXX=           -648.7768 YYYY=            -22.3983 ZZZZ=            -71.1423 XXXY=             37.9588
 XXXZ=           -141.4624 YYYX=             17.7104 YYYZ=              6.8491 ZZZX=            -67.5471
 ZZZY=              6.9357 XXYY=            -96.0092 XXZZ=           -117.0956 YYZZ=            -15.6804
 XXYZ=              6.6307 YYXZ=            -19.8654 ZZXY=              8.2961
 N-N= 7.235265144198D+01 E-N=-5.414961692470D+02  KE= 1.681587924196D+02
                          Isotropic Fermi Contact Couplings
        Atom                 a.u.       MegaHertz       Gauss      10(-4) cm-1
     1  C(13)             -0.00000      -0.00000      -0.00000      -0.00000
     2  N(14)              0.00000       0.00000       0.00000       0.00000
     3  H(1)               0.00000       0.00000       0.00000       0.00000
     4  O(17)             -0.00000       0.00000       0.00000       0.00000
     5  H(1)              -0.00000      -0.00000      -0.00000      -0.00000
     6  H(1)              -0.00000      -0.00000      -0.00000      -0.00000
 --------------------------------------------------------
       Center         ----  Spin Dipole Couplings  ----
                      3XX-RR        3YY-RR        3ZZ-RR
 --------------------------------------------------------
     1   Atom        0.000000      0.000000      0.000000
     2   Atom        0.000000      0.000000      0.000000
     3   Atom        0.000000      0.000000      0.000000
     4   Atom        0.000000      0.000000      0.000000
     5   Atom        0.000000      0.000000      0.000000
     6   Atom        0.000000      0.000000      0.000000
 --------------------------------------------------------
                        XY            XZ            YZ
 --------------------------------------------------------
     1   Atom        0.000000      0.000000      0.000000
     2   Atom        0.000000      0.000000      0.000000
     3   Atom        0.000000      0.000000      0.000000
     4   Atom        0.000000      0.000000      0.000000
     5   Atom        0.000000      0.000000      0.000000
     6   Atom        0.000000      0.000000      0.000000
 --------------------------------------------------------


 ---------------------------------------------------------------------------------
              Anisotropic Spin Dipole Couplings in Principal Axis System
 ---------------------------------------------------------------------------------

       Atom             a.u.   MegaHertz   Gauss  10(-4) cm-1        Axes

              Baa     0.0000     0.000     0.000     0.000  1.0000  0.0000  0.0000
     1 C(13)  Bbb     0.0000     0.000     0.000     0.000 -0.0000  1.0000  0.0000
              Bcc     0.0000     0.000     0.000     0.000  0.0000  0.0000  1.0000
 
              Baa     0.0000     0.000     0.000     0.000  1.0000  0.0000  0.0000
     2 N(14)  Bbb     0.0000     0.000     0.000     0.000 -0.0000  1.0000  0.0000
              Bcc     0.0000     0.000     0.000     0.000  0.0000  0.0000  1.0000
 
              Baa     0.0000     0.000     0.000     0.000  1.0000  0.0000  0.0000
     3 H(1)   Bbb     0.0000     0.000     0.000     0.000 -0.0000  1.0000  0.0000
              Bcc     0.0000     0.000     0.000     0.000  0.0000  0.0000  1.0000
 
              Baa     0.0000    -0.000    -0.000    -0.000  1.0000  0.0000  0.0000
     4 O(17)  Bbb     0.0000    -0.000    -0.000    -0.000 -0.0000  1.0000  0.0000
              Bcc     0.0000    -0.000    -0.000    -0.000  0.0000  0.0000  1.0000
 
              Baa     0.0000     0.000     0.000     0.000  1.0000  0.0000  0.0000
     5 H(1)   Bbb     0.0000     0.000     0.000     0.000 -0.0000  1.0000  0.0000
              Bcc     0.0000     0.000     0.000     0.000  0.0000  0.0000  1.0000
 
              Baa     0.0000     0.000     0.000     0.000  1.0000  0.0000  0.0000
     6 H(1)   Bbb     0.0000     0.000     0.000     0.000 -0.0000  1.0000  0.0000
              Bcc     0.0000     0.000     0.000     0.000  0.0000  0.0000  1.0000
 

 ---------------------------------------------------------------------------------

 No NMR shielding tensors so no spin-rotation constants.
 Leave Link  601 at Tue Jan  3 09:04:22 2023, MaxMem=   536870912 cpu:               0.3 elap:               0.2
 (Enter /opt/software/gaussian/g16.c01/l801.exe)
 DoSCS=F DFT=T ScalE2(SS,OS)=  1.000000  1.000000
 Range of M.O.s used for correlation:     1    87
 NBasis=    87 NAE=    12 NBE=    12 NFC=     0 NFV=     0
 NROrb=     87 NOA=    12 NOB=    12 NVA=    75 NVB=    75

 **** Warning!!: The largest alpha MO coefficient is  0.22079709D+02


 **** Warning!!: The largest beta MO coefficient is  0.22079709D+02

 Leave Link  801 at Tue Jan  3 09:04:22 2023, MaxMem=   536870912 cpu:               0.1 elap:               0.0
 (Enter /opt/software/gaussian/g16.c01/l914.exe)
 UHF ground state
 Doing stability rather than CIS.
 Keep R1 and R2 ints in memory in canonical form, NReq=17762839.
 FoFCou: FMM=F IPFlag=           0 FMFlag=           0 FMFlg1=           0
         NFxFlg=           0 DoJE=F BraDBF=F KetDBF=F FulRan=T
         wScrn=  0.000000 ICntrl=       600 IOpCl=  0 I1Cent=           0 NGrid=           0
         NMat0=    1 NMatS0=   3828 NMatT0=    0 NMatD0=    1 NMtDS0=    0 NMtDT0=    0
 Symmetry not used in FoFCou.
 Two-electron integral symmetry not used.
 MDV=   536870912 DFT=T DoStab=T Mixed=T DoRPA=F DoScal=F NonHer=F
 Making orbital integer symmetry assigments:
    12 initial guesses have been made.
 Convergence on wavefunction:    0.001000000000000
 Davidson Disk Diagonalization:  ConvIn= 1.00D-03 SkipCon=T Conv= 1.00D-03.
 Max sub-space:  2000 roots to seek:    12 dimension of matrix:         1800
 Iteration     1 Dimension    12 NMult     0 NNew     12
 CISAX will form    12 AO SS matrices at one time.
 NMat=    12 NSing=    12 JSym2X= 0.
 Excitation Energies [eV] at current iteration:
 Root      1 :     1.743042749706307
 Root      2 :     3.872102319147761
 Root      3 :     4.610555084123638
 Root      4 :     5.683481428788577
 Root      5 :     5.796214133184744
 Root      6 :     6.183194324025526
 Root      7 :     6.670535269410891
 Root      8 :     6.723277032616639
 Root      9 :     6.850189202046132
 Root     10 :     7.467758852913066
 Root     11 :     7.615810521676561
 Root     12 :    14.234921340268359
 Iteration     2 Dimension    24 NMult    12 NNew     12
 CISAX will form    12 AO SS matrices at one time.
 NMat=    12 NSing=    12 JSym2X= 0.
 Root      1 not converged, maximum delta is    0.077243838938155
 Excitation Energies [eV] at current iteration:
 Root      1 :     1.303061733963714   Change is   -0.439981015742592
 Root      2 :     3.689693110686687   Change is   -0.182409208461074
 Root      3 :     4.575357040200237   Change is   -0.035198043923401
 Root      4 :     5.605775587324953   Change is   -0.077705841463624
 Root      5 :     5.779345160953359   Change is   -0.016868972231385
 Root      6 :     6.000553674390529   Change is   -0.182640649634997
 Root      7 :     6.483118097440456   Change is   -0.240158935176182
 Root      8 :     6.566812989814354   Change is   -0.103722279596538
 Root      9 :     6.819635134500196   Change is   -0.030554067545936
 Root     10 :     7.359774330401497   Change is   -0.107984522511569
 Root     11 :     7.452117550685965   Change is   -0.163692970990597
 Root     12 :     9.481105277265884   Change is   -4.753816063002475
 Iteration     3 Dimension    27 NMult    24 NNew      3
 CISAX will form     3 AO SS matrices at one time.
 NMat=     3 NSing=     3 JSym2X= 0.
 Root      1 not converged, maximum delta is    0.012345558067930
 Excitation Energies [eV] at current iteration:
 Root      1 :     1.293644256565315   Change is   -0.009417477398400
 Root      2 :     3.687739457902401   Change is   -0.001953652784285
 Root      3 :     4.573301400508033   Change is   -0.002055639692205
 Iteration     4 Dimension    30 NMult    27 NNew      3
 CISAX will form     3 AO SS matrices at one time.
 NMat=     3 NSing=     3 JSym2X= 0.
 Root      1 not converged, maximum delta is    0.003297000456668
 Excitation Energies [eV] at current iteration:
 Root      1 :     1.293198627672463   Change is   -0.000445628892851
 Root      2 :     3.687717681383066   Change is   -0.000021776519335
 Root      3 :     4.573214684508612   Change is   -0.000086715999421
 Iteration     5 Dimension    33 NMult    30 NNew      3
 CISAX will form     3 AO SS matrices at one time.
 NMat=     3 NSing=     3 JSym2X= 0.
 Root      1 has converged.
 Excitation Energies [eV] at current iteration:
 Root      1 :     1.293187447286973   Change is   -0.000011180385490
 Root      2 :     3.687717108063383   Change is   -0.000000573319683
 Root      3 :     4.573210343862798   Change is   -0.000004340645814
 Convergence achieved on expansion vectors.
 ***********************************************************************
 Stability analysis using <AA,BB:AA,BB> singles matrix:
 ***********************************************************************
 1PDM for each excited state written to RWF  633
 Ground to excited state transition densities written to RWF  633

 Eigenvectors of the stability matrix:
 
 Excited state symmetry could not be determined.
 Eigenvector   1:  3.000-?Sym  Eigenvalue= 0.0475238  <S**2>=2.000
     12A -> 13A        0.69155
     12B -> 13B       -0.69155
 The wavefunction is stable under the perturbations considered.
 Leave Link  914 at Tue Jan  3 09:04:55 2023, MaxMem=   536870912 cpu:              66.2 elap:              33.1
 (Enter /opt/software/gaussian/g16.c01/l508.exe)
 The wavefunction is already stable.
 Leave Link  508 at Tue Jan  3 09:04:55 2023, MaxMem=   536870912 cpu:               0.0 elap:               0.0
 (Enter /opt/software/gaussian/g16.c01/l601.exe)
 Copying SCF densities to generalized density rwf, IOpCl= 1 IROHF=0.

 **********************************************************************

            Population analysis using the SCF Density.

 **********************************************************************

 Alpha  occ. eigenvalues --  -19.13223 -14.48667 -10.24172  -1.12063  -0.86742
 Alpha  occ. eigenvalues --   -0.67031  -0.55858  -0.49387  -0.46967  -0.43255
 Alpha  occ. eigenvalues --   -0.27287  -0.24920
 Alpha virt. eigenvalues --   -0.04833   0.00467   0.03773   0.09505   0.09928
 Alpha virt. eigenvalues --    0.11533   0.11834   0.13310   0.15938   0.17062
 Alpha virt. eigenvalues --    0.18376   0.21339   0.25193   0.25756   0.28435
 Alpha virt. eigenvalues --    0.29973   0.31654   0.33500   0.33877   0.35453
 Alpha virt. eigenvalues --    0.38541   0.40148   0.42645   0.43373   0.46240
 Alpha virt. eigenvalues --    0.47931   0.51771   0.54684   0.59753   0.60532
 Alpha virt. eigenvalues --    0.60893   0.62836   0.64391   0.66010   0.69123
 Alpha virt. eigenvalues --    0.72583   0.74525   0.84873   0.93645   0.96997
 Alpha virt. eigenvalues --    1.03290   1.06234   1.10134   1.15702   1.26303
 Alpha virt. eigenvalues --    1.40342   1.43053   1.49721   1.54932   1.56280
 Alpha virt. eigenvalues --    1.60621   1.61346   1.76769   1.77715   1.78290
 Alpha virt. eigenvalues --    1.90310   1.93303   2.03904   2.08549   2.16711
 Alpha virt. eigenvalues --    2.19017   2.20492   2.34514   2.40336   2.59602
 Alpha virt. eigenvalues --    2.61128   2.82002   2.87419   2.88094   2.98877
 Alpha virt. eigenvalues --    3.12106   3.20613   3.33090   3.59558   3.92743
  Beta  occ. eigenvalues --  -19.13223 -14.48667 -10.24172  -1.12063  -0.86742
  Beta  occ. eigenvalues --   -0.67031  -0.55858  -0.49387  -0.46967  -0.43255
  Beta  occ. eigenvalues --   -0.27287  -0.24920
  Beta virt. eigenvalues --   -0.04833   0.00467   0.03773   0.09505   0.09928
  Beta virt. eigenvalues --    0.11533   0.11834   0.13310   0.15938   0.17062
  Beta virt. eigenvalues --    0.18376   0.21339   0.25193   0.25756   0.28435
  Beta virt. eigenvalues --    0.29973   0.31654   0.33500   0.33877   0.35453
  Beta virt. eigenvalues --    0.38541   0.40148   0.42645   0.43373   0.46240
  Beta virt. eigenvalues --    0.47931   0.51771   0.54684   0.59753   0.60532
  Beta virt. eigenvalues --    0.60893   0.62836   0.64391   0.66010   0.69123
  Beta virt. eigenvalues --    0.72583   0.74525   0.84873   0.93645   0.96997
  Beta virt. eigenvalues --    1.03290   1.06234   1.10134   1.15702   1.26303
  Beta virt. eigenvalues --    1.40342   1.43053   1.49721   1.54932   1.56280
  Beta virt. eigenvalues --    1.60621   1.61346   1.76769   1.77715   1.78290
  Beta virt. eigenvalues --    1.90310   1.93303   2.03904   2.08549   2.16711
  Beta virt. eigenvalues --    2.19017   2.20492   2.34514   2.40336   2.59602
  Beta virt. eigenvalues --    2.61128   2.82002   2.87419   2.88094   2.98877
  Beta virt. eigenvalues --    3.12106   3.20613   3.33090   3.59558   3.92743
          Condensed to atoms (all electrons):
               1          2          3          4          5          6
     1  C    4.194773   0.481542  -0.032327  -0.085542   0.300445   0.327548
     2  N    0.481542   5.382854   0.443057   0.381465   0.014796   0.010446
     3  H   -0.032327   0.443057   0.823084  -0.087131  -0.039858   0.009044
     4  O   -0.085542   0.381465  -0.087131   8.244823  -0.002364  -0.027852
     5  H    0.300445   0.014796  -0.039858  -0.002364   1.161849  -0.158110
     6  H    0.327548   0.010446   0.009044  -0.027852  -0.158110   1.122296
          Atomic-Atomic Spin Densities.
               1          2          3          4          5          6
     1  C   -0.000000   0.000000  -0.000000  -0.000000  -0.000000  -0.000000
     2  N    0.000000   0.000000  -0.000000  -0.000000   0.000000   0.000000
     3  H   -0.000000  -0.000000  -0.000000  -0.000000   0.000000  -0.000000
     4  O   -0.000000  -0.000000  -0.000000   0.000000  -0.000000   0.000000
     5  H   -0.000000   0.000000   0.000000  -0.000000   0.000000   0.000000
     6  H   -0.000000   0.000000  -0.000000   0.000000   0.000000   0.000000
 Mulliken charges and spin densities:
               1          2
     1  C    0.813560  -0.000000
     2  N    0.285839   0.000000
     3  H   -0.115868  -0.000000
     4  O   -0.423399  -0.000000
     5  H   -0.276759   0.000000
     6  H   -0.283373   0.000000
 Sum of Mulliken charges =  -0.00000  -0.00000
 Mulliken charges and spin densities with hydrogens summed into heavy atoms:
               1          2
     1  C    0.253428  -0.000000
     2  N    0.169971   0.000000
     4  O   -0.423399  -0.000000
 Electronic spatial extent (au):  <R**2>=            517.0704
 Charge=             -0.0000 electrons
 Dipole moment (field-independent basis, Debye):
    X=             -2.1106    Y=              0.6670    Z=             -2.8923  Tot=              3.6421
 Quadrupole moment (field-independent basis, Debye-Ang):
   XX=            -26.8229   YY=            -19.1990   ZZ=            -19.3484
   XY=              2.2248   XZ=             -9.2957   YZ=              0.1597
 Traceless Quadrupole moment (field-independent basis, Debye-Ang):
   XX=             -5.0328   YY=              2.5911   ZZ=              2.4417
   XY=              2.2248   XZ=             -9.2957   YZ=              0.1597
 Octapole moment (field-independent basis, Debye-Ang**2):
  XXX=           -139.1455  YYY=              6.8284  ZZZ=            -23.8037  XYY=            -37.2620
  XXY=              9.0589  XXZ=            -34.8213  XZZ=            -41.6155  YZZ=              3.1807
  YYZ=             -6.8323  XYZ=              1.4576
 Hexadecapole moment (field-independent basis, Debye-Ang**3):
 XXXX=           -648.7768 YYYY=            -22.3983 ZZZZ=            -71.1423 XXXY=             37.9588
 XXXZ=           -141.4624 YYYX=             17.7104 YYYZ=              6.8491 ZZZX=            -67.5471
 ZZZY=              6.9357 XXYY=            -96.0092 XXZZ=           -117.0956 YYZZ=            -15.6804
 XXYZ=              6.6307 YYXZ=            -19.8654 ZZXY=              8.2961
 N-N= 7.235265144198D+01 E-N=-5.414961692470D+02  KE= 1.681587924196D+02
                          Isotropic Fermi Contact Couplings
        Atom                 a.u.       MegaHertz       Gauss      10(-4) cm-1
     1  C(13)             -0.00000      -0.00000      -0.00000      -0.00000
     2  N(14)              0.00000       0.00000       0.00000       0.00000
     3  H(1)               0.00000       0.00000       0.00000       0.00000
     4  O(17)             -0.00000       0.00000       0.00000       0.00000
     5  H(1)              -0.00000      -0.00000      -0.00000      -0.00000
     6  H(1)              -0.00000      -0.00000      -0.00000      -0.00000
 --------------------------------------------------------
       Center         ----  Spin Dipole Couplings  ----
                      3XX-RR        3YY-RR        3ZZ-RR
 --------------------------------------------------------
     1   Atom        0.000000      0.000000      0.000000
     2   Atom        0.000000      0.000000      0.000000
     3   Atom        0.000000      0.000000      0.000000
     4   Atom        0.000000      0.000000      0.000000
     5   Atom        0.000000      0.000000      0.000000
     6   Atom        0.000000      0.000000      0.000000
 --------------------------------------------------------
                        XY            XZ            YZ
 --------------------------------------------------------
     1   Atom        0.000000      0.000000      0.000000
     2   Atom        0.000000      0.000000      0.000000
     3   Atom        0.000000      0.000000      0.000000
     4   Atom        0.000000      0.000000      0.000000
     5   Atom        0.000000      0.000000      0.000000
     6   Atom        0.000000      0.000000      0.000000
 --------------------------------------------------------


 ---------------------------------------------------------------------------------
              Anisotropic Spin Dipole Couplings in Principal Axis System
 ---------------------------------------------------------------------------------

       Atom             a.u.   MegaHertz   Gauss  10(-4) cm-1        Axes

              Baa     0.0000     0.000     0.000     0.000  1.0000  0.0000  0.0000
     1 C(13)  Bbb     0.0000     0.000     0.000     0.000 -0.0000  1.0000  0.0000
              Bcc     0.0000     0.000     0.000     0.000  0.0000  0.0000  1.0000
 
              Baa     0.0000     0.000     0.000     0.000  1.0000  0.0000  0.0000
     2 N(14)  Bbb     0.0000     0.000     0.000     0.000 -0.0000  1.0000  0.0000
              Bcc     0.0000     0.000     0.000     0.000  0.0000  0.0000  1.0000
 
              Baa     0.0000     0.000     0.000     0.000  1.0000  0.0000  0.0000
     3 H(1)   Bbb     0.0000     0.000     0.000     0.000 -0.0000  1.0000  0.0000
              Bcc     0.0000     0.000     0.000     0.000  0.0000  0.0000  1.0000
 
              Baa     0.0000    -0.000    -0.000    -0.000  1.0000  0.0000  0.0000
     4 O(17)  Bbb     0.0000    -0.000    -0.000    -0.000 -0.0000  1.0000  0.0000
              Bcc     0.0000    -0.000    -0.000    -0.000  0.0000  0.0000  1.0000
 
              Baa     0.0000     0.000     0.000     0.000  1.0000  0.0000  0.0000
     5 H(1)   Bbb     0.0000     0.000     0.000     0.000 -0.0000  1.0000  0.0000
              Bcc     0.0000     0.000     0.000     0.000  0.0000  0.0000  1.0000
 
              Baa     0.0000     0.000     0.000     0.000  1.0000  0.0000  0.0000
     6 H(1)   Bbb     0.0000     0.000     0.000     0.000 -0.0000  1.0000  0.0000
              Bcc     0.0000     0.000     0.000     0.000  0.0000  0.0000  1.0000
 

 ---------------------------------------------------------------------------------

 No NMR shielding tensors so no spin-rotation constants.
 Leave Link  601 at Tue Jan  3 09:04:55 2023, MaxMem=   536870912 cpu:               0.3 elap:               0.1
 (Enter /opt/software/gaussian/g16.c01/l9999.exe)

 Test job not archived.
 1\1\GINC-GRA614\Stability\UB3LYP\Gen\C1H3N1O1\BHAVUK\03-Jan-2023\0\\#p
  ub3lyp/gen stable=opt scf=(maxcycle=900,verytightlineq,xqc) integral=
 grid=ultrafine symmetry=None density=current iop(99/18=-1) output=wfn\
 \0002_q000_m01_k00_opt_uwb97xd_def2svpd/0002_q000_m01_k00_force_ub3lyp
 _def2svpd stable-force\\0,1\C,0,0.9341359983,-0.0506101672,0.053391663
 3\N,0,2.2303561638,-0.0607282973,0.0971529523\H,0,2.7104299206,0.14455
 51233,-0.7929401941\O,0,2.9768985022,-0.2863976361,1.0755945973\H,0,0.
 4602474304,0.169181767,-0.8998201368\H,0,0.383341983,-0.2613407898,0.9
 669611147\\Version=ES64L-G16RevC.01\HF=-169.6903921\S2=0.\S2-1=0.\S2A=
 0.\RMSD=3.595e-09\Dipole=-0.8303794,0.2624221,-1.1379152\Quadrupole=-3
 .7417523,1.9264157,1.8153366,1.6540929,-6.9111457,0.118765\PG=Unknown\
 \@

 Writing a WFN file to "0002_q000_m01_k00_force_ub3lyp_def2svpd.wfn"


 GOOD SENSE ABOUT TRIVIALITIES IS BETTER THAN NONSENSE
 ABOUT THINGS THAT MATTER

                                       -- MAX BEERBOHM
 Job cpu time:       0 days  0 hours  1 minutes 20.1 seconds.
 Elapsed time:       0 days  0 hours  0 minutes 40.2 seconds.
 File lengths (MBytes):  RWF=     65 Int=      0 D2E=      0 Chk=      2 Scr=      1
 Normal termination of Gaussian 16 at Tue Jan  3 09:04:56 2023.
 Initial command:
 /opt/software/gaussian/g16.c01/l1.exe "/localscratch/bhavuk.2151355.0/Gau-6125.inp" -scrdir="/localscratch/bhavuk.2151355.0/"
 Entering Link 1 = /opt/software/gaussian/g16.c01/l1.exe PID=      6304.
  
 Copyright (c) 1988-2019, Gaussian, Inc.  All Rights Reserved.
  
 This is part of the Gaussian(R) 16 program.  It is based on
 the Gaussian(R) 09 system (copyright 2009, Gaussian, Inc.),
 the Gaussian(R) 03 system (copyright 2003, Gaussian, Inc.),
 the Gaussian(R) 98 system (copyright 1998, Gaussian, Inc.),
 the Gaussian(R) 94 system (copyright 1995, Gaussian, Inc.),
 the Gaussian 92(TM) system (copyright 1992, Gaussian, Inc.),
 the Gaussian 90(TM) system (copyright 1990, Gaussian, Inc.),
 the Gaussian 88(TM) system (copyright 1988, Gaussian, Inc.),
 the Gaussian 86(TM) system (copyright 1986, Carnegie Mellon
 University), and the Gaussian 82(TM) system (copyright 1983,
 Carnegie Mellon University). Gaussian is a federally registered
 trademark of Gaussian, Inc.
  
 This software contains proprietary and confidential information,
 including trade secrets, belonging to Gaussian, Inc.
  
 This software is provided under written license and may be
 used, copied, transmitted, or stored only in accord with that
 written license.
  
 The following legend is applicable only to US Government
 contracts under FAR:
  
                    RESTRICTED RIGHTS LEGEND
  
 Use, reproduction and disclosure by the US Government is
 subject to restrictions as set forth in subparagraphs (a)
 and (c) of the Commercial Computer Software - Restricted
 Rights clause in FAR 52.227-19.
  
 Gaussian, Inc.
 340 Quinnipiac St., Bldg. 40, Wallingford CT 06492
  
  
 ---------------------------------------------------------------
 Warning -- This program may not be used in any manner that
 competes with the business of Gaussian, Inc. or will provide
 assistance to any competitor of Gaussian, Inc.  The licensee
 of this program is prohibited from giving any competitor of
 Gaussian, Inc. access to this program.  By using this program,
 the user acknowledges that Gaussian, Inc. is engaged in the
 business of creating and licensing software in the field of
 computational chemistry and represents and warrants to the
 licensee that it is not a competitor of Gaussian, Inc. and that
 it will not use this program in any manner prohibited above.
 ---------------------------------------------------------------
  

 Cite this work as:
 Gaussian 16, Revision C.01,
 M. J. Frisch, G. W. Trucks, H. B. Schlegel, G. E. Scuseria, 
 M. A. Robb, J. R. Cheeseman, G. Scalmani, V. Barone, 
 G. A. Petersson, H. Nakatsuji, X. Li, M. Caricato, A. V. Marenich, 
 J. Bloino, B. G. Janesko, R. Gomperts, B. Mennucci, H. P. Hratchian, 
 J. V. Ortiz, A. F. Izmaylov, J. L. Sonnenberg, D. Williams-Young, 
 F. Ding, F. Lipparini, F. Egidi, J. Goings, B. Peng, A. Petrone, 
 T. Henderson, D. Ranasinghe, V. G. Zakrzewski, J. Gao, N. Rega, 
 G. Zheng, W. Liang, M. Hada, M. Ehara, K. Toyota, R. Fukuda, 
 J. Hasegawa, M. Ishida, T. Nakajima, Y. Honda, O. Kitao, H. Nakai, 
 T. Vreven, K. Throssell, J. A. Montgomery, Jr., J. E. Peralta, 
 F. Ogliaro, M. J. Bearpark, J. J. Heyd, E. N. Brothers, K. N. Kudin, 
 V. N. Staroverov, T. A. Keith, R. Kobayashi, J. Normand, 
 K. Raghavachari, A. P. Rendell, J. C. Burant, S. S. Iyengar, 
 J. Tomasi, M. Cossi, J. M. Millam, M. Klene, C. Adamo, R. Cammi, 
 J. W. Ochterski, R. L. Martin, K. Morokuma, O. Farkas, 
 J. B. Foresman, and D. J. Fox, Gaussian, Inc., Wallingford CT, 2019.
 
 ******************************************
 Gaussian 16:  ES64L-G16RevC.01  3-Jul-2019
                 3-Jan-2023 
 ******************************************
 %chk=0002_q000_m01_k00_force_ub3lyp_def2svpd.chk
 %nprocshared=2
 Will use up to    2 processors via shared memory.
 %mem=4GB
 ----------------------------------------------------------------------
 #p ub3lyp/chkbasis force guess=read geom=check scf=(maxcycle=900,veryt
 ightlineq,xqc) integral=grid=ultrafine symmetry=None density=current p
 op=(cm5,hlygat,mbs,npa) output=wfx
 ----------------------------------------------------------------------
 1/10=7,29=2,30=1,38=1/1,3;
 2/12=2,15=3,40=1/2;
 3/5=7,6=2,11=2,14=-4,25=1,30=1,67=1,71=1,74=-5,75=-5,116=2/1,2,3;
 4/5=1/1;
 5/5=2,7=900,8=3,13=1,17=3,38=6/2,8;
 6/7=2,8=2,9=2,10=2,15=8,20=15,22=-1,27=100,28=1,40=-1,79=1/1,2,7;
 7/29=1,30=1/1,2,3,16;
 1/10=7,30=1/3;
 99/6=200/99;
 Leave Link    1 at Tue Jan  3 09:04:56 2023, MaxMem=   536870912 cpu:               0.2 elap:               0.1
 (Enter /opt/software/gaussian/g16.c01/l101.exe)
 ----------------------------------------------------------------------
 0002_q000_m01_k00_opt_uwb97xd_def2svpd/0002_q000_m01_k00_force_ub3lyp_
 def2svpd stable-force
 ----------------------------------------------------------------------
 Structure from the checkpoint file:  "0002_q000_m01_k00_force_ub3lyp_def2svpd.chk"
 Charge =  0 Multiplicity = 1
 Z-Matrix found in chk file.
 C,0,0.9341359983,-0.0506101672,0.0533916633
 N,0,2.2303561638,-0.0607282973,0.0971529523
 H,0,2.7104299206,0.1445551233,-0.7929401941
 O,0,2.9768985022,-0.2863976361,1.0755945973
 H,0,0.4602474304,0.169181767,-0.8998201368
 H,0,0.383341983,-0.2613407898,0.9669611147
 Recover connectivity data from disk.
 ITRead=  0  0  0  0  0  0
 MicOpt= -1 -1 -1 -1 -1 -1
 NAtoms=      6 NQM=        6 NQMF=       0 NMMI=      0 NMMIF=      0
                NMic=       0 NMicF=      0.
                    Isotopes and Nuclear Properties:
 (Nuclear quadrupole moments (NQMom) in fm**2, nuclear magnetic moments (NMagM)
  in nuclear magnetons)

  Atom         1           2           3           4           5           6
 IAtWgt=          12          14           1          16           1           1
 AtmWgt=  12.0000000  14.0030740   1.0078250  15.9949146   1.0078250   1.0078250
 NucSpn=           0           2           1           0           1           1
 AtZEff=   3.6000000   4.5500000   1.0000000   5.6000000   1.0000000   1.0000000
 NQMom=    0.0000000   2.0440000   0.0000000   0.0000000   0.0000000   0.0000000
 NMagM=    0.0000000   0.4037610   2.7928460   0.0000000   2.7928460   2.7928460
 AtZNuc=   6.0000000   7.0000000   1.0000000   8.0000000   1.0000000   1.0000000
 Leave Link  101 at Tue Jan  3 09:04:56 2023, MaxMem=   536870912 cpu:               0.4 elap:               0.2
 (Enter /opt/software/gaussian/g16.c01/l103.exe)

 GradGradGradGradGradGradGradGradGradGradGradGradGradGradGradGradGradGrad
 Berny optimization.
 Initialization pass.
 Trust Radius=3.00D-01 FncErr=1.00D-07 GrdErr=1.00D-07 EigMax=2.50D+02 EigMin=1.00D-04
 Number of steps in this run=      2 maximum allowed number of steps=      2.
 GradGradGradGradGradGradGradGradGradGradGradGradGradGradGradGradGradGrad

 Leave Link  103 at Tue Jan  3 09:04:56 2023, MaxMem=   536870912 cpu:               0.1 elap:               0.0
 (Enter /opt/software/gaussian/g16.c01/l202.exe)
                          Input orientation:                          
 ---------------------------------------------------------------------
 Center     Atomic      Atomic             Coordinates (Angstroms)
 Number     Number       Type             X           Y           Z
 ---------------------------------------------------------------------
      1          6           0        0.934136   -0.050610    0.053392
      2          7           0        2.230356   -0.060728    0.097153
      3          1           0        2.710430    0.144555   -0.792940
      4          8           0        2.976899   -0.286398    1.075595
      5          1           0        0.460247    0.169182   -0.899820
      6          1           0        0.383342   -0.261341    0.966961
 ---------------------------------------------------------------------
                    Distance matrix (angstroms):
                    1          2          3          4          5
     1  C    0.000000
     2  N    1.296998   0.000000
     3  H    1.977268   1.031929   0.000000
     4  O    2.296383   1.251239   1.936013   0.000000
     5  H    1.086964   2.044529   2.252854   3.231617   0.000000
     6  H    1.087378   2.051408   2.945733   2.595952   1.917325
                    6
     6  H    0.000000
 Symmetry turned off by external request.
 Stoichiometry    CH3NO
 Rotational constants (GHZ):          75.8819039          11.9122881          10.2959784
 Leave Link  202 at Tue Jan  3 09:04:56 2023, MaxMem=   536870912 cpu:               0.0 elap:               0.0
 (Enter /opt/software/gaussian/g16.c01/l301.exe)
 Basis read from chk: "0002_q000_m01_k00_force_ub3lyp_def2svpd.chk" (5D, 7F)
 No pseudopotential information found on chk file.
    87 basis functions,   129 primitive gaussians,    93 cartesian basis functions
    12 alpha electrons       12 beta electrons
       nuclear repulsion energy        72.3526514420 Hartrees.
 IExCor=  402 DFT=T Ex+Corr=B3LYP ExCW=0 ScaHFX=  0.200000
 ScaDFX=  0.800000  0.720000  1.000000  0.810000 ScalE2=  1.000000  1.000000
 IRadAn=      5 IRanWt=     -1 IRanGd=            0 ICorTp=0 IEmpDi=  4
 NAtoms=    6 NActive=    6 NUniq=    6 SFac= 1.00D+00 NAtFMM=   60 NAOKFM=F Big=F
 Integral buffers will be    131072 words long.
 Raffenetti 2 integral format.
 Two-electron integral symmetry is turned off.
 No density basis found on file  20724.
 Leave Link  301 at Tue Jan  3 09:04:56 2023, MaxMem=   536870912 cpu:               0.1 elap:               0.1
 (Enter /opt/software/gaussian/g16.c01/l302.exe)
 NPDir=0 NMtPBC=     1 NCelOv=     1 NCel=       1 NClECP=     1 NCelD=      1
         NCelK=      1 NCelE2=     1 NClLst=     1 CellRange=     0.0.
 One-electron integrals computed using PRISM.
 NBasis=    87 RedAO= T EigKep=  2.05D-04  NBF=    87
 NBsUse=    87 1.00D-06 EigRej= -1.00D+00 NBFU=    87
 Precomputing XC quadrature grid using
 IXCGrd= 4 IRadAn=           5 IRanWt=          -1 IRanGd=           0 AccXCQ= 0.00D+00.
 Generated NRdTot=       0 NPtTot=           0 NUsed=           0 NTot=          32
 NSgBfM=    93    93    93    93    93 MxSgAt=     6 MxSgA2=     6.
 Leave Link  302 at Tue Jan  3 09:04:57 2023, MaxMem=   536870912 cpu:               0.3 elap:               0.2
 (Enter /opt/software/gaussian/g16.c01/l303.exe)
 DipDrv:  MaxL=1.
 Leave Link  303 at Tue Jan  3 09:04:57 2023, MaxMem=   536870912 cpu:               0.1 elap:               0.0
 (Enter /opt/software/gaussian/g16.c01/l401.exe)
 Initial guess from the checkpoint file:  "0002_q000_m01_k00_force_ub3lyp_def2svpd.chk"
 B after Tr=     0.000000    0.000000    0.000000
         Rot=    1.000000    0.000000    0.000000    0.000000 Ang=   0.00 deg.
 Guess basis will be translated and rotated to current coordinates.
 JPrj=2 DoOrth=T DoCkMO=T.
 Initial guess <Sx>= 0.0000 <Sy>= 0.0000 <Sz>= 0.0000 <S**2>=-0.0000 S=-0.0000
 Leave Link  401 at Tue Jan  3 09:04:57 2023, MaxMem=   536870912 cpu:               0.2 elap:               0.1
 (Enter /opt/software/gaussian/g16.c01/l502.exe)
 Keep R1 and R2 ints in memory in canonical form, NReq=16494677.
 FoFCou: FMM=F IPFlag=           0 FMFlag=           0 FMFlg1=           0
         NFxFlg=           0 DoJE=F BraDBF=F KetDBF=F FulRan=T
         wScrn=  0.000000 ICntrl=       600 IOpCl=  0 I1Cent=           0 NGrid=           0
         NMat0=    1 NMatS0=   3828 NMatT0=    0 NMatD0=    1 NMtDS0=    0 NMtDT0=    0
 Symmetry not used in FoFCou.
 Two-electron integral symmetry not used.
 UHF open shell SCF:
 Using DIIS extrapolation, IDIIS=  1040.
 NGot=   536870912 LenX=   522194701 LenY=   522185611
 Requested convergence on RMS density matrix=1.00D-08 within 128 cycles.
 Requested convergence on MAX density matrix=1.00D-06.
 Requested convergence on             energy=1.00D-06.
 No special actions if energy rises.

 Cycle   1  Pass 1  IDiag  1:
 E= -169.690392135476    
 DIIS: error= 3.01D-09 at cycle   1 NSaved=   1.
 NSaved= 1 IEnMin= 1 EnMin= -169.690392135476     IErMin= 1 ErrMin= 3.01D-09
 ErrMax= 3.01D-09  0.00D+00 EMaxC= 1.00D-01 BMatC= 3.87D-15 BMatP= 3.87D-15
 IDIUse=1 WtCom= 1.00D+00 WtEn= 0.00D+00
 Coeff-Com:  0.100D+01
 Coeff:      0.100D+01
 Gap=     0.201 Goal=   None    Shift=    0.000
 Gap=     0.201 Goal=   None    Shift=    0.000
 RMSDP=1.19D-09 MaxDP=2.24D-08              OVMax= 3.84D-08

 SCF Done:  E(UB3LYP) =  -169.690392135     A.U. after    1 cycles
            NFock=  1  Conv=0.12D-08     -V/T= 2.0091
 <Sx>= 0.0000 <Sy>= 0.0000 <Sz>= 0.0000 <S**2>=-0.0000 S=-0.0000
 <L.S>=  0.00000000000    
 KE= 1.681587924356D+02 PE=-5.414961692629D+02 EE= 1.312943332499D+02
 Annihilation of the first spin contaminant:
 S**2 before annihilation    -0.0000,   after    -0.0000
 Leave Link  502 at Tue Jan  3 09:04:58 2023, MaxMem=   536870912 cpu:               1.9 elap:               1.0
 (Enter /opt/software/gaussian/g16.c01/l508.exe)
 QCSCF skips out because SCF is already converged.
 Leave Link  508 at Tue Jan  3 09:04:58 2023, MaxMem=   536870912 cpu:               0.0 elap:               0.0
 (Enter /opt/software/gaussian/g16.c01/l601.exe)
 Copying SCF densities to generalized density rwf, IOpCl= 1 IROHF=0.

 **********************************************************************

            Population analysis using the SCF Density.

 **********************************************************************

 Alpha  occ. eigenvalues --  -19.13223 -14.48667 -10.24172  -1.12063  -0.86742
 Alpha  occ. eigenvalues --   -0.67031  -0.55858  -0.49387  -0.46967  -0.43255
 Alpha  occ. eigenvalues --   -0.27287  -0.24920
 Alpha virt. eigenvalues --   -0.04833   0.00467   0.03773   0.09505   0.09928
 Alpha virt. eigenvalues --    0.11533   0.11834   0.13310   0.15938   0.17062
 Alpha virt. eigenvalues --    0.18376   0.21339   0.25193   0.25756   0.28435
 Alpha virt. eigenvalues --    0.29973   0.31654   0.33500   0.33877   0.35453
 Alpha virt. eigenvalues --    0.38541   0.40148   0.42645   0.43373   0.46240
 Alpha virt. eigenvalues --    0.47931   0.51771   0.54684   0.59753   0.60532
 Alpha virt. eigenvalues --    0.60893   0.62836   0.64391   0.66010   0.69123
 Alpha virt. eigenvalues --    0.72583   0.74525   0.84873   0.93645   0.96997
 Alpha virt. eigenvalues --    1.03290   1.06234   1.10134   1.15702   1.26303
 Alpha virt. eigenvalues --    1.40342   1.43053   1.49721   1.54932   1.56280
 Alpha virt. eigenvalues --    1.60621   1.61346   1.76769   1.77715   1.78290
 Alpha virt. eigenvalues --    1.90310   1.93303   2.03904   2.08549   2.16711
 Alpha virt. eigenvalues --    2.19017   2.20492   2.34514   2.40336   2.59602
 Alpha virt. eigenvalues --    2.61128   2.82002   2.87419   2.88094   2.98877
 Alpha virt. eigenvalues --    3.12106   3.20613   3.33090   3.59558   3.92743
  Beta  occ. eigenvalues --  -19.13223 -14.48667 -10.24172  -1.12063  -0.86742
  Beta  occ. eigenvalues --   -0.67031  -0.55858  -0.49387  -0.46967  -0.43255
  Beta  occ. eigenvalues --   -0.27287  -0.24920
  Beta virt. eigenvalues --   -0.04833   0.00467   0.03773   0.09505   0.09928
  Beta virt. eigenvalues --    0.11533   0.11834   0.13310   0.15938   0.17062
  Beta virt. eigenvalues --    0.18376   0.21339   0.25193   0.25756   0.28435
  Beta virt. eigenvalues --    0.29973   0.31654   0.33500   0.33877   0.35453
  Beta virt. eigenvalues --    0.38541   0.40148   0.42645   0.43373   0.46240
  Beta virt. eigenvalues --    0.47931   0.51771   0.54684   0.59753   0.60532
  Beta virt. eigenvalues --    0.60893   0.62836   0.64391   0.66010   0.69123
  Beta virt. eigenvalues --    0.72583   0.74525   0.84873   0.93645   0.96997
  Beta virt. eigenvalues --    1.03290   1.06234   1.10134   1.15702   1.26303
  Beta virt. eigenvalues --    1.40342   1.43053   1.49721   1.54932   1.56280
  Beta virt. eigenvalues --    1.60621   1.61346   1.76769   1.77715   1.78290
  Beta virt. eigenvalues --    1.90310   1.93303   2.03904   2.08549   2.16711
  Beta virt. eigenvalues --    2.19017   2.20492   2.34514   2.40336   2.59602
  Beta virt. eigenvalues --    2.61128   2.82002   2.87419   2.88094   2.98877
  Beta virt. eigenvalues --    3.12106   3.20613   3.33090   3.59558   3.92743
          Condensed to atoms (all electrons):
               1          2          3          4          5          6
     1  C    4.194773   0.481542  -0.032327  -0.085542   0.300445   0.327548
     2  N    0.481542   5.382855   0.443057   0.381465   0.014796   0.010446
     3  H   -0.032327   0.443057   0.823084  -0.087131  -0.039858   0.009044
     4  O   -0.085542   0.381465  -0.087131   8.244823  -0.002364  -0.027852
     5  H    0.300445   0.014796  -0.039858  -0.002364   1.161849  -0.158110
     6  H    0.327548   0.010446   0.009044  -0.027852  -0.158110   1.122296
          Atomic-Atomic Spin Densities.
               1          2          3          4          5          6
     1  C   -0.000000   0.000000  -0.000000  -0.000000  -0.000000  -0.000000
     2  N    0.000000  -0.000000  -0.000000   0.000000   0.000000   0.000000
     3  H   -0.000000  -0.000000   0.000000  -0.000000  -0.000000  -0.000000
     4  O   -0.000000   0.000000  -0.000000   0.000000  -0.000000  -0.000000
     5  H   -0.000000   0.000000  -0.000000  -0.000000   0.000000   0.000000
     6  H   -0.000000   0.000000  -0.000000  -0.000000   0.000000  -0.000000
 Mulliken charges and spin densities:
               1          2
     1  C    0.813560  -0.000000
     2  N    0.285839   0.000000
     3  H   -0.115868  -0.000000
     4  O   -0.423399  -0.000000
     5  H   -0.276759   0.000000
     6  H   -0.283373  -0.000000
 Sum of Mulliken charges =  -0.00000  -0.00000
 Mulliken charges and spin densities with hydrogens summed into heavy atoms:
               1          2
     1  C    0.253429  -0.000000
     2  N    0.169971   0.000000
     4  O   -0.423399  -0.000000
 Electronic spatial extent (au):  <R**2>=            517.0704
 Charge=             -0.0000 electrons
 Dipole moment (field-independent basis, Debye):
    X=             -2.1106    Y=              0.6670    Z=             -2.8923  Tot=              3.6421
 Quadrupole moment (field-independent basis, Debye-Ang):
   XX=            -26.8229   YY=            -19.1990   ZZ=            -19.3484
   XY=              2.2248   XZ=             -9.2957   YZ=              0.1597
 Traceless Quadrupole moment (field-independent basis, Debye-Ang):
   XX=             -5.0328   YY=              2.5911   ZZ=              2.4417
   XY=              2.2248   XZ=             -9.2957   YZ=              0.1597
 Octapole moment (field-independent basis, Debye-Ang**2):
  XXX=           -139.1456  YYY=              6.8284  ZZZ=            -23.8037  XYY=            -37.2620
  XXY=              9.0589  XXZ=            -34.8213  XZZ=            -41.6155  YZZ=              3.1807
  YYZ=             -6.8323  XYZ=              1.4576
 Hexadecapole moment (field-independent basis, Debye-Ang**3):
 XXXX=           -648.7768 YYYY=            -22.3983 ZZZZ=            -71.1423 XXXY=             37.9588
 XXXZ=           -141.4624 YYYX=             17.7104 YYYZ=              6.8491 ZZZX=            -67.5471
 ZZZY=              6.9357 XXYY=            -96.0092 XXZZ=           -117.0956 YYZZ=            -15.6804
 XXYZ=              6.6307 YYXZ=            -19.8654 ZZXY=              8.2961
 N-N= 7.235265144198D+01 E-N=-5.414961694000D+02  KE= 1.681587924356D+02
 There are a total of      135210 grid points.
 ElSum from          density=       24.0000002755
 ElSum from atomic densities=       24.0000001944

 Hirshfeld populations at iteration   1 (CX, CA, CB, DipXYZ):
               1          2          3          4          5          6
     1  C    0.000000   3.013780   3.013780  -0.032486  -0.002507   0.010868
     2  N    0.000000   3.450432   3.450432   0.063902   0.001536  -0.006662
     3  H    0.000001   0.431488   0.431488   0.088292   0.035399  -0.153493
     4  O    0.000013   4.157481   4.157481  -0.156483   0.040561  -0.175860
     5  H    0.000000   0.476159   0.476159  -0.079559   0.031450  -0.136408
     6  H    0.000000   0.470661   0.470661  -0.097220  -0.029431   0.127584
       Tot   0.000015  12.000000  12.000000  -0.213554   0.077008  -0.333971

 Dip from Atomic Chgs             -0.616827   0.185416  -0.803943
         Total Dipole             -0.830381   0.262424  -1.137914

 Hirshfeld charges, spin densities, dipoles, and CM5 charges using IRadAn=      5:
              Q-H        S-H        Dx         Dy         Dz        Q-CM5   
     1  C   -0.027559  -0.000000  -0.032486  -0.002507   0.010868  -0.043401
     2  N    0.099137  -0.000000   0.063902   0.001536  -0.006662  -0.230282
     3  H    0.137024   0.000000   0.088292   0.035399  -0.153493   0.331151
     4  O   -0.314962  -0.000000  -0.156483   0.040561  -0.175860  -0.291734
     5  H    0.047681   0.000000  -0.079559   0.031450  -0.136408   0.110622
     6  H    0.058679   0.000000  -0.097220  -0.029431   0.127584   0.123644
       Tot  -0.000000  -0.000000  -0.213554   0.077008  -0.333971  -0.000000
 Hirshfeld charges and spin densities with hydrogens summed into heavy atoms:
              Q-H        S-H       Q-CM5   
     1  C    0.078801  -0.000000   0.190865
     2  N    0.236161   0.000000   0.100869
     4  O   -0.314962  -0.000000  -0.291734
 
 EQQ=-0.419769963330E-29 EQD= 0.694702763280E-15 EDD= 0.697940199857E-03
 EQQ+QD+DD= 0.697940199857E-03
 
          MBS Condensed to atoms (all electrons):
               1          2          3          4          5          6
     1  C    4.940179   0.479687  -0.049055  -0.036174   0.387606   0.384961
     2  N    0.479687   5.879107   0.323807   0.317500  -0.021329  -0.022043
     3  H   -0.049055   0.323807   0.477868  -0.031091  -0.003644   0.002971
     4  O   -0.036174   0.317500  -0.031091   8.224883   0.000937  -0.000138
     5  H    0.387606  -0.021329  -0.003644   0.000937   0.532909  -0.017868
     6  H    0.384961  -0.022043   0.002971  -0.000138  -0.017868   0.512803
          MBS Atomic-Atomic Spin Densities.
               1          2          3          4          5          6
     1  C   -0.000000   0.000000  -0.000000   0.000000  -0.000000   0.000000
     2  N    0.000000   0.000000   0.000000  -0.000000   0.000000   0.000000
     3  H   -0.000000   0.000000   0.000000  -0.000000  -0.000000   0.000000
     4  O    0.000000  -0.000000  -0.000000   0.000000   0.000000   0.000000
     5  H   -0.000000   0.000000  -0.000000   0.000000   0.000000  -0.000000
     6  H    0.000000   0.000000   0.000000   0.000000  -0.000000   0.000000
 MBS Mulliken charges and spin densities:
               1          2
     1  C   -0.107204  -0.000000
     2  N    0.043271   0.000000
     3  H    0.279145   0.000000
     4  O   -0.475917   0.000000
     5  H    0.121390   0.000000
     6  H    0.139314   0.000000
 Sum of MBS Mulliken charges =  -0.00000   0.00000
 MBS Mulliken charges and spin densities with hydrogens summed into heavy atoms:
               1          2
     1  C    0.153501  -0.000000
     2  N    0.322416   0.000000
     4  O   -0.475917   0.000000
 MBS Atomic Valencies and Mayer Atomic Bond Orders:
               1          2          3          4          5          6
     1  C    3.869245   1.538647   0.012417   0.404810   0.959538   0.953833
     2  N    1.538647   3.682198   0.829602   1.308143   0.003030   0.002776
     3  H    0.012417   0.829602   0.922078   0.065540   0.001049   0.013470
     4  O    0.404810   1.308143   0.065540   1.802079   0.017360   0.006226
     5  H    0.959538   0.003030   0.001049   0.017360   0.985264   0.004287
     6  H    0.953833   0.002776   0.013470   0.006226   0.004287   0.980592
 MBS Mayer-style numbers of lone pairs (12.000 valence pairs, 5.879 lone pairs):
               1
     1  C    1.118979
     2  N    1.637266
     3  H   -0.100612
     4  O    3.336919
     5  H   -0.053327
     6  H   -0.059953
 BEBO parameters in MulMin, MxElBE=  0:
 ELP=  0.00000000000     EBEBO=  0.00000000000     Sum=  0.00000000000    
 ELP=  0.00000000000     EBEBO=  0.00000000000     EJK=  0.00000000000      0.00000000000     Sum=  0.00000000000    
 0 EA=  0.00000000000     EB=  0.00000000000     ETot=  0.00000000000    
 1 EA=  0.00000000000     EB=  0.00000000000     ETot=  0.00000000000    
 2 EA=  0.00000000000     EB=  0.00000000000     ETot=  0.00000000000    
 3 EJ=  0.00000000000     EK=  0.00000000000     ETot=  0.00000000000    
 4 EJ=  0.00000000000     EK=  0.00000000000     ETot=  0.00000000000    
 5 EA=  0.00000000000     EB=  0.00000000000     ETot=  0.00000000000    
                          Isotropic Fermi Contact Couplings
        Atom                 a.u.       MegaHertz       Gauss      10(-4) cm-1
     1  C(13)              0.00000       0.00000       0.00000       0.00000
     2  N(14)             -0.00000      -0.00000      -0.00000      -0.00000
     3  H(1)               0.00000       0.00000       0.00000       0.00000
     4  O(17)             -0.00000       0.00000       0.00000       0.00000
     5  H(1)               0.00000       0.00000       0.00000       0.00000
     6  H(1)              -0.00000      -0.00000      -0.00000      -0.00000
 --------------------------------------------------------
       Center         ----  Spin Dipole Couplings  ----
                      3XX-RR        3YY-RR        3ZZ-RR
 --------------------------------------------------------
     1   Atom        0.000000      0.000000      0.000000
     2   Atom        0.000000      0.000000      0.000000
     3   Atom        0.000000      0.000000      0.000000
     4   Atom        0.000000      0.000000      0.000000
     5   Atom        0.000000      0.000000      0.000000
     6   Atom        0.000000      0.000000      0.000000
 --------------------------------------------------------
                        XY            XZ            YZ
 --------------------------------------------------------
     1   Atom        0.000000      0.000000      0.000000
     2   Atom        0.000000      0.000000      0.000000
     3   Atom        0.000000      0.000000      0.000000
     4   Atom        0.000000      0.000000      0.000000
     5   Atom        0.000000      0.000000      0.000000
     6   Atom        0.000000      0.000000      0.000000
 --------------------------------------------------------


 ---------------------------------------------------------------------------------
              Anisotropic Spin Dipole Couplings in Principal Axis System
 ---------------------------------------------------------------------------------

       Atom             a.u.   MegaHertz   Gauss  10(-4) cm-1        Axes

              Baa     0.0000     0.000     0.000     0.000  1.0000  0.0000  0.0000
     1 C(13)  Bbb     0.0000     0.000     0.000     0.000 -0.0000  1.0000  0.0000
              Bcc     0.0000     0.000     0.000     0.000  0.0000  0.0000  1.0000
 
              Baa     0.0000     0.000     0.000     0.000  1.0000  0.0000  0.0000
     2 N(14)  Bbb     0.0000     0.000     0.000     0.000 -0.0000  1.0000  0.0000
              Bcc     0.0000     0.000     0.000     0.000  0.0000  0.0000  1.0000
 
              Baa     0.0000     0.000     0.000     0.000  1.0000  0.0000  0.0000
     3 H(1)   Bbb     0.0000     0.000     0.000     0.000 -0.0000  1.0000  0.0000
              Bcc     0.0000     0.000     0.000     0.000  0.0000  0.0000  1.0000
 
              Baa     0.0000    -0.000    -0.000    -0.000  1.0000  0.0000  0.0000
     4 O(17)  Bbb     0.0000    -0.000    -0.000    -0.000 -0.0000  1.0000  0.0000
              Bcc     0.0000    -0.000    -0.000    -0.000  0.0000  0.0000  1.0000
 
              Baa     0.0000     0.000     0.000     0.000  1.0000  0.0000  0.0000
     5 H(1)   Bbb     0.0000     0.000     0.000     0.000 -0.0000  1.0000  0.0000
              Bcc     0.0000     0.000     0.000     0.000  0.0000  0.0000  1.0000
 
              Baa     0.0000     0.000     0.000     0.000  1.0000  0.0000  0.0000
     6 H(1)   Bbb     0.0000     0.000     0.000     0.000 -0.0000  1.0000  0.0000
              Bcc     0.0000     0.000     0.000     0.000  0.0000  0.0000  1.0000
 

 ---------------------------------------------------------------------------------

 No NMR shielding tensors so no spin-rotation constants.
 Leave Link  601 at Tue Jan  3 09:04:58 2023, MaxMem=   536870912 cpu:               0.8 elap:               0.4
 (Enter /opt/software/gaussian/g16.c01/l602.exe)
 FitSet:  NAtFit=     6 NAtPot=     6 NAtFrz=     0 MDM=    10 TotChg=   0.00000
 Generate Potential Derived Charges using the Hu-Lu-Yang model:
[...]
     2    C    1  S      Val( 2S)     0.52321      -0.25858
     3    C    1  S      Ryd( 4S)     0.00054       0.80449
     4    C    1  S      Ryd( 3S)     0.00003       0.66270
     5    C    1  px     Val( 2p)     0.43983      -0.04828
     6    C    1  px     Ryd( 3p)     0.00262       0.59261
     7    C    1  py     Val( 2p)     0.53178      -0.15854
     8    C    1  py     Ryd( 3p)     0.00277       0.57786
     9    C    1  pz     Val( 2p)     0.59577      -0.08737
    10    C    1  pz     Ryd( 3p)     0.00142       0.91516
    11    C    1  dxy    Ryd( 4d)     0.00021       1.60567
    12    C    1  dxy    Ryd( 3d)     0.00022       0.91855
    13    C    1  dxz    Ryd( 4d)     0.00020       2.12298
    14    C    1  dxz    Ryd( 3d)     0.00007       0.97961
    15    C    1  dyz    Ryd( 4d)     0.00033       1.49990
    16    C    1  dyz    Ryd( 3d)     0.00011       0.83176
    17    C    1  dx2y2  Ryd( 4d)     0.00096       1.70729
    18    C    1  dx2y2  Ryd( 3d)     0.00005       0.94669
    19    C    1  dz2    Ryd( 4d)     0.00085       1.90246
    20    C    1  dz2    Ryd( 3d)     0.00018       0.96884
 
    21    N    2  S      Cor( 1S)     0.99969     -14.33370
    22    N    2  S      Val( 2S)     0.60000      -0.56739
    23    N    2  S      Ryd( 4S)     0.00267       1.04756
    24    N    2  S      Ryd( 3S)     0.00001       0.91561
    25    N    2  px     Val( 2p)     0.64657      -0.30713
    26    N    2  px     Ryd( 3p)     0.00312       1.02951
    27    N    2  py     Val( 2p)     0.65809      -0.30122
    28    N    2  py     Ryd( 3p)     0.00051       0.83679
    29    N    2  pz     Val( 2p)     0.61137      -0.27841
    30    N    2  pz     Ryd( 3p)     0.00259       1.11841
    31    N    2  dxy    Ryd( 4d)     0.00193       1.63312
    32    N    2  dxy    Ryd( 3d)     0.00005       1.45278
    33    N    2  dxz    Ryd( 4d)     0.00083       2.45150
    34    N    2  dxz    Ryd( 3d)     0.00024       1.52422
    35    N    2  dyz    Ryd( 3d)     0.00151       1.48176
    36    N    2  dyz    Ryd( 4d)     0.00010       1.66183
    37    N    2  dx2y2  Ryd( 4d)     0.00131       1.88961
    38    N    2  dx2y2  Ryd( 3d)     0.00013       1.73609
    39    N    2  dz2    Ryd( 4d)     0.00229       2.17179
    40    N    2  dz2    Ryd( 3d)     0.00013       1.53345
 
    41    H    3  S      Val( 1S)     0.31248       0.00664
    42    H    3  S      Ryd( 2S)     0.00063       0.69772
    43    H    3  px     Ryd( 2p)     0.00123       0.58618
    44    H    3  px     Ryd( 3p)     0.00027       1.93959
    45    H    3  py     Ryd( 2p)     0.00006       0.47449
    46    H    3  py     Ryd( 3p)     0.00013       1.77086
    47    H    3  pz     Ryd( 2p)     0.00100       0.57618
    48    H    3  pz     Ryd( 3p)     0.00046       2.12056
 
    49    O    4  S      Cor( 1S)     0.99989     -18.93513
    50    O    4  S      Val( 2S)     0.87445      -0.84481
    51    O    4  S      Ryd( 4S)     0.00230       1.11460
    52    O    4  S      Ryd( 3S)     0.00007       1.03453
    53    O    4  px     Val( 2p)     0.83665      -0.25557
    54    O    4  px     Ryd( 4p)     0.00130       1.29691
    55    O    4  px     Ryd( 3p)     0.00005       0.47505
    56    O    4  py     Val( 2p)     0.79669      -0.25501
    57    O    4  py     Ryd( 4p)     0.00156       1.14927
    58    O    4  py     Ryd( 3p)     0.00003       0.44025
    59    O    4  pz     Val( 2p)     0.73942      -0.24355
    60    O    4  pz     Ryd( 4p)     0.00105       1.30615
    61    O    4  pz     Ryd( 3p)     0.00005       0.48538
    62    O    4  dxy    Ryd( 4d)     0.00034       2.05816
    63    O    4  dxy    Ryd( 3d)     0.00005       1.43660
    64    O    4  dxz    Ryd( 4d)     0.00179       2.48398
    65    O    4  dxz    Ryd( 3d)     0.00009       1.43151
    66    O    4  dyz    Ryd( 4d)     0.00071       2.16589
    67    O    4  dyz    Ryd( 3d)     0.00004       1.38726
    68    O    4  dx2y2  Ryd( 4d)     0.00045       2.10754
    69    O    4  dx2y2  Ryd( 3d)     0.00007       1.46663
    70    O    4  dz2    Ryd( 4d)     0.00094       2.39194
    71    O    4  dz2    Ryd( 3d)     0.00012       1.38472
 
    72    H    5  S      Val( 1S)     0.39542       0.00449
    73    H    5  S      Ryd( 2S)     0.00035       0.44410
    74    H    5  px     Ryd( 2p)     0.00034       1.13807
    75    H    5  px     Ryd( 3p)     0.00004       1.32866
    76    H    5  py     Ryd( 2p)     0.00052       0.89716
    77    H    5  py     Ryd( 3p)     0.00001       1.24041
    78    H    5  pz     Ryd( 2p)     0.00057       1.26067
    79    H    5  pz     Ryd( 3p)     0.00008       1.44430
 
    80    H    6  S      Val( 1S)     0.39068       0.01952
    81    H    6  S      Ryd( 2S)     0.00152       0.39490
    82    H    6  px     Ryd( 2p)     0.00111       0.67471
    83    H    6  px     Ryd( 3p)     0.00010       1.86882
    84    H    6  py     Ryd( 2p)     0.00003       0.54538
    85    H    6  py     Ryd( 3p)     0.00009       1.61108
    86    H    6  pz     Ryd( 2p)     0.00061       0.69532
    87    H    6  pz     Ryd( 3p)     0.00018       1.99787

 WARNING:  Population inversion found on atom  C    1
           Population inversion found on atom  N    2
           Population inversion found on atom  H    3
           Population inversion found on atom  O    4
           Population inversion found on atom  H    6


 Summary of Natural Population Analysis:                  
                                                          
                                       Natural Population 
                Natural  -----------------------------------------------
    Atom  No    Charge         Core      Valence    Rydberg      Total
 -----------------------------------------------------------------------
      C    1   -0.10084      0.99970     2.09059    0.01056     3.10084
      N    2   -0.03311      0.99969     2.51603    0.01740     3.53311
      H    3    0.18374      0.00000     0.31248    0.00378     0.31626
      O    4   -0.25813      0.99989     3.24722    0.01102     4.25813
      H    5    0.10267      0.00000     0.39542    0.00191     0.39733
      H    6    0.10567      0.00000     0.39068    0.00365     0.39433
 =======================================================================
   * Total *   -0.00000      2.99928     8.95241    0.04831    12.00000

                                 Natural Population      
 --------------------------------------------------------
   Core                       2.99928 ( 99.9759% of   3)
   Valence                    8.95241 ( 99.4712% of   9)
   Natural Minimal Basis     11.95169 ( 99.5974% of  12)
   Natural Rydberg Basis      0.04831 (  0.4026% of  12)
 --------------------------------------------------------

    Atom  No          Natural Electron Configuration
 ----------------------------------------------------------------------------
      C    1      [core]2S( 0.52)2p( 1.57)3p( 0.01)
      N    2      [core]2S( 0.60)2p( 1.92)3p( 0.01)4d( 0.01)
      H    3            1S( 0.31)
      O    4      [core]2S( 0.87)2p( 2.37)
      H    5            1S( 0.40)
      H    6            1S( 0.39)


 NBO analysis skipped by request.
 Leave Link  607 at Tue Jan  3 09:05:01 2023, MaxMem=   536870912 cpu:               3.6 elap:               1.8
 (Enter /opt/software/gaussian/g16.c01/l701.exe)
 ... and contract with generalized density number  0.
 Compute integral first derivatives.
 Leave Link  701 at Tue Jan  3 09:05:01 2023, MaxMem=   536870912 cpu:               0.2 elap:               0.1
 (Enter /opt/software/gaussian/g16.c01/l702.exe)
 L702 exits ... SP integral derivatives will be done elsewhere.
 Leave Link  702 at Tue Jan  3 09:05:01 2023, MaxMem=   536870912 cpu:               0.1 elap:               0.0
 (Enter /opt/software/gaussian/g16.c01/l703.exe)
 Integral derivatives from FoFJK, PRISM(SPDF).
 Compute integral first derivatives, UseDBF=F ICtDFT=           0.
 Calling FoFJK, ICntrl=      2127 FMM=F ISym2X=0 I1Cent= 0 IOpClX= 1 NMat=1 NMatS=1 NMatT=0.
 FoFJK:  IHMeth= 1 ICntrl=    2127 DoSepK=F KAlg= 0 I1Cent=           0 FoldK=F
 IRaf=         0 NMat=       1 IRICut=       1 DoRegI=T DoRafI=F ISym2E= 0 IDoP0=0 IntGTp=1.
 FoFCou: FMM=F IPFlag=           0 FMFlag=      100000 FMFlg1=         800
         NFxFlg=           0 DoJE=F BraDBF=F KetDBF=F FulRan=T
         wScrn=  0.000000 ICntrl=      2127 IOpCl=  1 I1Cent=           0 NGrid=           0
         NMat0=    1 NMatS0=      1 NMatT0=    0 NMatD0=    1 NMtDS0=    0 NMtDT0=    0
 Symmetry not used in FoFCou.
 Leave Link  703 at Tue Jan  3 09:05:04 2023, MaxMem=   536870912 cpu:               4.0 elap:               2.0
 (Enter /opt/software/gaussian/g16.c01/l716.exe)
 Dipole        =-8.30379749D-01 2.62422113D-01-1.13791524D+00
 -------------------------------------------------------------------
 Center     Atomic                   Forces (Hartrees/Bohr)
 Number     Number              X              Y              Z
 -------------------------------------------------------------------
      1        6          -0.007575504    0.000241517   -0.001066802
      2        7           0.001065200    0.000880618   -0.003811992
      3        1           0.000974763    0.000525315   -0.002280027
      4        8           0.006235949   -0.001641551    0.007118052
      5        1          -0.000314638   -0.000045472    0.000204385
      6        1          -0.000385770    0.000039572   -0.000163617
 -------------------------------------------------------------------
 Cartesian Forces:  Max     0.007575504 RMS     0.003109297
 Z-matrix is all fixed cartesians, so copy forces.
 Force constants in Cartesian coordinates: 
                1             2             3             4             5 
      1  0.101329D+01
      2 -0.181037D-02  0.203575D+00
      3  0.786374D-02 -0.124878D+00  0.716256D+00
      4 -0.679882D+00  0.300493D-02 -0.129771D-01  0.122912D+01
      5  0.376763D-02 -0.101951D+00  0.210923D-01 -0.513644D-01  0.222812D+00
      6 -0.162703D-01  0.210924D-01 -0.188542D+00  0.222639D+00 -0.201358D+00
      7 -0.102620D-02 -0.665546D-02  0.288574D-01 -0.181518D+00 -0.289962D-01
      8  0.121571D-03  0.160790D-01  0.116710D-03 -0.287431D-01 -0.726755D-01
      9 -0.525445D-03  0.118691D-03  0.155912D-01  0.124629D+00  0.655904D-01
     10  0.119887D-02  0.777540D-02 -0.337130D-01 -0.367761D+00  0.763242D-01
     11  0.200587D-03  0.190369D-01 -0.153988D-02  0.768689D-01 -0.806506D-01
     12 -0.868461D-03 -0.154186D-02  0.253675D-01 -0.333281D+00  0.114090D+00
     13 -0.158674D+00  0.217720D-01 -0.944370D-01  0.990489D-03  0.642211D-02
     14  0.210005D-01 -0.665152D-01  0.549206D-01  0.108065D-03  0.144495D-01
     15 -0.910994D-01  0.549244D-01 -0.292045D+00 -0.467503D-03  0.139020D-03
     16 -0.174911D+00 -0.240865D-01  0.104406D+00 -0.948593D-03 -0.615334D-02
     17 -0.232800D-01 -0.702247D-01  0.502880D-01  0.125613D-03  0.180161D-01
     18  0.100900D+00  0.502841D-01 -0.276628D+00 -0.542935D-03  0.445850D-03
                6             7             8             9            10 
      6  0.104942D+01
      7  0.125728D+00  0.157894D+00
      8  0.655912D-01  0.315330D-01  0.477677D-01
      9 -0.341942D+00 -0.136727D+00 -0.699667D-01  0.335000D+00
     10 -0.330918D+00  0.246502D-01 -0.291152D-02  0.126236D-01  0.341912D+00
     11  0.114089D+00  0.411862D-02  0.878005D-02  0.424634D-02 -0.811881D-01
     12 -0.549005D+00 -0.178579D-01  0.424651D-02 -0.865234D-02  0.352007D+00
     13 -0.278537D-01  0.000000D+00  0.000000D+00  0.000000D+00  0.000000D+00
     14  0.139979D-03  0.000000D+00 -0.908908D-02 -0.209632D-02  0.000000D+00
     15  0.138797D-01  0.000000D+00 -0.209566D-02 -0.483348D-03  0.000000D+00
     16  0.266748D-01  0.000000D+00  0.000000D+00  0.000000D+00  0.000000D+00
     17  0.444845D-03  0.000000D+00  0.913787D-02  0.210757D-02  0.000000D+00
     18  0.161850D-01  0.000000D+00  0.210791D-02  0.486171D-03  0.000000D+00
               11            12            13            14            15 
     11  0.528801D-01
     12 -0.116784D+00  0.532292D+00
     13  0.000000D+00  0.000000D+00  0.128269D+00
     14  0.864159D-02  0.199298D-02 -0.243128D-01  0.428129D-01
     15  0.199249D-02  0.459521D-03  0.105452D+00 -0.591266D-01  0.285599D+00
     16  0.000000D+00  0.000000D+00  0.294149D-01  0.320416D-02 -0.138848D-01
     17 -0.868798D-02 -0.200368D-02 -0.388133D-02  0.970030D-02  0.416630D-02
     18 -0.200413D-02 -0.462205D-03  0.168390D-01  0.416934D-02 -0.741015D-02
               16            17            18 
     16  0.146445D+00
     17  0.270357D-01  0.420584D-01
     18 -0.117196D+00 -0.550030D-01  0.267829D+00
 Leave Link  716 at Tue Jan  3 09:05:04 2023, MaxMem=   536870912 cpu:               0.1 elap:               0.1
 (Enter /opt/software/gaussian/g16.c01/l103.exe)

 GradGradGradGradGradGradGradGradGradGradGradGradGradGradGradGradGradGrad
 Berny optimization.
 Search for a local minimum.
 Step number   1 out of a maximum of    2
 All quantities printed in internal units (Hartrees-Bohrs-Radians)
 Second derivative matrix not updated -- first step.
 The second derivative matrix:
                          X1        Y1        Z1        X2        Y2
           X1           1.01329
           Y1          -0.00181   0.20358
           Z1           0.00786  -0.12488   0.71626
           X2          -0.67988   0.00300  -0.01298   1.22912
           Y2           0.00377  -0.10195   0.02109  -0.05136   0.22281
           Z2          -0.01627   0.02109  -0.18854   0.22264  -0.20136
           X3          -0.00103  -0.00666   0.02886  -0.18152  -0.02900
           Y3           0.00012   0.01608   0.00012  -0.02874  -0.07268
           Z3          -0.00053   0.00012   0.01559   0.12463   0.06559
           X4           0.00120   0.00778  -0.03371  -0.36776   0.07632
           Y4           0.00020   0.01904  -0.00154   0.07687  -0.08065
           Z4          -0.00087  -0.00154   0.02537  -0.33328   0.11409
           X5          -0.15867   0.02177  -0.09444   0.00099   0.00642
           Y5           0.02100  -0.06652   0.05492   0.00011   0.01445
           Z5          -0.09110   0.05492  -0.29205  -0.00047   0.00014
           X6          -0.17491  -0.02409   0.10441  -0.00095  -0.00615
           Y6          -0.02328  -0.07022   0.05029   0.00013   0.01802
           Z6           0.10090   0.05028  -0.27663  -0.00054   0.00045
                          Z2        X3        Y3        Z3        X4
           Z2           1.04942
           X3           0.12573   0.15789
           Y3           0.06559   0.03153   0.04777
           Z3          -0.34194  -0.13673  -0.06997   0.33500
           X4          -0.33092   0.02465  -0.00291   0.01262   0.34191
           Y4           0.11409   0.00412   0.00878   0.00425  -0.08119
           Z4          -0.54900  -0.01786   0.00425  -0.00865   0.35201
           X5          -0.02785  -0.00000  -0.00000  -0.00000   0.00000
           Y5           0.00014  -0.00000  -0.00909  -0.00210   0.00000
           Z5           0.01388  -0.00000  -0.00210  -0.00048   0.00000
           X6           0.02667   0.00000   0.00000   0.00000  -0.00000
           Y6           0.00044   0.00000   0.00914   0.00211  -0.00000
           Z6           0.01618   0.00000   0.00211   0.00049  -0.00000
                          Y4        Z4        X5        Y5        Z5
           Y4           0.05288
           Z4          -0.11678   0.53229
           X5           0.00000   0.00000   0.12827
           Y5           0.00864   0.00199  -0.02431   0.04281
           Z5           0.00199   0.00046   0.10545  -0.05913   0.28560
           X6          -0.00000  -0.00000   0.02941   0.00320  -0.01388
           Y6          -0.00869  -0.00200  -0.00388   0.00970   0.00417
           Z6          -0.00200  -0.00046   0.01684   0.00417  -0.00741
                          X6        Y6        Z6
           X6           0.14644
           Y6           0.02704   0.04206
           Z6          -0.11720  -0.05500   0.26783
 ITU=  0
     Eigenvalues ---    0.03447   0.04394   0.09385   0.09776   0.15149
     Eigenvalues ---    0.18516   0.28085   0.33564   0.68419   0.94438
     Eigenvalues ---    1.52455   2.16742
 Angle between quadratic step and forces=  51.42 degrees.
 Linear search not attempted -- first point.
 B after Tr=     0.002808   -0.000701    0.002998
         Rot=    1.000000    0.000000   -0.000218   -0.000051 Ang=   0.03 deg.
 Variable       Old X    -DE/DX   Delta X   Delta X   Delta X     New X
                                 (Linear)    (Quad)   (Total)
    X1        1.76526  -0.00758   0.00000  -0.00999  -0.00713   1.75813
    Y1       -0.09564   0.00024   0.00000   0.00066   0.00014  -0.09550
    Z1        0.10090  -0.00107   0.00000  -0.00293  -0.00070   0.10019
    X2        4.21476   0.00107   0.00000   0.00206   0.00496   4.21972
    Y2       -0.11476   0.00088   0.00000  -0.00043  -0.00070  -0.11546
    Z2        0.18359  -0.00381   0.00000   0.00184   0.00300   0.18659
    X3        5.12197   0.00097   0.00000   0.00104   0.00316   5.12513
    Y3        0.27317   0.00053   0.00000   0.00120   0.00103   0.27420
    Z3       -1.49844  -0.00228   0.00000  -0.00522  -0.00446  -1.50290
    X4        5.62552   0.00624   0.00000   0.01554   0.01929   5.64482
    Y4       -0.54121  -0.00164   0.00000  -0.00141  -0.00153  -0.54274
    Z4        2.03258   0.00712   0.00000   0.00614   0.00667   2.03925
    X5        0.86974  -0.00031   0.00000  -0.00916  -0.00713   0.86261
    Y5        0.31971  -0.00005   0.00000   0.00075   0.00014   0.31985
    Z5       -1.70041   0.00020   0.00000  -0.00316  -0.00054  -1.70095
    X6        0.72441  -0.00039   0.00000  -0.01680  -0.01315   0.71126
    Y6       -0.49386   0.00004   0.00000   0.00155   0.00092  -0.49294
    Z6        1.82729  -0.00016   0.00000  -0.00667  -0.00398   1.82331
         Item               Value     Threshold  Converged?
 Maximum Force            0.007576     0.000450     NO 
 RMS     Force            0.003109     0.000300     NO 
 Maximum Displacement     0.019293     0.001800     NO 
 RMS     Displacement     0.006567     0.001200     NO 
 Predicted change in Energy=-1.200138D-04
 GradGradGradGradGradGradGradGradGradGradGradGradGradGradGradGradGradGrad

 Leave Link  103 at Tue Jan  3 09:05:04 2023, MaxMem=   536870912 cpu:               0.1 elap:               0.0
 (Enter /opt/software/gaussian/g16.c01/l9999.exe)
 Unable to Open any file for archive entry.
 1\1\GINC-GRA614\Force\UB3LYP\Gen\C1H3N1O1\BHAVUK\03-Jan-2023\0\\#p ub3
 lyp/chkbasis force guess=read geom=check scf=(maxcycle=900,verytightli
 neq,xqc) integral=grid=ultrafine symmetry=None density=current pop=(cm
 5,hlygat,mbs,npa) output=wfx\\0002_q000_m01_k00_opt_uwb97xd_def2svpd/0
 002_q000_m01_k00_force_ub3lyp_def2svpd stable-force\\0,1\C,0.934135998
 3,-0.0506101672,0.0533916633\N,2.2303561638,-0.0607282973,0.0971529523
 \H,2.7104299206,0.1445551233,-0.7929401941\O,2.9768985022,-0.286397636
 1,1.0755945973\H,0.4602474304,0.169181767,-0.8998201368\H,0.383341983,
 -0.2613407898,0.9669611147\\Version=ES64L-G16RevC.01\HF=-169.6903921\S
 2=0.\S2-1=0.\S2A=0.\RMSD=1.187e-09\RMSF=3.109e-03\Dipole=-0.8303797,0.
 2624221,-1.1379152\Quadrupole=-3.7417536,1.9264164,1.8153372,1.654093,
 -6.9111459,0.1187651\PG=Unknown\\@
 The archive entry for this job was punched.

 Writing a WFNX file to "0002_q000_m01_k00_force_ub3lyp_def2svpd.wfx"


 SEEN ON A WALL AT THE UNIVERSITY OF ILLINOIS AT CHICAGO CIRCLE:

 TO DO IS TO BE  -- SOCRATES
 TO BE IS TO DO  -- SARTRE
 OO BE DO BE DO  -- SINATRA
 Job cpu time:       0 days  0 hours  0 minutes 13.3 seconds.
 Elapsed time:       0 days  0 hours  0 minutes  6.5 seconds.
 File lengths (MBytes):  RWF=     10 Int=      0 D2E=      0 Chk=      2 Scr=      1
 Normal termination of Gaussian 16 at Tue Jan  3 09:05:04 2023.
