 Entering Gaussian System, Link 0=g16
 Input=0002_q000_m01_k00_force_uhf_def2tzvpd.com
 Output=0002_q000_m01_k00_force_uhf_def2tzvpd.log
 Initial command:
 /opt/software/gaussian/g16.c01/l1.exe "/localscratch/bhavuk.2151365.0/Gau-12039.inp" -scrdir="/localscratch/bhavuk.2151365.0/"
 Entering Link 1 = /opt/software/gaussian/g16.c01/l1.exe PID=     12040.
  
 Copyright (c) 1988-2019, Gaussian, Inc.  All Rights Reserved.
  
 This is part of the Gaussian(R) 16 program.  It is based on
 the Gaussian(R) 09 system (copyright 2009, Gaussian, Inc.),
 the Gaussian(R) 03 system (copyright 2003, Gaussian, Inc.),
 the Gaussian(R) 98 system (copyright 1998, Gaussian, Inc.),
 the Gaussian(R) 94 system (copyright 1995, Gaussian, Inc.),
 the Gaussian 92(TM) system (copyright 1992, Gaussian, Inc.),
 the Gaussian 90(TM) system (copyright 1990, Gaussian, Inc.),
 the Gaussian 88(TM) system (copyright 1988, Gaussian, Inc.),
 the Gaussian 86(TM) system (copyright 1986, Carnegie Mellon
 University), and the Gaussian 82(TM) system (copyright 1983,
 Carnegie Mellon University). Gaussian is a federally registered
 trademark of Gaussian, Inc.
  
 This software contains proprietary and confidential information,
 including trade secrets, belonging to Gaussian, Inc.
  
 This software is provided under written license and may be
 used, copied, transmitted, or stored only in accord with that
 written license.
  
 The following legend is applicable only to US Government
 contracts under FAR:
  
                    RESTRICTED RIGHTS LEGEND
  
 Use, reproduction and disclosure by the US Government is
 subject to restrictions as set forth in subparagraphs (a)
 and (c) of the Commercial Computer Software - Restricted
 Rights clause in FAR 52.227-19.
  
 Gaussian, Inc.
 340 Quinnipiac St., Bldg. 40, Wallingford CT 06492
  
  
 ---------------------------------------------------------------
 Warning -- This program may not be used in any manner that
 competes with the business of Gaussian, Inc. or will provide
 assistance to any competitor of Gaussian, Inc.  The licensee
 of this program is prohibited from giving any competitor of
 Gaussian, Inc. access to this program.  By using this program,
 the user acknowledges that Gaussian, Inc. is engaged in the
 business of creating and licensing software in the field of
 computational chemistry and represents and warrants to the
 licensee that it is not a competitor of Gaussian, Inc. and that
 it will not use this program in any manner prohibited above.
 ---------------------------------------------------------------
  

 Cite this work as:
 Gaussian 16, Revision C.01,
 M. J. Frisch, G. W. Trucks, H. B. Schlegel, G. E. Scuseria, 
 M. A. Robb, J. R. Cheeseman, G. Scalmani, V. Barone, 
 G. A. Petersson, H. Nakatsuji, X. Li, M. Caricato, A. V. Marenich, 
 J. Bloino, B. G. Janesko, R. Gomperts, B. Mennucci, H. P. Hratchian, 
 J. V. Ortiz, A. F. Izmaylov, J. L. Sonnenberg, D. Williams-Young, 
 F. Ding, F. Lipparini, F. Egidi, J. Goings, B. Peng, A. Petrone, 
 T. Henderson, D. Ranasinghe, V. G. Zakrzewski, J. Gao, N. Rega, 
 G. Zheng, W. Liang, M. Hada, M. Ehara, K. Toyota, R. Fukuda, 
 J. Hasegawa, M. Ishida, T. Nakajima, Y. Honda, O. Kitao, H. Nakai, 
 T. Vreven, K. Throssell, J. A. Montgomery, Jr., J. E. Peralta, 
 F. Ogliaro, M. J. Bearpark, J. J. Heyd, E. N. Brothers, K. N. Kudin, 
 V. N. Staroverov, T. A. Keith, R. Kobayashi, J. Normand, 
 K. Raghavachari, A. P. Rendell, J. C. Burant, S. S. Iyengar, 
 J. Tomasi, M. Cossi, J. M. Millam, M. Klene, C. Adamo, R. Cammi, 
 J. W. Ochterski, R. L. Martin, K. Morokuma, O. Farkas, 
 J. B. Foresman, and D. J. Fox, Gaussian, Inc., Wallingford CT, 2019.
 
 ******************************************
 Gaussian 16:  ES64L-G16RevC.01  3-Jul-2019
                 3-Jan-2023 
 ******************************************
 %chk=0002_q000_m01_k00_force_uhf_def2tzvpd.chk
 %nprocshared=2
 Will use up to    2 processors via shared memory.
 %mem=4GB
 ----------------------------------------------------------------------
 #p uhf/gen stable=opt scf=(maxcycle=900,verytightlineq,xqc) integral=g
 rid=ultrafine symmetry=None density=current iop(99/18=-1) output=wfn
 ----------------------------------------------------------------------
 1/38=1,172=1/1;
 2/12=2,15=3,17=6,18=5,40=1/2;
 3/5=7,11=2,25=1,30=1,75=-5,116=2/1,2,3;
 4//1;
 5/5=2,7=900,8=3,13=1,17=3,38=5/2,8;
 6/7=2,8=2,9=2,10=2,22=-1,28=1/1;
 8/6=1,10=90,11=11/1;
 9/8=-3,42=1,46=1/14;
 5/5=2,7=900,8=3,17=43,38=5/8(-2);
 6/7=2,8=2,9=2,10=2,22=-1,28=1/1;
 99/5=1,6=100,9=1,18=-1/99;
 Leave Link    1 at Tue Jan  3 09:04:40 2023, MaxMem=   536870912 cpu:               0.6 elap:               0.5
 (Enter /opt/software/gaussian/g16.c01/l101.exe)
 ----------------------------------------------------------------------
 0002_q000_m01_k00_opt_uwb97xd_def2svpd/0002_q000_m01_k00_force_uhf_def
 2tzvpd stable-force
 ----------------------------------------------------------------------
 Symbolic Z-matrix:
 Charge =  0 Multiplicity = 1
 C                     0.93414  -0.05061   0.05339 
 N                     2.23036  -0.06073   0.09715 
 H                     2.71043   0.14456  -0.79294 
 O                     2.9769   -0.2864    1.07559 
 H                     0.46025   0.16918  -0.89982 
 H                     0.38334  -0.26134   0.96696 
 
 ITRead=  0  0  0  0  0  0
 MicOpt= -1 -1 -1 -1 -1 -1
 NAtoms=      6 NQM=        6 NQMF=       0 NMMI=      0 NMMIF=      0
                NMic=       0 NMicF=      0.
                    Isotopes and Nuclear Properties:
 (Nuclear quadrupole moments (NQMom) in fm**2, nuclear magnetic moments (NMagM)
  in nuclear magnetons)

  Atom         1           2           3           4           5           6
 IAtWgt=          12          14           1          16           1           1
 AtmWgt=  12.0000000  14.0030740   1.0078250  15.9949146   1.0078250   1.0078250
 NucSpn=           0           2           1           0           1           1
 AtZEff=  -0.0000000  -0.0000000  -0.0000000  -0.0000000  -0.0000000  -0.0000000
 NQMom=    0.0000000   2.0440000   0.0000000   0.0000000   0.0000000   0.0000000
 NMagM=    0.0000000   0.4037610   2.7928460   0.0000000   2.7928460   2.7928460
 AtZNuc=   6.0000000   7.0000000   1.0000000   8.0000000   1.0000000   1.0000000
 Leave Link  101 at Tue Jan  3 09:04:41 2023, MaxMem=   536870912 cpu:               0.4 elap:               0.2
 (Enter /opt/software/gaussian/g16.c01/l202.exe)
                          Input orientation:                          
 ---------------------------------------------------------------------
 Center     Atomic      Atomic             Coordinates (Angstroms)
 Number     Number       Type             X           Y           Z
 ---------------------------------------------------------------------
      1          6           0        0.934136   -0.050610    0.053392
      2          7           0        2.230356   -0.060728    0.097153
      3          1           0        2.710430    0.144555   -0.792940
      4          8           0        2.976899   -0.286398    1.075595
      5          1           0        0.460247    0.169182   -0.899820
      6          1           0        0.383342   -0.261341    0.966961
 ---------------------------------------------------------------------
                    Distance matrix (angstroms):
                    1          2          3          4          5
     1  C    0.000000
     2  N    1.296998   0.000000
     3  H    1.977268   1.031929   0.000000
     4  O    2.296383   1.251239   1.936013   0.000000
     5  H    1.086964   2.044529   2.252854   3.231617   0.000000
     6  H    1.087378   2.051408   2.945733   2.595952   1.917325
                    6
     6  H    0.000000
 Symmetry turned off by external request.
 Stoichiometry    CH3NO
 Rotational constants (GHZ):          75.8819039          11.9122881          10.2959784
 Leave Link  202 at Tue Jan  3 09:04:41 2023, MaxMem=   536870912 cpu:               0.0 elap:               0.0
 (Enter /opt/software/gaussian/g16.c01/l301.exe)
 General basis read from cards:  (5D, 7F)
 Centers:       3      5      6
 S 3 1.00
     Exponent=  3.4061341000D+01 Coefficients=  6.0251978000D-03
     Exponent=  5.1235746000D+00 Coefficients=  4.5021094000D-02
     Exponent=  1.1646626000D+00 Coefficients=  2.0189726000D-01
 S 1 1.00
     Exponent=  3.2723041000D-01 Coefficients=  1.0000000000D+00
 S 1 1.00
     Exponent=  1.0307241000D-01 Coefficients=  1.0000000000D+00
 P 1 1.00
     Exponent=  8.0000000000D-01 Coefficients=  1.0000000000D+00
 P 1 1.00
     Exponent=  9.5774129632D-02 Coefficients=  1.0000000000D+00
 ****
 Centers:       1
 S 6 1.00
     Exponent=  1.3575349682D+04 Coefficients=  2.2245814352D-04
     Exponent=  2.0352333680D+03 Coefficients=  1.7232738252D-03
     Exponent=  4.6322562359D+02 Coefficients=  8.9255715314D-03
     Exponent=  1.3120019598D+02 Coefficients=  3.5727984502D-02
     Exponent=  4.2853015891D+01 Coefficients=  1.1076259931D-01
     Exponent=  1.5584185766D+01 Coefficients=  2.4295627626D-01
 S 2 1.00
     Exponent=  6.2067138508D+00 Coefficients=  4.1440263448D-01
     Exponent=  2.5764896527D+00 Coefficients=  2.3744968655D-01
 S 1 1.00
     Exponent=  5.7696339419D-01 Coefficients=  1.0000000000D+00
 S 1 1.00
     Exponent=  2.2972831358D-01 Coefficients=  1.0000000000D+00
 S 1 1.00
     Exponent=  9.5164440028D-02 Coefficients=  1.0000000000D+00
 S 1 1.00
     Exponent=  4.8475401370D-02 Coefficients=  1.0000000000D+00
 P 4 1.00
     Exponent=  3.4697232244D+01 Coefficients=  5.3333657805D-03
     Exponent=  7.9582622826D+00 Coefficients=  3.5864109092D-02
     Exponent=  2.3780826883D+00 Coefficients=  1.4215873329D-01
     Exponent=  8.1433208183D-01 Coefficients=  3.4270471845D-01
 P 1 1.00
     Exponent=  2.8887547253D-01 Coefficients=  4.6445822433D-01
 P 1 1.00
     Exponent=  1.0056823671D-01 Coefficients=  2.4955789874D-01
 D 1 1.00
     Exponent=  1.0970000000D+00 Coefficients=  1.0000000000D+00
 D 1 1.00
     Exponent=  3.1800000000D-01 Coefficients=  1.0000000000D+00
 D 1 1.00
     Exponent=  9.0985336424D-02 Coefficients=  1.0000000000D+00
 F 1 1.00
     Exponent=  7.6100000000D-01 Coefficients=  1.0000000000D+00
 ****
 Centers:       2
 S 6 1.00
     Exponent=  1.9730800647D+04 Coefficients=  2.1887984991D-04
     Exponent=  2.9578958745D+03 Coefficients=  1.6960708803D-03
     Exponent=  6.7322133595D+02 Coefficients=  8.7954603538D-03
     Exponent=  1.9068249494D+02 Coefficients=  3.5359382605D-02
     Exponent=  6.2295441898D+01 Coefficients=  1.1095789217D-01
     Exponent=  2.2654161182D+01 Coefficients=  2.4982972552D-01
 S 2 1.00
     Exponent=  8.9791477428D+00 Coefficients=  4.0623896148D-01
     Exponent=  3.6863002370D+00 Coefficients=  2.4338217176D-01
 S 1 1.00
     Exponent=  8.4660076805D-01 Coefficients=  1.0000000000D+00
 S 1 1.00
     Exponent=  3.3647133771D-01 Coefficients=  1.0000000000D+00
 S 1 1.00
     Exponent=  1.3647653675D-01 Coefficients=  1.0000000000D+00
 S 1 1.00
     Exponent=  6.8441605847D-02 Coefficients=  1.0000000000D+00
 P 4 1.00
     Exponent=  4.9200380510D+01 Coefficients=  5.5552416751D-03
     Exponent=  1.1346790537D+01 Coefficients=  3.8052379723D-02
     Exponent=  3.4273972411D+00 Coefficients=  1.4953671029D-01
     Exponent=  1.1785525134D+00 Coefficients=  3.4949305230D-01
 P 1 1.00
     Exponent=  4.1642204972D-01 Coefficients=  4.5843153697D-01
 P 1 1.00
     Exponent=  1.4260826011D-01 Coefficients=  2.4428771672D-01
 D 1 1.00
     Exponent=  1.6540000000D+00 Coefficients=  1.0000000000D+00
 D 1 1.00
     Exponent=  4.6900000000D-01 Coefficients=  1.0000000000D+00
 D 1 1.00
     Exponent=  1.2829642058D-01 Coefficients=  1.0000000000D+00
 F 1 1.00
     Exponent=  1.0930000000D+00 Coefficients=  1.0000000000D+00
 ****
 Centers:       4
 S 6 1.00
     Exponent=  2.7032382631D+04 Coefficients=  2.1726302465D-04
     Exponent=  4.0523871392D+03 Coefficients=  1.6838662199D-03
     Exponent=  9.2232722710D+02 Coefficients=  8.7395616265D-03
     Exponent=  2.6124070989D+02 Coefficients=  3.5239968808D-02
     Exponent=  8.5354641351D+01 Coefficients=  1.1153519115D-01
     Exponent=  3.1035035245D+01 Coefficients=  2.5588953961D-01
 S 2 1.00
     Exponent=  1.2260860728D+01 Coefficients=  3.9768730901D-01
     Exponent=  4.9987076005D+00 Coefficients=  2.4627849430D-01
 S 1 1.00
     Exponent=  1.1703108158D+00 Coefficients=  1.0000000000D+00
 S 1 1.00
     Exponent=  4.6474740994D-01 Coefficients=  1.0000000000D+00
 S 1 1.00
     Exponent=  1.8504536357D-01 Coefficients=  1.0000000000D+00
 S 1 1.00
     Exponent=  7.0288026270D-02 Coefficients=  1.0000000000D+00
 P 4 1.00
     Exponent=  6.3274954801D+01 Coefficients=  6.0685103418D-03
     Exponent=  1.4627049379D+01 Coefficients=  4.1912575824D-02
     Exponent=  4.4501223456D+00 Coefficients=  1.6153841088D-01
     Exponent=  1.5275799647D+00 Coefficients=  3.5706951311D-01
 P 1 1.00
     Exponent=  5.2935117943D-01 Coefficients=  4.4794207502D-01
 P 1 1.00
     Exponent=  1.7478421270D-01 Coefficients=  2.4446069663D-01
 P 1 1.00
     Exponent=  5.1112745706D-02 Coefficients=  1.0000000000D+00
 D 1 1.00
     Exponent=  2.3140000000D+00 Coefficients=  1.0000000000D+00
 D 1 1.00
     Exponent=  6.4500000000D-01 Coefficients=  1.0000000000D+00
 D 1 1.00
     Exponent=  1.4696477366D-01 Coefficients=  1.0000000000D+00
 F 1 1.00
     Exponent=  1.4280000000D+00 Coefficients=  1.0000000000D+00
 ****
 Ernie: Thresh=  0.10000D-02 Tol=  0.10000D-05 Strict=F.
   141 basis functions,   210 primitive gaussians,   159 cartesian basis functions
    12 alpha electrons       12 beta electrons
       nuclear repulsion energy        72.3526514420 Hartrees.
 IExCor=    0 DFT=F Ex=HF Corr=None ExCW=0 ScaHFX=  1.000000
 ScaDFX=  1.000000  1.000000  1.000000  1.000000 ScalE2=  1.000000  1.000000
 IRadAn=      5 IRanWt=     -1 IRanGd=            0 ICorTp=0 IEmpDi=  4
 NAtoms=    6 NActive=    6 NUniq=    6 SFac= 1.00D+00 NAtFMM=   60 NAOKFM=F Big=F
 Integral buffers will be    131072 words long.
 Raffenetti 2 integral format.
 Two-electron integral symmetry is turned off.
 Leave Link  301 at Tue Jan  3 09:04:41 2023, MaxMem=   536870912 cpu:               0.2 elap:               0.1
 (Enter /opt/software/gaussian/g16.c01/l302.exe)
 NPDir=0 NMtPBC=     1 NCelOv=     1 NCel=       1 NClECP=     1 NCelD=      1
         NCelK=      1 NCelE2=     1 NClLst=     1 CellRange=     0.0.
 One-electron integrals computed using PRISM.
 NBasis=   141 RedAO= T EigKep=  4.92D-05  NBF=   141
 NBsUse=   141 1.00D-06 EigRej= -1.00D+00 NBFU=   141
 Leave Link  302 at Tue Jan  3 09:04:41 2023, MaxMem=   536870912 cpu:               0.3 elap:               0.2
 (Enter /opt/software/gaussian/g16.c01/l303.exe)
 DipDrv:  MaxL=1.
 Leave Link  303 at Tue Jan  3 09:04:41 2023, MaxMem=   536870912 cpu:               0.1 elap:               0.1
 (Enter /opt/software/gaussian/g16.c01/l401.exe)
 ExpMin= 4.85D-02 ExpMax= 2.70D+04 ExpMxC= 9.22D+02 IAcc=3 IRadAn=         5 AccDes= 0.00D+00
 Harris functional with IExCor=  205 and IRadAn=       5 diagonalized for initial guess.
 HarFok:  IExCor=  205 AccDes= 0.00D+00 IRadAn=         5 IDoV= 1 UseB2=F ITyADJ=14
 ICtDFT=  3500011 ScaDFX=  1.000000  1.000000  1.000000  1.000000
 FoFCou: FMM=F IPFlag=           0 FMFlag=      100000 FMFlg1=           0
         NFxFlg=           0 DoJE=T BraDBF=F KetDBF=T FulRan=T
         wScrn=  0.000000 ICntrl=       500 IOpCl=  0 I1Cent=   200000004 NGrid=           0
         NMat0=    1 NMatS0=      1 NMatT0=    0 NMatD0=    1 NMtDS0=    0 NMtDT0=    0
 Symmetry not used in FoFCou.
 Harris En= -169.075209842508    
 JPrj=0 DoOrth=F DoCkMO=F.
 Initial guess <Sx>= 0.0000 <Sy>= 0.0000 <Sz>= 0.0000 <S**2>= 0.0000 S= 0.0000
 Leave Link  401 at Tue Jan  3 09:04:41 2023, MaxMem=   536870912 cpu:               0.9 elap:               0.5
 (Enter /opt/software/gaussian/g16.c01/l502.exe)
 Keep R1 and R2 ints in memory in canonical form, NReq=102278613.
 FoFCou: FMM=F IPFlag=           0 FMFlag=           0 FMFlg1=           0
         NFxFlg=           0 DoJE=F BraDBF=F KetDBF=F FulRan=T
         wScrn=  0.000000 ICntrl=       600 IOpCl=  0 I1Cent=           0 NGrid=           0
         NMat0=    1 NMatS0=  10011 NMatT0=    0 NMatD0=    1 NMtDS0=    0 NMtDT0=    0
 Symmetry not used in FoFCou.
 Two-electron integral symmetry not used.
 UHF open shell SCF:
 Using DIIS extrapolation, IDIIS=  1040.
 NGot=   536870912 LenX=   436587991 LenY=   436562269
 Requested convergence on RMS density matrix=1.00D-08 within 128 cycles.
 Requested convergence on MAX density matrix=1.00D-06.
 Requested convergence on             energy=1.00D-06.
 No special actions if energy rises.

 Cycle   1  Pass 1  IDiag  1:
 E= -168.756386820407    
 DIIS: error= 3.96D-02 at cycle   1 NSaved=   1.
 NSaved= 1 IEnMin= 1 EnMin= -168.756386820407     IErMin= 1 ErrMin= 3.96D-02
 ErrMax= 3.96D-02  0.00D+00 EMaxC= 1.00D-01 BMatC= 1.33D+00 BMatP= 1.33D+00
 IDIUse=3 WtCom= 6.04D-01 WtEn= 3.96D-01
 Coeff-Com:  0.100D+01
 Coeff-En:   0.100D+01
 Coeff:      0.100D+01
 Gap=     0.430 Goal=   None    Shift=    0.000
 Gap=     0.430 Goal=   None    Shift=    0.000
 GapD=    0.430 DampG=2.000 DampE=0.500 DampFc=1.0000 IDamp=-1.
 RMSDP=3.08D-03 MaxDP=6.03D-02              OVMax= 1.19D-01

 Cycle   2  Pass 1  IDiag  1:
 E= -168.860188998416     Delta-E=       -0.103802178009 Rises=F Damp=F
 DIIS: error= 1.34D-02 at cycle   2 NSaved=   2.
 NSaved= 2 IEnMin= 2 EnMin= -168.860188998416     IErMin= 2 ErrMin= 1.34D-02
 ErrMax= 1.34D-02  0.00D+00 EMaxC= 1.00D-01 BMatC= 1.63D-01 BMatP= 1.33D+00
 IDIUse=3 WtCom= 8.66D-01 WtEn= 1.34D-01
 Coeff-Com:  0.180D+00 0.820D+00
 Coeff-En:   0.000D+00 0.100D+01
 Coeff:      0.156D+00 0.844D+00
 Gap=     0.443 Goal=   None    Shift=    0.000
 Gap=     0.443 Goal=   None    Shift=    0.000
 RMSDP=1.00D-03 MaxDP=3.01D-02 DE=-1.04D-01 OVMax= 5.97D-02

 Cycle   3  Pass 1  IDiag  1:
 E= -168.882418178512     Delta-E=       -0.022229180095 Rises=F Damp=F
 DIIS: error= 7.87D-03 at cycle   3 NSaved=   3.
 NSaved= 3 IEnMin= 3 EnMin= -168.882418178512     IErMin= 3 ErrMin= 7.87D-03
 ErrMax= 7.87D-03  0.00D+00 EMaxC= 1.00D-01 BMatC= 3.49D-02 BMatP= 1.63D-01
 IDIUse=3 WtCom= 9.21D-01 WtEn= 7.87D-02
 Coeff-Com: -0.144D-01 0.297D+00 0.718D+00
 Coeff-En:   0.000D+00 0.000D+00 0.100D+01
 Coeff:     -0.133D-01 0.273D+00 0.740D+00
 Gap=     0.418 Goal=   None    Shift=    0.000
 Gap=     0.418 Goal=   None    Shift=    0.000
 RMSDP=3.21D-04 MaxDP=1.11D-02 DE=-2.22D-02 OVMax= 1.81D-02

 Cycle   4  Pass 1  IDiag  1:
 E= -168.887702600020     Delta-E=       -0.005284421508 Rises=F Damp=F
 DIIS: error= 1.56D-03 at cycle   4 NSaved=   4.
 NSaved= 4 IEnMin= 4 EnMin= -168.887702600020     IErMin= 4 ErrMin= 1.56D-03
 ErrMax= 1.56D-03  0.00D+00 EMaxC= 1.00D-01 BMatC= 1.24D-03 BMatP= 3.49D-02
 IDIUse=3 WtCom= 9.84D-01 WtEn= 1.56D-02
 Coeff-Com: -0.907D-02 0.463D-01 0.212D+00 0.751D+00
 Coeff-En:   0.000D+00 0.000D+00 0.000D+00 0.100D+01
 Coeff:     -0.893D-02 0.456D-01 0.208D+00 0.755D+00
 Gap=     0.415 Goal=   None    Shift=    0.000
 Gap=     0.415 Goal=   None    Shift=    0.000
 RMSDP=9.42D-05 MaxDP=2.45D-03 DE=-5.28D-03 OVMax= 9.80D-03

 Cycle   5  Pass 1  IDiag  1:
 E= -168.888035348342     Delta-E=       -0.000332748322 Rises=F Damp=F
 DIIS: error= 6.91D-04 at cycle   5 NSaved=   5.
 NSaved= 5 IEnMin= 5 EnMin= -168.888035348342     IErMin= 5 ErrMin= 6.91D-04
 ErrMax= 6.91D-04  0.00D+00 EMaxC= 1.00D-01 BMatC= 1.54D-04 BMatP= 1.24D-03
 IDIUse=3 WtCom= 9.93D-01 WtEn= 6.91D-03
 Coeff-Com:  0.165D-02-0.284D-01-0.890D-01 0.505D-01 0.107D+01
 Coeff-En:   0.000D+00 0.000D+00 0.000D+00 0.000D+00 0.100D+01
 Coeff:      0.163D-02-0.282D-01-0.884D-01 0.501D-01 0.106D+01
 Gap=     0.414 Goal=   None    Shift=    0.000
 Gap=     0.414 Goal=   None    Shift=    0.000
 RMSDP=4.84D-05 MaxDP=1.01D-03 DE=-3.33D-04 OVMax= 2.59D-03

 Cycle   6  Pass 1  IDiag  1:
 E= -168.888097847203     Delta-E=       -0.000062498862 Rises=F Damp=F
 DIIS: error= 2.71D-04 at cycle   6 NSaved=   6.
 NSaved= 6 IEnMin= 6 EnMin= -168.888097847203     IErMin= 6 ErrMin= 2.71D-04
 ErrMax= 2.71D-04  0.00D+00 EMaxC= 1.00D-01 BMatC= 2.15D-05 BMatP= 1.54D-04
 IDIUse=3 WtCom= 9.97D-01 WtEn= 2.71D-03
 Coeff-Com:  0.169D-02-0.149D-01-0.562D-01-0.716D-01 0.198D+00 0.943D+00
 Coeff-En:   0.000D+00 0.000D+00 0.000D+00 0.000D+00 0.000D+00 0.100D+01
 Coeff:      0.168D-02-0.149D-01-0.560D-01-0.715D-01 0.198D+00 0.943D+00
 Gap=     0.415 Goal=   None    Shift=    0.000
 Gap=     0.415 Goal=   None    Shift=    0.000
 RMSDP=2.39D-05 MaxDP=5.42D-04 DE=-6.25D-05 OVMax= 2.59D-03

 Cycle   7  Pass 1  IDiag  1:
 E= -168.888112310015     Delta-E=       -0.000014462811 Rises=F Damp=F
 DIIS: error= 1.21D-04 at cycle   7 NSaved=   7.
 NSaved= 7 IEnMin= 7 EnMin= -168.888112310015     IErMin= 7 ErrMin= 1.21D-04
 ErrMax= 1.21D-04  0.00D+00 EMaxC= 1.00D-01 BMatC= 5.59D-06 BMatP= 2.15D-05
 IDIUse=3 WtCom= 9.99D-01 WtEn= 1.21D-03
 Coeff-Com: -0.372D-03 0.670D-02 0.225D-01 0.924D-02-0.310D+00 0.430D-01
 Coeff-Com:  0.123D+01
 Coeff-En:   0.000D+00 0.000D+00 0.000D+00 0.000D+00 0.000D+00 0.000D+00
 Coeff-En:   0.100D+01
 Coeff:     -0.372D-03 0.669D-02 0.225D-01 0.923D-02-0.310D+00 0.430D-01
 Coeff:      0.123D+01
 Gap=     0.415 Goal=   None    Shift=    0.000
 Gap=     0.415 Goal=   None    Shift=    0.000
 RMSDP=1.51D-05 MaxDP=3.46D-04 DE=-1.45D-05 OVMax= 1.47D-03

 Cycle   8  Pass 1  IDiag  1:
 E= -168.888116484659     Delta-E=       -0.000004174645 Rises=F Damp=F
 DIIS: error= 3.11D-05 at cycle   8 NSaved=   8.
 NSaved= 8 IEnMin= 8 EnMin= -168.888116484659     IErMin= 8 ErrMin= 3.11D-05
 ErrMax= 3.11D-05  0.00D+00 EMaxC= 1.00D-01 BMatC= 4.51D-07 BMatP= 5.59D-06
 IDIUse=1 WtCom= 1.00D+00 WtEn= 0.00D+00
 Coeff-Com: -0.158D-03 0.914D-03 0.361D-02 0.133D-01 0.364D-02-0.617D-01
 Coeff-Com: -0.297D+00 0.134D+01
 Coeff:     -0.158D-03 0.914D-03 0.361D-02 0.133D-01 0.364D-02-0.617D-01
 Coeff:     -0.297D+00 0.134D+01
 Gap=     0.415 Goal=   None    Shift=    0.000
 Gap=     0.415 Goal=   None    Shift=    0.000
 RMSDP=6.38D-06 MaxDP=1.34D-04 DE=-4.17D-06 OVMax= 5.88D-04

 Cycle   9  Pass 1  IDiag  1:
 E= -168.888116928228     Delta-E=       -0.000000443568 Rises=F Damp=F
 DIIS: error= 7.97D-06 at cycle   9 NSaved=   9.
 NSaved= 9 IEnMin= 9 EnMin= -168.888116928228     IErMin= 9 ErrMin= 7.97D-06
 ErrMax= 7.97D-06  0.00D+00 EMaxC= 1.00D-01 BMatC= 4.62D-08 BMatP= 4.51D-07
 IDIUse=1 WtCom= 1.00D+00 WtEn= 0.00D+00
 Coeff-Com:  0.752D-04-0.869D-03-0.289D-02-0.341D-02 0.148D-01 0.389D-01
 Coeff-Com: -0.186D-01-0.478D+00 0.145D+01
 Coeff:      0.752D-04-0.869D-03-0.289D-02-0.341D-02 0.148D-01 0.389D-01
 Coeff:     -0.186D-01-0.478D+00 0.145D+01
 Gap=     0.415 Goal=   None    Shift=    0.000
 Gap=     0.415 Goal=   None    Shift=    0.000
 RMSDP=2.27D-06 MaxDP=3.53D-05 DE=-4.44D-07 OVMax= 1.70D-04

 Cycle  10  Pass 1  IDiag  1:
 E= -168.888116969271     Delta-E=       -0.000000041043 Rises=F Damp=F
 DIIS: error= 2.70D-06 at cycle  10 NSaved=  10.
 NSaved=10 IEnMin=10 EnMin= -168.888116969271     IErMin=10 ErrMin= 2.70D-06
 ErrMax= 2.70D-06  0.00D+00 EMaxC= 1.00D-01 BMatC= 3.19D-09 BMatP= 4.62D-08
 IDIUse=1 WtCom= 1.00D+00 WtEn= 0.00D+00
 Coeff-Com: -0.263D-05 0.105D-03 0.506D-03-0.699D-04-0.734D-02 0.158D-02
 Coeff-Com:  0.379D-01-0.358D-01-0.336D+00 0.134D+01
 Coeff:     -0.263D-05 0.105D-03 0.506D-03-0.699D-04-0.734D-02 0.158D-02
 Coeff:      0.379D-01-0.358D-01-0.336D+00 0.134D+01
 Gap=     0.415 Goal=   None    Shift=    0.000
 Gap=     0.415 Goal=   None    Shift=    0.000
 RMSDP=5.62D-07 MaxDP=9.79D-06 DE=-4.10D-08 OVMax= 4.46D-05

 Cycle  11  Pass 1  IDiag  1:
 E= -168.888116971976     Delta-E=       -0.000000002705 Rises=F Damp=F
 DIIS: error= 4.76D-07 at cycle  11 NSaved=  11.
 NSaved=11 IEnMin=11 EnMin= -168.888116971976     IErMin=11 ErrMin= 4.76D-07
 ErrMax= 4.76D-07  0.00D+00 EMaxC= 1.00D-01 BMatC= 1.59D-10 BMatP= 3.19D-09
 IDIUse=1 WtCom= 1.00D+00 WtEn= 0.00D+00
 Coeff-Com: -0.308D-05 0.229D-04 0.651D-04 0.269D-03-0.170D-04-0.915D-03
 Coeff-Com: -0.747D-02 0.314D-01-0.971D-02-0.267D+00 0.125D+01
 Coeff:     -0.308D-05 0.229D-04 0.651D-04 0.269D-03-0.170D-04-0.915D-03
 Coeff:     -0.747D-02 0.314D-01-0.971D-02-0.267D+00 0.125D+01
 Gap=     0.415 Goal=   None    Shift=    0.000
 Gap=     0.415 Goal=   None    Shift=    0.000
 RMSDP=1.02D-07 MaxDP=1.99D-06 DE=-2.71D-09 OVMax= 6.41D-06

 Cycle  12  Pass 1  IDiag  1:
 E= -168.888116972074     Delta-E=       -0.000000000097 Rises=F Damp=F
 DIIS: error= 1.04D-07 at cycle  12 NSaved=  12.
 NSaved=12 IEnMin=12 EnMin= -168.888116972074     IErMin=12 ErrMin= 1.04D-07
 ErrMax= 1.04D-07  0.00D+00 EMaxC= 1.00D-01 BMatC= 9.62D-12 BMatP= 1.59D-10
 IDIUse=1 WtCom= 1.00D+00 WtEn= 0.00D+00
 Coeff-Com:  0.106D-05-0.146D-04-0.468D-04-0.806D-04 0.373D-03 0.625D-03
 Coeff-Com: -0.423D-03-0.843D-02 0.269D-01-0.582D-02-0.376D+00 0.136D+01
 Coeff:      0.106D-05-0.146D-04-0.468D-04-0.806D-04 0.373D-03 0.625D-03
 Coeff:     -0.423D-03-0.843D-02 0.269D-01-0.582D-02-0.376D+00 0.136D+01
 Gap=     0.415 Goal=   None    Shift=    0.000
 Gap=     0.415 Goal=   None    Shift=    0.000
 RMSDP=2.33D-08 MaxDP=3.97D-07 DE=-9.74D-11 OVMax= 1.35D-06

 Cycle  13  Pass 1  IDiag  1:
 E= -168.888116972080     Delta-E=       -0.000000000006 Rises=F Damp=F
 DIIS: error= 2.08D-08 at cycle  13 NSaved=  13.
 NSaved=13 IEnMin=13 EnMin= -168.888116972080     IErMin=13 ErrMin= 2.08D-08
 ErrMax= 2.08D-08  0.00D+00 EMaxC= 1.00D-01 BMatC= 3.78D-13 BMatP= 9.62D-12
 IDIUse=1 WtCom= 1.00D+00 WtEn= 0.00D+00
 Coeff-Com: -0.817D-07 0.203D-05 0.818D-05 0.384D-05-0.946D-04-0.759D-04
 Coeff-Com:  0.443D-03 0.444D-03-0.571D-02 0.137D-01 0.340D-01-0.386D+00
 Coeff-Com:  0.134D+01
 Coeff:     -0.817D-07 0.203D-05 0.818D-05 0.384D-05-0.946D-04-0.759D-04
 Coeff:      0.443D-03 0.444D-03-0.571D-02 0.137D-01 0.340D-01-0.386D+00
 Coeff:      0.134D+01
 Gap=     0.415 Goal=   None    Shift=    0.000
 Gap=     0.415 Goal=   None    Shift=    0.000
 RMSDP=5.50D-09 MaxDP=8.06D-08 DE=-6.25D-12 OVMax= 2.74D-07

 SCF Done:  E(UHF) =  -168.888116972     A.U. after   13 cycles
            NFock= 13  Conv=0.55D-08     -V/T= 2.0015
 <Sx>= 0.0000 <Sy>= 0.0000 <Sz>= 0.0000 <S**2>=-0.0000 S=-0.0000
 <L.S>=  0.00000000000    
 KE= 1.686379402127D+02 PE=-5.420969758836D+02 EE= 1.322182672569D+02
 Annihilation of the first spin contaminant:
 S**2 before annihilation    -0.0000,   after     0.0000
 Leave Link  502 at Tue Jan  3 09:04:45 2023, MaxMem=   536870912 cpu:               6.1 elap:               3.6
 (Enter /opt/software/gaussian/g16.c01/l508.exe)
 QCSCF skips out because SCF is already converged.
 Leave Link  508 at Tue Jan  3 09:04:45 2023, MaxMem=   536870912 cpu:               0.0 elap:               0.0
 (Enter /opt/software/gaussian/g16.c01/l601.exe)
 Copying SCF densities to generalized density rwf, IOpCl= 1 IROHF=0.

 **********************************************************************

            Population analysis using the SCF Density.

 **********************************************************************

 Alpha  occ. eigenvalues --  -20.52473 -15.73671 -11.29709  -1.46236  -1.15970
 Alpha  occ. eigenvalues --   -0.89662  -0.75527  -0.67531  -0.62446  -0.59256
 Alpha  occ. eigenvalues --   -0.43336  -0.35307
 Alpha virt. eigenvalues --    0.06203   0.08992   0.09282   0.11958   0.14230
 Alpha virt. eigenvalues --    0.14868   0.15424   0.17529   0.20602   0.22525
 Alpha virt. eigenvalues --    0.23068   0.28362   0.28783   0.29455   0.30870
 Alpha virt. eigenvalues --    0.32731   0.34159   0.34757   0.37407   0.39415
 Alpha virt. eigenvalues --    0.40383   0.43387   0.43974   0.44866   0.46090
 Alpha virt. eigenvalues --    0.47951   0.50190   0.53554   0.55852   0.57061
 Alpha virt. eigenvalues --    0.58982   0.59912   0.60175   0.62542   0.65318
 Alpha virt. eigenvalues --    0.67273   0.71770   0.73251   0.74419   0.83592
 Alpha virt. eigenvalues --    0.83889   0.86929   0.88433   0.90913   0.92466
 Alpha virt. eigenvalues --    0.97365   0.99438   1.04369   1.10786   1.12659
 Alpha virt. eigenvalues --    1.17200   1.24089   1.27027   1.34538   1.36940
 Alpha virt. eigenvalues --    1.51792   1.53491   1.65538   1.67137   1.82828
 Alpha virt. eigenvalues --    1.83934   1.91270   1.98783   1.99545   2.09903
 Alpha virt. eigenvalues --    2.10453   2.13416   2.15510   2.20883   2.24443
 Alpha virt. eigenvalues --    2.30169   2.37860   2.44286   2.55075   2.64561
 Alpha virt. eigenvalues --    2.68496   2.68648   2.71176   2.91165   2.95336
 Alpha virt. eigenvalues --    3.00602   3.03664   3.14853   3.22410   3.26430
 Alpha virt. eigenvalues --    3.32062   3.36641   3.41921   3.45277   3.46293
 Alpha virt. eigenvalues --    3.59883   3.60119   3.62172   3.70164   3.84851
 Alpha virt. eigenvalues --    3.89818   4.01810   4.14618   4.22436   4.42935
 Alpha virt. eigenvalues --    4.54205   4.59880   4.68310   4.92638   5.11828
 Alpha virt. eigenvalues --    5.17163   5.21081   5.23663   5.35864   5.36171
 Alpha virt. eigenvalues --    5.57469   5.67010   5.67631   5.76769   5.88726
 Alpha virt. eigenvalues --    5.91670   6.05826   6.28564   6.81453   7.00230
 Alpha virt. eigenvalues --    7.03056   7.08814   7.39154   7.55866   7.69982
 Alpha virt. eigenvalues --    8.15067  23.67021  33.64178  45.90574
  Beta  occ. eigenvalues --  -20.52473 -15.73671 -11.29709  -1.46236  -1.15970
  Beta  occ. eigenvalues --   -0.89662  -0.75527  -0.67531  -0.62446  -0.59256
  Beta  occ. eigenvalues --   -0.43336  -0.35307
  Beta virt. eigenvalues --    0.06203   0.08992   0.09282   0.11958   0.14230
  Beta virt. eigenvalues --    0.14868   0.15424   0.17529   0.20602   0.22525
  Beta virt. eigenvalues --    0.23068   0.28362   0.28783   0.29455   0.30870
  Beta virt. eigenvalues --    0.32731   0.34159   0.34757   0.37407   0.39415
  Beta virt. eigenvalues --    0.40383   0.43387   0.43974   0.44866   0.46090
  Beta virt. eigenvalues --    0.47951   0.50190   0.53554   0.55852   0.57061
  Beta virt. eigenvalues --    0.58982   0.59912   0.60175   0.62542   0.65318
  Beta virt. eigenvalues --    0.67273   0.71770   0.73251   0.74419   0.83592
  Beta virt. eigenvalues --    0.83889   0.86929   0.88433   0.90913   0.92466
  Beta virt. eigenvalues --    0.97365   0.99438   1.04369   1.10786   1.12659
  Beta virt. eigenvalues --    1.17200   1.24089   1.27027   1.34538   1.36940
  Beta virt. eigenvalues --    1.51792   1.53491   1.65538   1.67137   1.82828
  Beta virt. eigenvalues --    1.83934   1.91270   1.98783   1.99545   2.09903
  Beta virt. eigenvalues --    2.10453   2.13416   2.15510   2.20883   2.24443
  Beta virt. eigenvalues --    2.30169   2.37860   2.44286   2.55075   2.64561
  Beta virt. eigenvalues --    2.68496   2.68648   2.71176   2.91165   2.95336
  Beta virt. eigenvalues --    3.00602   3.03664   3.14853   3.22410   3.26430
  Beta virt. eigenvalues --    3.32062   3.36641   3.41921   3.45277   3.46293
  Beta virt. eigenvalues --    3.59883   3.60119   3.62172   3.70164   3.84851
  Beta virt. eigenvalues --    3.89818   4.01810   4.14618   4.22436   4.42935
  Beta virt. eigenvalues --    4.54205   4.59880   4.68310   4.92638   5.11828
  Beta virt. eigenvalues --    5.17163   5.21081   5.23663   5.35864   5.36171
  Beta virt. eigenvalues --    5.57469   5.67010   5.67631   5.76769   5.88726
  Beta virt. eigenvalues --    5.91670   6.05826   6.28564   6.81453   7.00230
  Beta virt. eigenvalues --    7.03056   7.08814   7.39154   7.55866   7.69982
  Beta virt. eigenvalues --    8.15067  23.67021  33.64178  45.90574
          Condensed to atoms (all electrons):
               1          2          3          4          5          6
     1  C    4.979940   0.569128  -0.030147  -0.087638   0.403298   0.417729
     2  N    0.569128   5.594809   0.427963   0.183994  -0.023842  -0.017073
     3  H   -0.030147   0.427963   0.464298  -0.048552  -0.024539   0.002198
     4  O   -0.087638   0.183994  -0.048552   8.584958   0.003082   0.000485
     5  H    0.403298  -0.023842  -0.024539   0.003082   0.483546  -0.037592
     6  H    0.417729  -0.017073   0.002198   0.000485  -0.037592   0.415457
          Atomic-Atomic Spin Densities.
               1          2          3          4          5          6
     1  C    0.000000   0.000000   0.000000   0.000000   0.000000   0.000000
     2  N    0.000000   0.000000   0.000000   0.000000   0.000000   0.000000
     3  H    0.000000   0.000000   0.000000   0.000000   0.000000   0.000000
     4  O    0.000000   0.000000   0.000000   0.000000   0.000000   0.000000
     5  H    0.000000   0.000000   0.000000   0.000000   0.000000   0.000000
     6  H    0.000000   0.000000   0.000000   0.000000   0.000000   0.000000
 Mulliken charges and spin densities:
               1          2
     1  C   -0.252311   0.000000
     2  N    0.265021   0.000000
     3  H    0.208778   0.000000
     4  O   -0.636329   0.000000
     5  H    0.196046   0.000000
     6  H    0.218795   0.000000
 Sum of Mulliken charges =  -0.00000   0.00000
 Mulliken charges and spin densities with hydrogens summed into heavy atoms:
               1          2
     1  C    0.162530   0.000000
     2  N    0.473800   0.000000
     4  O   -0.636329   0.000000
 Electronic spatial extent (au):  <R**2>=            518.6763
 Charge=             -0.0000 electrons
 Dipole moment (field-independent basis, Debye):
    X=             -2.7509    Y=              0.7717    Z=             -3.3461  Tot=              4.3999
 Quadrupole moment (field-independent basis, Debye-Ang):
   XX=            -28.8429   YY=            -19.3852   ZZ=            -19.3021
   XY=              2.5827   XZ=            -10.7410   YZ=              0.1225
 Traceless Quadrupole moment (field-independent basis, Debye-Ang):
   XX=             -6.3328   YY=              3.1248   ZZ=              3.2079
   XY=              2.5827   XZ=            -10.7410   YZ=              0.1225
 Octapole moment (field-independent basis, Debye-Ang**2):
  XXX=           -145.0177  YYY=              6.9150  ZZZ=            -24.3242  XYY=            -37.8330
  XXY=             10.1361  XXZ=            -39.1561  XZZ=            -42.1804  YZZ=              3.2572
  YYZ=             -6.9324  XYZ=              1.5179
 Hexadecapole moment (field-independent basis, Debye-Ang**3):
 XXXX=           -663.7081 YYYY=            -22.7823 ZZZZ=            -69.1176 XXXY=             41.1286
 XXXZ=           -154.2307 YYYX=             18.0729 YYYZ=              6.7708 ZZZX=            -69.2584
 ZZZY=              6.4618 XXYY=            -97.2496 XXZZ=           -118.5284 YYZZ=            -15.6217
 XXYZ=              6.8631 YYXZ=            -20.3148 ZZXY=              8.5171
 N-N= 7.235265144198D+01 E-N=-5.420969765687D+02  KE= 1.686379402127D+02
                          Isotropic Fermi Contact Couplings
        Atom                 a.u.       MegaHertz       Gauss      10(-4) cm-1
     1  C(13)              0.00000       0.00000       0.00000       0.00000
     2  N(14)              0.00000       0.00000       0.00000       0.00000
     3  H(1)               0.00000       0.00000       0.00000       0.00000
     4  O(17)              0.00000      -0.00000      -0.00000      -0.00000
     5  H(1)               0.00000       0.00000       0.00000       0.00000
     6  H(1)               0.00000       0.00000       0.00000       0.00000
 --------------------------------------------------------
       Center         ----  Spin Dipole Couplings  ----
                      3XX-RR        3YY-RR        3ZZ-RR
 --------------------------------------------------------
     1   Atom        0.000000      0.000000      0.000000
     2   Atom        0.000000      0.000000      0.000000
     3   Atom        0.000000      0.000000      0.000000
     4   Atom        0.000000      0.000000      0.000000
     5   Atom        0.000000      0.000000      0.000000
     6   Atom        0.000000      0.000000      0.000000
 --------------------------------------------------------
                        XY            XZ            YZ
 --------------------------------------------------------
     1   Atom        0.000000      0.000000      0.000000
     2   Atom        0.000000      0.000000      0.000000
     3   Atom        0.000000      0.000000      0.000000
     4   Atom        0.000000      0.000000      0.000000
     5   Atom        0.000000      0.000000      0.000000
     6   Atom        0.000000      0.000000      0.000000
 --------------------------------------------------------


 ---------------------------------------------------------------------------------
              Anisotropic Spin Dipole Couplings in Principal Axis System
 ---------------------------------------------------------------------------------

       Atom             a.u.   MegaHertz   Gauss  10(-4) cm-1        Axes

              Baa     0.0000     0.000     0.000     0.000  1.0000  0.0000  0.0000
     1 C(13)  Bbb     0.0000     0.000     0.000     0.000 -0.0000  1.0000  0.0000
              Bcc     0.0000     0.000     0.000     0.000  0.0000  0.0000  1.0000
 
              Baa     0.0000     0.000     0.000     0.000  1.0000  0.0000  0.0000
     2 N(14)  Bbb     0.0000     0.000     0.000     0.000 -0.0000  1.0000  0.0000
              Bcc     0.0000     0.000     0.000     0.000  0.0000  0.0000  1.0000
 
              Baa     0.0000     0.000     0.000     0.000  1.0000  0.0000  0.0000
     3 H(1)   Bbb     0.0000     0.000     0.000     0.000 -0.0000  1.0000  0.0000
              Bcc     0.0000     0.000     0.000     0.000  0.0000  0.0000  1.0000
 
              Baa     0.0000    -0.000    -0.000    -0.000  1.0000  0.0000  0.0000
     4 O(17)  Bbb     0.0000    -0.000    -0.000    -0.000 -0.0000  1.0000  0.0000
              Bcc     0.0000    -0.000    -0.000    -0.000  0.0000  0.0000  1.0000
 
              Baa     0.0000     0.000     0.000     0.000  1.0000  0.0000  0.0000
     5 H(1)   Bbb     0.0000     0.000     0.000     0.000 -0.0000  1.0000  0.0000
              Bcc     0.0000     0.000     0.000     0.000  0.0000  0.0000  1.0000
 
              Baa     0.0000     0.000     0.000     0.000  1.0000  0.0000  0.0000
     6 H(1)   Bbb     0.0000     0.000     0.000     0.000 -0.0000  1.0000  0.0000
              Bcc     0.0000     0.000     0.000     0.000  0.0000  0.0000  1.0000
 

 ---------------------------------------------------------------------------------

 No NMR shielding tensors so no spin-rotation constants.
 Leave Link  601 at Tue Jan  3 09:04:45 2023, MaxMem=   536870912 cpu:               0.4 elap:               0.2
 (Enter /opt/software/gaussian/g16.c01/l801.exe)
 Range of M.O.s used for correlation:     1   141
 NBasis=   141 NAE=    12 NBE=    12 NFC=     0 NFV=     0
 NROrb=    141 NOA=    12 NOB=    12 NVA=   129 NVB=   129

 **** Warning!!: The largest alpha MO coefficient is  0.50572219D+02


 **** Warning!!: The largest beta MO coefficient is  0.50572219D+02

 Leave Link  801 at Tue Jan  3 09:04:45 2023, MaxMem=   536870912 cpu:               0.1 elap:               0.1
 (Enter /opt/software/gaussian/g16.c01/l914.exe)
 UHF ground state
 Doing stability rather than CIS.
 Keep R1 and R2 ints in memory in canonical form, NReq=102278953.
 FoFCou: FMM=F IPFlag=           0 FMFlag=           0 FMFlg1=           0
         NFxFlg=           0 DoJE=F BraDBF=F KetDBF=F FulRan=T
         wScrn=  0.000000 ICntrl=       600 IOpCl=  0 I1Cent=           0 NGrid=           0
         NMat0=    1 NMatS0=  10011 NMatT0=    0 NMatD0=    1 NMtDS0=    0 NMtDT0=    0
 Symmetry not used in FoFCou.
 Two-electron integral symmetry not used.
 MDV=   536870912 DFT=F DoStab=T Mixed=F DoRPA=F DoScal=F NonHer=F
 Making orbital integer symmetry assigments:
    12 initial guesses have been made.
 Convergence on wavefunction:    0.001000000000000
 Davidson Disk Diagonalization:  ConvIn= 1.00D-03 SkipCon=T Conv= 1.00D-03.
 Max sub-space:  2000 roots to seek:    12 dimension of matrix:         3096
 Iteration     1 Dimension    12 NMult     0 NNew     12
 CISAX will form    12 AO SS matrices at one time.
 NMat=    12 NSing=    12 JSym2X= 0.
 New state      1 was old state      2
 Excitation Energies [eV] at current iteration:
 Root      1 :    -0.148165652407427
 Root      2 :     5.510879983682848
 Root      3 :     6.188336010915487
 Root      4 :     6.453261765770366
 Root      5 :     6.706670771144732
 Root      6 :     7.350268644332610
 Root      7 :     7.577518203596128
 Root      8 :     8.045753699644514
 Root      9 :     8.401679691698178
 Root     10 :     8.452532759727083
 Root     11 :     8.687902619197402
 Root     12 :    11.590111868537200
 Iteration     2 Dimension    24 NMult    12 NNew     12
 CISAX will form    12 AO SS matrices at one time.
 NMat=    12 NSing=    12 JSym2X= 0.
 Root      1 not converged, maximum delta is    0.093150728910558
 Excitation Energies [eV] at current iteration:
 Root      1 :    -1.386704227837575   Change is   -1.238538575430147
 Root      2 :     4.657171945976659   Change is   -0.853708037706190
 Root      3 :     5.826075008682817   Change is   -0.362261002232669
 Root      4 :     6.103762226546896   Change is   -0.349499539223469
 Root      5 :     6.207546944786205   Change is   -5.382564923750995
 Root      6 :     6.491808912135742   Change is   -0.214861859008990
 Root      7 :     7.122714618655578   Change is   -0.227554025677032
 Root      8 :     7.459722236875177   Change is   -0.117795966720951
 Root      9 :     7.616894669854938   Change is   -0.428859029789575
 Root     10 :     7.732353253178789   Change is   -0.669326438519389
 Root     11 :     8.244780190960391   Change is   -0.207752568766692
 Root     12 :     8.838649884965962   Change is    0.150747265768561
 Iteration     3 Dimension    27 NMult    24 NNew      3
 CISAX will form     3 AO SS matrices at one time.
 NMat=     3 NSing=     3 JSym2X= 0.
 Root      1 not converged, maximum delta is    0.038466573029671
 Excitation Energies [eV] at current iteration:
 Root      1 :    -1.503012089687394   Change is   -0.116307861849820
 Root      2 :     4.561109753762867   Change is   -0.096062192213791
 Root      3 :     5.797220323240320   Change is   -0.028854685442498
 Iteration     4 Dimension    30 NMult    27 NNew      3
 CISAX will form     3 AO SS matrices at one time.
 NMat=     3 NSing=     3 JSym2X= 0.
 Root      1 not converged, maximum delta is    0.013311877049780
 Excitation Energies [eV] at current iteration:
 Root      1 :    -1.519890430746322   Change is   -0.016878341058927
 Root      2 :     4.552618743562396   Change is   -0.008491010200471
 Root      3 :     5.794551362439267   Change is   -0.002668960801053
 Iteration     5 Dimension    33 NMult    30 NNew      3
 CISAX will form     3 AO SS matrices at one time.
 NMat=     3 NSing=     3 JSym2X= 0.
 Root      1 not converged, maximum delta is    0.003480795117970
 Excitation Energies [eV] at current iteration:
 Root      1 :    -1.521864797507523   Change is   -0.001974366761201
 Root      2 :     4.550478506682149   Change is   -0.002140236880248
 Root      3 :     5.756668561994353
 Iteration     6 Dimension    36 NMult    33 NNew      3
 CISAX will form     3 AO SS matrices at one time.
 NMat=     3 NSing=     3 JSym2X= 0.
 Root      1 has converged.
 Excitation Energies [eV] at current iteration:
 Root      1 :    -1.522013091219822   Change is   -0.000148293712299
 Root      2 :     4.549753839793418   Change is   -0.000724666888731
 Root      3 :     5.176139689044340   Change is   -0.580528872950013
 Convergence achieved on expansion vectors.
 ***********************************************************************
 Stability analysis using <AA,BB:AA,BB> singles matrix:
 ***********************************************************************
 1PDM for each excited state written to RWF  633
 Ground to excited state transition densities written to RWF  633

 Eigenvectors of the stability matrix:
 
 Excited state symmetry could not be determined.
 Eigenvector   1:  3.000-?Sym  Eigenvalue=-0.0559330  <S**2>=2.000
      9A -> 15A       -0.14895
     12A -> 15A        0.58183
     12A -> 18A       -0.22058
     12A -> 24A        0.19953
     12A -> 26A       -0.10980
      9B -> 15B        0.14895
     12B -> 15B       -0.58183
     12B -> 18B        0.22058
     12B -> 24B       -0.19953
     12B -> 26B        0.10980
 The wavefunction has an internal instability.
 Leave Link  914 at Tue Jan  3 09:04:51 2023, MaxMem=   536870912 cpu:              11.1 elap:               5.6
 (Enter /opt/software/gaussian/g16.c01/l508.exe)
 Keep R1 and R2 ints in memory in canonical form, NReq=102279013.
 FoFCou: FMM=F IPFlag=           0 FMFlag=           0 FMFlg1=           0
         NFxFlg=           0 DoJE=F BraDBF=F KetDBF=F FulRan=T
         wScrn=  0.000000 ICntrl=       600 IOpCl=  0 I1Cent=           0 NGrid=           0
         NMat0=    1 NMatS0=  10011 NMatT0=    0 NMatD0=    1 NMtDS0=    0 NMtDT0=    0
 Symmetry not used in FoFCou.
 Two-electron integral symmetry not used.
 Very tight linear equation convergence will be used.
 UHF wavefunction.
 Quadratic Convergence SCF Method.
 Line search only if initial step raises energy.
 Perform preliminary linear searches along instability eigenvector.
     ILin= 1 X=0.000D+00 Y=-1.688881169721D+02 DE= 0.00D+00
     ILin= 2 X=1.000D-01 Y=-1.688886614762D+02 DE=-5.45D-04
     ILin= 3 X=1.414D-01 Y=-1.688891766694D+02 DE=-1.06D-03
     ILin= 4 X=2.000D-01 Y=-1.688901201442D+02 DE=-2.00D-03
     ILin= 5 X=2.828D-01 Y=-1.688916664820D+02 DE=-3.55D-03
     ILin= 6 X=4.000D-01 Y=-1.688934517841D+02 DE=-5.33D-03
     ILin= 7 X=5.657D-01 Y=-1.688922149739D+02 DE=-4.10D-03
     An  expanding polynomial of degree  7 produced  0.4550
 Iteration F X= 4.550D-01 EE=-1.688937273716700D+02
     ILin= 1 X=0.000D+00 Y=-1.688881169721D+02 DE= 0.00D+00
     ILin= 2 X=1.000D-01 Y=-1.688886614839D+02 DE=-5.45D-04
     ILin= 3 X=1.414D-01 Y=-1.688891766912D+02 DE=-1.06D-03
 The two search directions are symmetric.
 Iteration B X= 4.550D-01 EE=-1.688937273716700D+02
 Take forward step, X= 4.550D-01 Step= 4.550D-01
 Iteration   1 EE= -168.893727529910                                    Grad=3.410D-02 Max rot=    0.3991 deg.
 Gradient too large for Newton-Raphson -- use scaled steepest descent instead.
 Alpha Gap=     0.422 HL deriv= 7.61D-08
  Beta Gap=     0.465 HL deriv= 1.78D-07
     ILin= 1 X=0.000D+00 Y=-1.688937275299D+02 DE= 0.00D+00 F= -1.57D-03
     ILin= 2 X=3.000D-01 Y=-1.688941457381D+02 DE=-4.18D-04 F= -1.22D-03 OKLS=F
     ILin= 3 X=6.000D-01 Y=-1.688944596914D+02 DE=-7.32D-04 F= -8.73D-04
     ILin= 4 X=1.200D+00 Y=-1.688947758252D+02 DE=-1.05D-03 F= -1.81D-04
     ILin= 5 X=2.400D+00 Y=-1.688941680843D+02 DE=-4.41D-04 F=  1.19D-03
     An  expanding polynomial of degree  5 produced  1.3578
 Iteration   2 EE= -168.894790123388     Delta-E=       -0.001062593478 Grad=1.793D-02 Max rot=    0.3411 deg.
 Gradient too large for Newton-Raphson -- use scaled steepest descent instead.
 Alpha Gap=     0.419 HL deriv= 4.88D-08
  Beta Gap=     0.461 HL deriv= 9.70D-10
     ILin= 1 X=0.000D+00 Y=-1.688947901234D+02 DE= 0.00D+00 F= -5.05D-04
     ILin= 2 X=6.000D-01 Y=-1.688949850693D+02 DE=-1.95D-04 F= -1.45D-04 OKLS=F
     ILin= 3 X=1.300D+00 Y=-1.688949386174D+02 DE=-1.48D-04 F=  2.77D-04
     An  expanding polynomial of degree  3 produced  0.8398
 Iteration   3 EE= -168.895002414330     Delta-E=       -0.000212290943 Grad=1.208D-02 Max rot=    0.1541 deg.
 Gradient too large for Newton-Raphson -- use scaled steepest descent instead.
 Alpha Gap=     0.421 HL deriv= 6.91D-08
  Beta Gap=     0.467 HL deriv= 9.22D-09
     ILin= 1 X=0.000D+00 Y=-1.688950024143D+02 DE= 0.00D+00 F= -2.10D-04
     ILin= 2 X=1.100D+00 Y=-1.688951370334D+02 DE=-1.35D-04 F= -3.49D-05 OKLS=T
     Reject lnstep IMin12=  1  2 Big=T Turn=F Min= 1.245D+00 FVal=-1.688951393600D+02 Lims=  0.00D+00  1.10D+00
     ILin= 3 X=2.100D+00 Y=-1.688950925808D+02 DE=-9.02D-05 F=  1.24D-04
     An  expanding polynomial of degree  3 produced  1.3202
 Iteration   4 EE= -168.895140860364     Delta-E=       -0.000138446033 Grad=1.170D-02 Max rot=    0.2195 deg.
 Gradient too large for Newton-Raphson -- use scaled steepest descent instead.
 Alpha Gap=     0.420 HL deriv= 1.22D-07
  Beta Gap=     0.466 HL deriv= 3.58D-09
     ILin= 1 X=0.000D+00 Y=-1.688951408604D+02 DE= 0.00D+00 F= -2.38D-04
     ILin= 2 X=1.100D+00 Y=-1.688952342990D+02 DE=-9.34D-05 F=  6.82D-05 OKLS=T
     Accept linear search using points  1 and  2.
     An  expanding polynomial of degree  2 produced  0.8845
 Iteration   5 EE= -168.895242530482     Delta-E=       -0.000101670118 Grad=9.397D-03 Max rot=    0.1154 deg.
 QCNR:  CnvC1=5.56D-10 CnvC2=5.56D-09
 LinEq1:  Iter=  0 NonCon=     1 RMS=1.48D-04 Max=3.89D-03 NDo=     1
 AX will form     1 AO Fock derivatives at one time.
 LinEq1:  Iter=  1 NonCon=     1 RMS=1.31D-04 Max=3.33D-03 NDo=     1
 LinEq1:  Iter=  2 NonCon=     1 RMS=8.72D-06 Max=1.80D-04 NDo=     1
 LinEq1:  Iter=  3 NonCon=     1 RMS=2.80D-06 Max=6.73D-05 NDo=     1
 LinEq1:  Iter=  4 NonCon=     1 RMS=1.39D-06 Max=3.43D-05 NDo=     1
 LinEq1:  Iter=  5 NonCon=     1 RMS=3.92D-07 Max=5.37D-06 NDo=     1
 LinEq1:  Iter=  6 NonCon=     1 RMS=1.69D-07 Max=1.92D-06 NDo=     1
 LinEq1:  Iter=  7 NonCon=     1 RMS=3.86D-08 Max=5.96D-07 NDo=     1
 LinEq1:  Iter=  8 NonCon=     1 RMS=9.32D-09 Max=8.28D-08 NDo=     1
 LinEq1:  Iter=  9 NonCon=     1 RMS=2.34D-09 Max=2.28D-08 NDo=     1
 LinEq1:  Iter= 10 NonCon=     0 RMS=4.54D-10 Max=4.18D-09 NDo=     1
 Linear equations converged to 5.564D-10 5.564D-09 after    10 iterations.
 Angle between quadratic step and gradient=  58.33 degrees.
     ILin= 1 X=0.000D+00 Y=-1.688952425305D+02 DE= 0.00D+00 F= -6.73D-04
     ILin= 2 X=1.000D+00 Y=-1.688955679658D+02 DE=-3.25D-04 F=  3.59D-05 OKLS=T
     Accept linear search using points  1 and  2.
     An  expanding polynomial of degree  2 produced  0.9520
     Minimum is close to point  2 DX= -4.80D-02 DF= -8.61D-07 DXR=  5.04D-02 DFR=  2.64D-03 which will be used.
 Iteration   6 EE= -168.895567965827     Delta-E=       -0.000325435345 Grad=1.136D-03 Max rot=    0.0223 deg.
 QCNR:  CnvC1=5.56D-10 CnvC2=5.56D-09
 LinEq1:  Iter=  0 NonCon=     1 RMS=2.30D-05 Max=7.26D-04 NDo=     1
 LinEq1:  Iter=  1 NonCon=     1 RMS=6.92D-06 Max=1.25D-04 NDo=     1
 LinEq1:  Iter=  2 NonCon=     1 RMS=4.78D-06 Max=1.25D-04 NDo=     1
 LinEq1:  Iter=  3 NonCon=     1 RMS=1.07D-06 Max=1.66D-05 NDo=     1
 LinEq1:  Iter=  4 NonCon=     1 RMS=5.39D-07 Max=1.05D-05 NDo=     1
 LinEq1:  Iter=  5 NonCon=     1 RMS=1.83D-07 Max=2.43D-06 NDo=     1
 LinEq1:  Iter=  6 NonCon=     1 RMS=8.41D-08 Max=1.24D-06 NDo=     1
 LinEq1:  Iter=  7 NonCon=     1 RMS=2.86D-08 Max=3.29D-07 NDo=     1
 LinEq1:  Iter=  8 NonCon=     1 RMS=7.21D-09 Max=7.08D-08 NDo=     1
 LinEq1:  Iter=  9 NonCon=     1 RMS=1.95D-09 Max=2.09D-08 NDo=     1
 LinEq1:  Iter= 10 NonCon=     1 RMS=4.03D-10 Max=6.32D-09 NDo=     1
 LinEq1:  Iter= 11 NonCon=     0 RMS=7.14D-11 Max=7.07D-10 NDo=     1
 Linear equations converged to 5.564D-10 5.564D-09 after    11 iterations.
 Angle between quadratic step and gradient=  46.07 degrees.
     ILin= 1 X=0.000D+00 Y=-1.688955679658D+02 DE= 0.00D+00 F= -7.65D-06
     ILin= 2 X=1.000D+00 Y=-1.688955718110D+02 DE=-3.85D-06 F= -6.09D-08 OKLS=T
     Reject lnstep IMin12=  1  2 Big=T Turn=F Min= 1.008D+00 FVal=-1.688955718112D+02 Lims=  0.00D+00  1.00D+00
     ILin= 3 X=2.000D+00 Y=-1.688955681284D+02 DE=-1.63D-07 F=  7.41D-06
     An  expanding polynomial of degree  3 produced  1.0108
     Minimum is close to point  2 DX=  1.08D-02 DF= -4.39D-10 DXR=  1.07D-02 DFR=  1.14D-04 which will be used.
 Iteration   7 EE= -168.895571810951     Delta-E=       -0.000003845124 Grad=7.268D-06 Max rot=    0.0002 deg.
 QCNR:  CnvC1=7.27D-11 CnvC2=7.27D-10
 LinEq1:  Iter=  0 NonCon=     1 RMS=2.11D-07 Max=6.04D-06 NDo=     1
 LinEq1:  Iter=  1 NonCon=     1 RMS=3.73D-08 Max=4.31D-07 NDo=     1
 LinEq1:  Iter=  2 NonCon=     1 RMS=2.52D-08 Max=4.88D-07 NDo=     1
 LinEq1:  Iter=  3 NonCon=     1 RMS=7.09D-09 Max=1.13D-07 NDo=     1
 LinEq1:  Iter=  4 NonCon=     1 RMS=2.92D-09 Max=6.02D-08 NDo=     1
 LinEq1:  Iter=  5 NonCon=     1 RMS=1.27D-09 Max=2.78D-08 NDo=     1
 LinEq1:  Iter=  6 NonCon=     1 RMS=4.11D-10 Max=4.19D-09 NDo=     1
 LinEq1:  Iter=  7 NonCon=     1 RMS=1.37D-10 Max=1.52D-09 NDo=     1
 LinEq1:  Iter=  8 NonCon=     0 RMS=4.30D-11 Max=3.93D-10 NDo=     1
 Linear equations converged to 7.268D-11 7.268D-10 after     8 iterations.
 Angle between quadratic step and gradient=  31.97 degrees.
     ILin= 1 X=0.000D+00 Y=-1.688955718110D+02 DE= 0.00D+00 F= -8.82D-10
     ILin= 2 X=1.000D+00 Y=-1.688955718114D+02 DE=-4.41D-10
 Iteration   8 EE= -168.895571811393     Delta-E=       -0.000000000441 Grad=2.197D-07 Max rot=    0.0000 deg.
 Rotation gradient small -- convergence achieved.
 SCF Done:  E(UHF) =  -168.895571811     a.u. after    8 cycles
            Convg  =    0.2197D-06                    55 Fock formations.
              S**2 =  0.4685                  -V/T =  2.0007
 <Sx>= 0.0000 <Sy>= 0.0000 <Sz>= 0.0000 <S**2>= 0.4685 S= 0.3476
 <L.S>=  0.00000000000    
 Annihilation of the first spin contaminant:
 S**2 before annihilation     0.4685,   after     0.0373
 Leave Link  508 at Tue Jan  3 09:05:03 2023, MaxMem=   536870912 cpu:              14.2 elap:              11.8
 (Enter /opt/software/gaussian/g16.c01/l801.exe)
 Range of M.O.s used for correlation:     1   141
 NBasis=   141 NAE=    12 NBE=    12 NFC=     0 NFV=     0
 NROrb=    141 NOA=    12 NOB=    12 NVA=   129 NVB=   129

 **** Warning!!: The largest alpha MO coefficient is  0.50236657D+02


 **** Warning!!: The largest beta MO coefficient is  0.49357481D+02

 Leave Link  801 at Tue Jan  3 09:05:03 2023, MaxMem=   536870912 cpu:               0.1 elap:               0.0
 (Enter /opt/software/gaussian/g16.c01/l914.exe)
 UHF ground state
 Doing stability rather than CIS.
 Keep R1 and R2 ints in memory in canonical form, NReq=102278953.
 FoFCou: FMM=F IPFlag=           0 FMFlag=           0 FMFlg1=           0
         NFxFlg=           0 DoJE=F BraDBF=F KetDBF=F FulRan=T
         wScrn=  0.000000 ICntrl=       600 IOpCl=  0 I1Cent=           0 NGrid=           0
         NMat0=    1 NMatS0=  10011 NMatT0=    0 NMatD0=    1 NMtDS0=    0 NMtDT0=    0
 Symmetry not used in FoFCou.
 Two-electron integral symmetry not used.
 MDV=   536870912 DFT=F DoStab=T Mixed=F DoRPA=F DoScal=F NonHer=F
 Making orbital integer symmetry assigments:
    12 initial guesses have been made.
 Convergence on wavefunction:    0.001000000000000
 Davidson Disk Diagonalization:  ConvIn= 1.00D-03 SkipCon=T Conv= 1.00D-03.
 Max sub-space:  2000 roots to seek:    12 dimension of matrix:         3096
 Iteration     1 Dimension    12 NMult     0 NNew     12
 CISAX will form    12 AO SS matrices at one time.
 NMat=    12 NSing=    12 JSym2X= 0.
 Excitation Energies [eV] at current iteration:
 Root      1 :     3.957826628099326
 Root      2 :     4.640239701865500
 Root      3 :     6.363426314894301
 Root      4 :     7.220479542530806
 Root      5 :     7.774923989465522
 Root      6 :     8.045104498808696
 Root      7 :     8.098568250264650
 Root      8 :     8.640406613388921
 Root      9 :     8.748550377104706
 Root     10 :     9.065805336547491
 Root     11 :     9.227295849935601
 Root     12 :    10.814200756066521
 Iteration     2 Dimension    24 NMult    12 NNew     12
 CISAX will form    12 AO SS matrices at one time.
 NMat=    12 NSing=    12 JSym2X= 0.
 Root      1 not converged, maximum delta is    0.187870504267973
 Excitation Energies [eV] at current iteration:
 Root      1 :     2.528681350654818   Change is   -1.429145277444508
 Root      2 :     3.767992173849484   Change is   -0.872247528016016
 Root      3 :     6.001121514550621   Change is   -2.097446735714029
 Root      4 :     6.098185659248980   Change is   -0.265240655645321
 Root      5 :     6.982427186004387   Change is   -0.238052356526419
 Root      6 :     7.457269684383772   Change is   -0.317654305081751
 Root      7 :     7.721213173034516   Change is   -0.323891325774180
 Root      8 :     8.051517402609875   Change is   -0.588889210779045
 Root      9 :     8.083928906504987   Change is   -0.664621470599719
 Root     10 :     8.301551999351577   Change is   -0.925743850584023
 Root     11 :     8.521757190053055   Change is   -0.544048146494436
 Root     12 :     9.255205251249363   Change is   -1.558995504817159
 Iteration     3 Dimension    27 NMult    24 NNew      3
 CISAX will form     3 AO SS matrices at one time.
 NMat=     3 NSing=     3 JSym2X= 0.
 Root      1 not converged, maximum delta is    0.095659536407133
 Excitation Energies [eV] at current iteration:
 Root      1 :     2.071635143804997   Change is   -0.457046206849821
 Root      2 :     3.704300194593983   Change is   -0.063691979255501
 Root      3 :     4.641388359012922   Change is   -1.359733155537699
 Iteration     4 Dimension    30 NMult    27 NNew      3
 CISAX will form     3 AO SS matrices at one time.
 NMat=     3 NSing=     3 JSym2X= 0.
 Root      1 not converged, maximum delta is    0.044235285935336
 Excitation Energies [eV] at current iteration:
 Root      1 :     2.007009943341705   Change is   -0.064625200463291
 Root      2 :     3.699532353716656   Change is   -0.004767840877326
 Root      3 :     4.310355915654611   Change is   -0.331032443358311
 Iteration     5 Dimension    33 NMult    30 NNew      3
 CISAX will form     3 AO SS matrices at one time.
 NMat=     3 NSing=     3 JSym2X= 0.
 Root      1 not converged, maximum delta is    0.006112076394866
 Excitation Energies [eV] at current iteration:
 Root      1 :     1.999752647685826   Change is   -0.007257295655880
 Root      2 :     3.699028509728515   Change is   -0.000503843988142
 Root      3 :     4.272226578545106   Change is   -0.038129337109505
 Iteration     6 Dimension    36 NMult    33 NNew      3
 CISAX will form     3 AO SS matrices at one time.
 NMat=     3 NSing=     3 JSym2X= 0.
 Root      1 not converged, maximum delta is    0.001471101233446
 Excitation Energies [eV] at current iteration:
 Root      1 :     1.998924074443032   Change is   -0.000828573242794
 Root      2 :     3.698912645306523   Change is   -0.000115864421991
 Root      3 :     4.266110037723452   Change is   -0.006116540821654
 Iteration     7 Dimension    39 NMult    36 NNew      3
 CISAX will form     3 AO SS matrices at one time.
 NMat=     3 NSing=     3 JSym2X= 0.
 Root      1 has converged.
 Excitation Energies [eV] at current iteration:
 Root      1 :     1.998813763980892   Change is   -0.000110310462140
 Root      2 :     3.698872411506771   Change is   -0.000040233799752
 Root      3 :     4.264733394100890   Change is   -0.001376643622562
 Convergence achieved on expansion vectors.
 ***********************************************************************
 Stability analysis using <AA,BB:AA,BB> singles matrix:
 ***********************************************************************
 1PDM for each excited state written to RWF  633
 Ground to excited state transition densities written to RWF  633

 Eigenvectors of the stability matrix:
 
 Excited state symmetry could not be determined.
 Eigenvector   1:  2.225-?Sym  Eigenvalue= 0.0734551  <S**2>=0.988
     10A -> 16A       -0.13442
     10A -> 18A        0.11077
     12A -> 16A        0.63814
     12A -> 18A       -0.50344
     12A -> 21A        0.16440
     12A -> 24A       -0.22612
     12A -> 26A       -0.14782
     12B -> 15B        0.22918
     12B -> 18B       -0.19462
     12B -> 26B        0.10778
 The wavefunction is stable under the perturbations considered.
 Leave Link  914 at Tue Jan  3 09:05:09 2023, MaxMem=   536870912 cpu:              11.4 elap:               5.7
 (Enter /opt/software/gaussian/g16.c01/l508.exe)
 The wavefunction is already stable.
 Leave Link  508 at Tue Jan  3 09:05:09 2023, MaxMem=   536870912 cpu:               0.0 elap:               0.0
 (Enter /opt/software/gaussian/g16.c01/l601.exe)
 Copying SCF densities to generalized density rwf, IOpCl= 1 IROHF=0.

 **********************************************************************

            Population analysis using the SCF Density.

 **********************************************************************

 Alpha  occ. eigenvalues --  -20.53689 -15.70185 -11.28683  -1.44548  -1.14620
 Alpha  occ. eigenvalues --   -0.89110  -0.74906  -0.67026  -0.58768  -0.58724
 Alpha  occ. eigenvalues --   -0.43814  -0.34736
 Alpha virt. eigenvalues --    0.06410   0.09221   0.11705   0.11833   0.14323
 Alpha virt. eigenvalues --    0.15446   0.15456   0.17527   0.21120   0.22610
 Alpha virt. eigenvalues --    0.23174   0.27700   0.28946   0.29784   0.31223
 Alpha virt. eigenvalues --    0.32608   0.34299   0.34641   0.37610   0.39605
 Alpha virt. eigenvalues --    0.40287   0.43619   0.43885   0.44503   0.46027
 Alpha virt. eigenvalues --    0.48241   0.50288   0.53817   0.55760   0.57019
 Alpha virt. eigenvalues --    0.59117   0.59694   0.60127   0.62931   0.64860
 Alpha virt. eigenvalues --    0.67328   0.71462   0.72733   0.74574   0.83684
 Alpha virt. eigenvalues --    0.84771   0.87015   0.88994   0.91642   0.92756
 Alpha virt. eigenvalues --    0.97403   0.98556   1.04635   1.10289   1.12540
 Alpha virt. eigenvalues --    1.17441   1.23634   1.27089   1.34925   1.37122
 Alpha virt. eigenvalues --    1.51471   1.55025   1.66337   1.67538   1.82302
 Alpha virt. eigenvalues --    1.83362   1.91792   1.99126   2.00011   2.10273
 Alpha virt. eigenvalues --    2.10522   2.13806   2.15926   2.21456   2.24863
 Alpha virt. eigenvalues --    2.30901   2.38729   2.44962   2.55984   2.64053
 Alpha virt. eigenvalues --    2.69178   2.71294   2.71649   2.91552   2.95867
 Alpha virt. eigenvalues --    3.01179   3.04319   3.15293   3.23413   3.26860
 Alpha virt. eigenvalues --    3.32210   3.36412   3.41620   3.46080   3.46209
 Alpha virt. eigenvalues --    3.59764   3.60917   3.62442   3.70135   3.84285
 Alpha virt. eigenvalues --    3.90025   4.02541   4.15344   4.23233   4.43638
 Alpha virt. eigenvalues --    4.55641   4.60334   4.69326   4.93510   5.14737
 Alpha virt. eigenvalues --    5.18199   5.23712   5.24019   5.36841   5.37611
 Alpha virt. eigenvalues --    5.57493   5.66319   5.68289   5.77435   5.90103
 Alpha virt. eigenvalues --    5.91733   6.05597   6.29103   6.81798   7.00315
 Alpha virt. eigenvalues --    7.03008   7.08487   7.38920   7.54832   7.69766
 Alpha virt. eigenvalues --    8.14804  23.68272  33.67211  45.88988
  Beta  occ. eigenvalues --  -20.55663 -15.71579 -11.26930  -1.48197  -1.16639
  Beta  occ. eigenvalues --   -0.88175  -0.74619  -0.68042  -0.67527  -0.58619
  Beta  occ. eigenvalues --   -0.45759  -0.41118
  Beta virt. eigenvalues --    0.06543   0.09260   0.10621   0.11701   0.14409
  Beta virt. eigenvalues --    0.15131   0.15439   0.17937   0.20824   0.22668
  Beta virt. eigenvalues --    0.23146   0.29043   0.29648   0.30259   0.31402
  Beta virt. eigenvalues --    0.32611   0.34647   0.35461   0.37653   0.39782
  Beta virt. eigenvalues --    0.41286   0.43803   0.44276   0.46149   0.46406
  Beta virt. eigenvalues --    0.48308   0.50059   0.53152   0.55293   0.57150
  Beta virt. eigenvalues --    0.59177   0.59715   0.60132   0.62322   0.65317
  Beta virt. eigenvalues --    0.67176   0.72311   0.73250   0.74207   0.83463
  Beta virt. eigenvalues --    0.84888   0.86516   0.89031   0.91321   0.92989
  Beta virt. eigenvalues --    0.97625   1.01427   1.04705   1.10385   1.12769
  Beta virt. eigenvalues --    1.17404   1.23312   1.27842   1.35275   1.38300
  Beta virt. eigenvalues --    1.50844   1.52856   1.65547   1.67308   1.83513
  Beta virt. eigenvalues --    1.87258   1.90994   1.98521   2.00103   2.10485
  Beta virt. eigenvalues --    2.12302   2.13127   2.14897   2.21912   2.24497
  Beta virt. eigenvalues --    2.28747   2.38553   2.45226   2.54889   2.63191
  Beta virt. eigenvalues --    2.67701   2.69489   2.72196   2.91553   2.95776
  Beta virt. eigenvalues --    3.01253   3.04702   3.15646   3.23126   3.28309
  Beta virt. eigenvalues --    3.31531   3.38895   3.44134   3.46283   3.47836
  Beta virt. eigenvalues --    3.58992   3.59587   3.64293   3.70443   3.83495
  Beta virt. eigenvalues --    3.90969   4.02635   4.15337   4.23210   4.44275
  Beta virt. eigenvalues --    4.53957   4.59573   4.68440   4.93641   5.11911
  Beta virt. eigenvalues --    5.16745   5.21219   5.23801   5.35792   5.36435
  Beta virt. eigenvalues --    5.55768   5.64025   5.67712   5.76305   5.89539
  Beta virt. eigenvalues --    5.90999   6.04177   6.27996   6.78732   6.95868
  Beta virt. eigenvalues --    6.99153   7.07326   7.36063   7.54317   7.68132
  Beta virt. eigenvalues --    8.14056  23.69421  33.66360  45.87861
          Condensed to atoms (all electrons):
               1          2          3          4          5          6
     1  C    5.124368   0.452975  -0.037330  -0.076463   0.404557   0.412603
     2  N    0.452975   5.743133   0.438475   0.192969  -0.027875  -0.020101
     3  H   -0.037330   0.438475   0.466229  -0.050616  -0.022078   0.001165
     4  O   -0.076463   0.192969  -0.050616   8.486878   0.003917   0.000982
     5  H    0.404557  -0.027875  -0.022078   0.003917   0.487105  -0.037204
     6  H    0.412603  -0.020101   0.001165   0.000982  -0.037204   0.420338
          Atomic-Atomic Spin Densities.
               1          2          3          4          5          6
     1  C    0.932911  -0.040815  -0.014874  -0.017709   0.008007  -0.005474
     2  N   -0.040815  -0.546620   0.009745   0.161756  -0.003460  -0.002803
     3  H   -0.014874   0.009745   0.060685  -0.000096  -0.002843  -0.000010
     4  O   -0.017709   0.161756  -0.000096  -0.512354   0.000254  -0.000755
     5  H    0.008007  -0.003460  -0.002843   0.000254  -0.080914   0.012631
     6  H   -0.005474  -0.002803  -0.000010  -0.000755   0.012631  -0.060817
 Mulliken charges and spin densities:
               1          2
     1  C   -0.280711   0.862047
     2  N    0.220426  -0.422196
     3  H    0.204156   0.052607
     4  O   -0.557667  -0.368904
     5  H    0.191578  -0.066325
     6  H    0.222218  -0.057228
 Sum of Mulliken charges =   0.00000   0.00000
 Mulliken charges and spin densities with hydrogens summed into heavy atoms:
               1          2
     1  C    0.133086   0.738494
     2  N    0.424581  -0.369589
     4  O   -0.557667  -0.368904
 Electronic spatial extent (au):  <R**2>=            516.9669
 Charge=              0.0000 electrons
 Dipole moment (field-independent basis, Debye):
    X=             -2.2694    Y=              0.6970    Z=             -3.0223  Tot=              3.8432
 Quadrupole moment (field-independent basis, Debye-Ang):
   XX=            -27.1529   YY=            -19.1973   ZZ=            -18.8809
   XY=              2.3041   XZ=             -9.6131   YZ=              0.0518
 Traceless Quadrupole moment (field-independent basis, Debye-Ang):
   XX=             -5.4092   YY=              2.5464   ZZ=              2.8628
   XY=              2.3041   XZ=             -9.6131   YZ=              0.0518
 Octapole moment (field-independent basis, Debye-Ang**2):
  XXX=           -138.9298  YYY=              6.7417  ZZZ=            -23.6195  XYY=            -37.0945
  XXY=              9.2334  XXZ=            -35.5231  XZZ=            -40.7128  YZZ=              3.1795
  YYZ=             -6.7061  XYZ=              1.2921
 Hexadecapole moment (field-independent basis, Debye-Ang**3):
 XXXX=           -641.3234 YYYY=            -22.2047 ZZZZ=            -67.8947 XXXY=             38.1756
 XXXZ=           -142.4382 YYYX=             17.4020 YYYZ=              6.5398 ZZZX=            -66.9973
 ZZZY=              6.4768 XXYY=            -95.1756 XXZZ=           -114.1798 YYZZ=            -15.1914
 XXYZ=              6.1535 YYXZ=            -19.4610 ZZXY=              8.3334
 N-N= 7.235265144198D+01 E-N=-5.422571571159D+02  KE= 1.687774868941D+02
                          Isotropic Fermi Contact Couplings
        Atom                 a.u.       MegaHertz       Gauss      10(-4) cm-1
     1  C(13)              0.12203      68.59008      24.47464      22.87919
     2  N(14)             -0.12158     -19.64112      -7.00844      -6.55157
     3  H(1)               0.01230      27.48835       9.80853       9.16913
     4  O(17)             -0.14918      45.21535      16.13396      15.08222
     5  H(1)              -0.01935     -43.23673     -15.42794     -14.42222
     6  H(1)              -0.01931     -43.16547     -15.40251     -14.39845
 --------------------------------------------------------
       Center         ----  Spin Dipole Couplings  ----
                      3XX-RR        3YY-RR        3ZZ-RR
 --------------------------------------------------------
     1   Atom       -0.427021      0.744143     -0.317122
     2   Atom        0.437410     -0.790247      0.352837
     3   Atom        0.033155      0.004707     -0.037862
     4   Atom        0.898854     -1.708821      0.809966
     5   Atom       -0.044619      0.007593      0.037025
     6   Atom       -0.039676      0.006406      0.033270
 --------------------------------------------------------
                        XY            XZ            YZ
 --------------------------------------------------------
     1   Atom        0.000774     -0.003401      0.258499
     2   Atom       -0.003530      0.015210     -0.278447
     3   Atom       -0.006773      0.029361      0.010370
     4   Atom       -0.020629      0.089335     -0.613560
     5   Atom       -0.007964      0.034538     -0.007166
     6   Atom        0.009720     -0.042142     -0.006546
 --------------------------------------------------------


 ---------------------------------------------------------------------------------
              Anisotropic Spin Dipole Couplings in Principal Axis System
 ---------------------------------------------------------------------------------

       Atom             a.u.   MegaHertz   Gauss  10(-4) cm-1        Axes

              Baa    -0.4273   -57.334   -20.458   -19.125  0.9976 -0.0155  0.0671
     1 C(13)  Bbb    -0.3765   -50.522   -18.028   -16.852 -0.0689 -0.2242  0.9721
              Bcc     0.8038   107.857    38.486    35.977 -0.0000  0.9744  0.2247
 
              Baa    -0.8545   -32.955   -11.759   -10.993  0.0000  0.9744  0.2247
     2 N(14)  Bbb     0.4086    15.759     5.623     5.257 -0.4764 -0.1976  0.8567
              Bcc     0.4459    17.196     6.136     5.736  0.8792 -0.1071  0.4642
 
              Baa    -0.0510   -27.231    -9.717    -9.083 -0.3370 -0.2116  0.9174
     3 H(1)   Bbb     0.0071     3.787     1.351     1.263  0.0000  0.9744  0.2248
              Bcc     0.0439    23.444     8.365     7.820  0.9415 -0.0758  0.3283
 
              Baa    -1.8503   133.889    47.775    44.660  0.0000  0.9744  0.2247
     4 O(17)  Bbb     0.8298   -60.042   -21.425   -20.028  0.7987  0.1352 -0.5863
              Bcc     1.0206   -73.846   -26.350   -24.632  0.6017 -0.1795  0.7783
 
              Baa    -0.0577   -30.764   -10.977   -10.262  0.9385  0.0776 -0.3365
     5 H(1)   Bbb     0.0059     3.170     1.131     1.057 -0.0000  0.9744  0.2247
              Bcc     0.0517    27.594     9.846     9.204  0.3453 -0.2108  0.9145
 
              Baa    -0.0595   -31.753   -11.330   -10.592  0.9090 -0.0937  0.4062
     6 H(1)   Bbb     0.0049     2.612     0.932     0.871 -0.0000  0.9744  0.2248
              Bcc     0.0546    29.141    10.398     9.720 -0.4169 -0.2043  0.8857
 

 ---------------------------------------------------------------------------------

 No NMR shielding tensors so no spin-rotation constants.
 Leave Link  601 at Tue Jan  3 09:05:09 2023, MaxMem=   536870912 cpu:               0.5 elap:               0.2
 (Enter /opt/software/gaussian/g16.c01/l9999.exe)

 Test job not archived.
 1\1\GINC-GRA630\Stability\UHF\Gen\C1H3N1O1\BHAVUK\03-Jan-2023\0\\#p uh
 f/gen stable=opt scf=(maxcycle=900,verytightlineq,xqc) integral=grid=u
 ltrafine symmetry=None density=current iop(99/18=-1) output=wfn\\0002_
 q000_m01_k00_opt_uwb97xd_def2svpd/0002_q000_m01_k00_force_uhf_def2tzvp
 d stable-force\\0,1\C,0,0.9341359983,-0.0506101672,0.0533916633\N,0,2.
 2303561638,-0.0607282973,0.0971529523\H,0,2.7104299206,0.1445551233,-0
 .7929401941\O,0,2.9768985022,-0.2863976361,1.0755945973\H,0,0.46024743
 04,0.169181767,-0.8998201368\H,0,0.383341983,-0.2613407898,0.966961114
 7\\Version=ES64L-G16RevC.01\HF=-168.8955718\S2=0.468478\S2-1=0.\S2A=0.
 037309\RMSD=3.949e-09\Dipole=-0.8928373,0.2742196,-1.1890636\Quadrupol
 e=-4.021593,1.8931493,2.1284437,1.7130405,-7.1471108,0.0385111\PG=Unkn
 own\\@

 Writing a WFN file to "0002_q000_m01_k00_force_uhf_def2tzvpd.wfn"


 ALL MY ATTEMPTS TO ADAPT THE THEORETICAL FOUNDATIONS OF PHYSICS
 TO THESE NEW NOTIONS FAILED COMPLETELY. IT WAS AS IF THE GROUND HAD
 BEEN PULLED OUT FROM UNDER ONE WITH NO FIRM FOUNDATION TO BE SEEN ANYWHERE,
 UPON WHICH ONE COULD HAVE BUILT.  -- A.EINSTEIN
 Job cpu time:       0 days  0 hours  0 minutes 47.2 seconds.
 Elapsed time:       0 days  0 hours  0 minutes 29.0 seconds.
 File lengths (MBytes):  RWF=     96 Int=      0 D2E=      0 Chk=      4 Scr=      1
 Normal termination of Gaussian 16 at Tue Jan  3 09:05:09 2023.
 Initial command:
 /opt/software/gaussian/g16.c01/l1.exe "/localscratch/bhavuk.2151365.0/Gau-12039.inp" -scrdir="/localscratch/bhavuk.2151365.0/"
 Entering Link 1 = /opt/software/gaussian/g16.c01/l1.exe PID=     12358.
  
 Copyright (c) 1988-2019, Gaussian, Inc.  All Rights Reserved.
  
 This is part of the Gaussian(R) 16 program.  It is based on
 the Gaussian(R) 09 system (copyright 2009, Gaussian, Inc.),
 the Gaussian(R) 03 system (copyright 2003, Gaussian, Inc.),
 the Gaussian(R) 98 system (copyright 1998, Gaussian, Inc.),
 the Gaussian(R) 94 system (copyright 1995, Gaussian, Inc.),
 the Gaussian 92(TM) system (copyright 1992, Gaussian, Inc.),
 the Gaussian 90(TM) system (copyright 1990, Gaussian, Inc.),
 the Gaussian 88(TM) system (copyright 1988, Gaussian, Inc.),
 the Gaussian 86(TM) system (copyright 1986, Carnegie Mellon
 University), and the Gaussian 82(TM) system (copyright 1983,
 Carnegie Mellon University). Gaussian is a federally registered
 trademark of Gaussian, Inc.
  
 This software contains proprietary and confidential information,
 including trade secrets, belonging to Gaussian, Inc.
  
 This software is provided under written license and may be
 used, copied, transmitted, or stored only in accord with that
 written license.
  
 The following legend is applicable only to US Government
 contracts under FAR:
  
                    RESTRICTED RIGHTS LEGEND
  
 Use, reproduction and disclosure by the US Government is
 subject to restrictions as set forth in subparagraphs (a)
 and (c) of the Commercial Computer Software - Restricted
 Rights clause in FAR 52.227-19.
  
 Gaussian, Inc.
 340 Quinnipiac St., Bldg. 40, Wallingford CT 06492
  
  
 ---------------------------------------------------------------
 Warning -- This program may not be used in any manner that
 competes with the business of Gaussian, Inc. or will provide
 assistance to any competitor of Gaussian, Inc.  The licensee
 of this program is prohibited from giving any competitor of
 Gaussian, Inc. access to this program.  By using this program,
 the user acknowledges that Gaussian, Inc. is engaged in the
 business of creating and licensing software in the field of
 computational chemistry and represents and warrants to the
 licensee that it is not a competitor of Gaussian, Inc. and that
 it will not use this program in any manner prohibited above.
 ---------------------------------------------------------------
  

 Cite this work as:
 Gaussian 16, Revision C.01,
 M. J. Frisch, G. W. Trucks, H. B. Schlegel, G. E. Scuseria, 
 M. A. Robb, J. R. Cheeseman, G. Scalmani, V. Barone, 
 G. A. Petersson, H. Nakatsuji, X. Li, M. Caricato, A. V. Marenich, 
 J. Bloino, B. G. Janesko, R. Gomperts, B. Mennucci, H. P. Hratchian, 
 J. V. Ortiz, A. F. Izmaylov, J. L. Sonnenberg, D. Williams-Young, 
 F. Ding, F. Lipparini, F. Egidi, J. Goings, B. Peng, A. Petrone, 
 T. Henderson, D. Ranasinghe, V. G. Zakrzewski, J. Gao, N. Rega, 
 G. Zheng, W. Liang, M. Hada, M. Ehara, K. Toyota, R. Fukuda, 
 J. Hasegawa, M. Ishida, T. Nakajima, Y. Honda, O. Kitao, H. Nakai, 
 T. Vreven, K. Throssell, J. A. Montgomery, Jr., J. E. Peralta, 
 F. Ogliaro, M. J. Bearpark, J. J. Heyd, E. N. Brothers, K. N. Kudin, 
 V. N. Staroverov, T. A. Keith, R. Kobayashi, J. Normand, 
 K. Raghavachari, A. P. Rendell, J. C. Burant, S. S. Iyengar, 
 J. Tomasi, M. Cossi, J. M. Millam, M. Klene, C. Adamo, R. Cammi, 
 J. W. Ochterski, R. L. Martin, K. Morokuma, O. Farkas, 
 J. B. Foresman, and D. J. Fox, Gaussian, Inc., Wallingford CT, 2019.
 
 ******************************************
 Gaussian 16:  ES64L-G16RevC.01  3-Jul-2019
                 3-Jan-2023 
 ******************************************
 %chk=0002_q000_m01_k00_force_uhf_def2tzvpd.chk
 %nprocshared=2
 Will use up to    2 processors via shared memory.
 %mem=4GB
 ----------------------------------------------------------------------
 #p uhf/chkbasis force guess=read geom=check scf=(maxcycle=900,verytigh
 tlineq,xqc) integral=grid=ultrafine symmetry=None density=current pop=
 (cm5,hlygat,mbs,npa) output=wfx
 ----------------------------------------------------------------------
 1/10=7,29=2,30=1,38=1/1,3;
 2/12=2,15=3,40=1/2;
 3/5=7,6=2,11=2,14=-4,25=1,30=1,67=1,71=1,75=-5,116=2/1,2,3;
 4/5=1/1;
 5/5=2,7=900,8=3,13=1,17=3,38=6/2,8;
 6/7=2,8=2,9=2,10=2,15=8,20=15,22=-1,27=100,28=1,40=-1,79=1/1,2,7;
 7/29=1,30=1/1,2,3,16;
 1/10=7,30=1/3;
 99/6=200/99;
 Leave Link    1 at Tue Jan  3 09:05:10 2023, MaxMem=   536870912 cpu:               0.1 elap:               0.1
 (Enter /opt/software/gaussian/g16.c01/l101.exe)
 ----------------------------------------------------------------------
 0002_q000_m01_k00_opt_uwb97xd_def2svpd/0002_q000_m01_k00_force_uhf_def
 2tzvpd stable-force
 ----------------------------------------------------------------------
 Structure from the checkpoint file:  "0002_q000_m01_k00_force_uhf_def2tzvpd.chk"
 Charge =  0 Multiplicity = 1
 Z-Matrix found in chk file.
 C,0,0.9341359983,-0.0506101672,0.0533916633
 N,0,2.2303561638,-0.0607282973,0.0971529523
 H,0,2.7104299206,0.1445551233,-0.7929401941
 O,0,2.9768985022,-0.2863976361,1.0755945973
 H,0,0.4602474304,0.169181767,-0.8998201368
 H,0,0.383341983,-0.2613407898,0.9669611147
 Recover connectivity data from disk.
 ITRead=  0  0  0  0  0  0
 MicOpt= -1 -1 -1 -1 -1 -1
 NAtoms=      6 NQM=        6 NQMF=       0 NMMI=      0 NMMIF=      0
                NMic=       0 NMicF=      0.
                    Isotopes and Nuclear Properties:
 (Nuclear quadrupole moments (NQMom) in fm**2, nuclear magnetic moments (NMagM)
  in nuclear magnetons)

  Atom         1           2           3           4           5           6
 IAtWgt=          12          14           1          16           1           1
 AtmWgt=  12.0000000  14.0030740   1.0078250  15.9949146   1.0078250   1.0078250
 NucSpn=           0           2           1           0           1           1
 AtZEff=   3.6000000   4.5500000   1.0000000   5.6000000   1.0000000   1.0000000
 NQMom=    0.0000000   2.0440000   0.0000000   0.0000000   0.0000000   0.0000000
 NMagM=    0.0000000   0.4037610   2.7928460   0.0000000   2.7928460   2.7928460
 AtZNuc=   6.0000000   7.0000000   1.0000000   8.0000000   1.0000000   1.0000000
 Leave Link  101 at Tue Jan  3 09:05:10 2023, MaxMem=   536870912 cpu:               0.3 elap:               0.1
 (Enter /opt/software/gaussian/g16.c01/l103.exe)

 GradGradGradGradGradGradGradGradGradGradGradGradGradGradGradGradGradGrad
 Berny optimization.
 Initialization pass.
 Trust Radius=3.00D-01 FncErr=1.00D-07 GrdErr=1.00D-07 EigMax=2.50D+02 EigMin=1.00D-04
[...]
    55    N    2  dxy    Ryd( 5d)     0.00005       4.88237
    56    N    2  dxz    Ryd( 4d)     0.00153       2.12258
    57    N    2  dxz    Ryd( 3d)     0.00011       1.75441
    58    N    2  dxz    Ryd( 5d)     0.00022       5.29698
    59    N    2  dyz    Ryd( 4d)     0.00200       1.31181
    60    N    2  dyz    Ryd( 3d)     0.00007       1.26530
    61    N    2  dyz    Ryd( 5d)     0.00006       4.85863
    62    N    2  dx2y2  Ryd( 4d)     0.00278       1.79873
    63    N    2  dx2y2  Ryd( 3d)     0.00031       1.38678
    64    N    2  dx2y2  Ryd( 5d)     0.00003       5.17874
    65    N    2  dz2    Ryd( 4d)     0.00416       1.82628
    66    N    2  dz2    Ryd( 3d)     0.00009       1.42657
    67    N    2  dz2    Ryd( 5d)     0.00006       5.05224
    68    N    2  f(0)   Ryd( 4f)     0.00003       5.11684
    69    N    2  f(C1)  Ryd( 4f)     0.00008       5.81808
    70    N    2  f(S1)  Ryd( 4f)     0.00004       4.83004
    71    N    2  f(C2)  Ryd( 4f)     0.00010       5.20651
    72    N    2  f(S2)  Ryd( 4f)     0.00003       5.03368
    73    N    2  f(C3)  Ryd( 4f)     0.00009       5.09531
    74    N    2  f(S3)  Ryd( 4f)     0.00015       4.87575
 
    75    H    3  S      Val( 1S)     0.31181       0.10544
    76    H    3  S      Ryd( 3S)     0.00020       2.43240
    77    H    3  S      Ryd( 2S)     0.00003       1.04995
    78    H    3  px     Ryd( 2p)     0.00036       0.64868
    79    H    3  px     Ryd( 3p)     0.00003       2.55509
    80    H    3  py     Ryd( 2p)     0.00076       0.54340
    81    H    3  py     Ryd( 3p)     0.00004       2.14809
    82    H    3  pz     Ryd( 2p)     0.00038       0.52083
    83    H    3  pz     Ryd( 3p)     0.00004       3.01407
 
    84    O    4  S      Cor( 1S)     0.99993     -20.35520
    85    O    4  S      Val( 2S)     0.88542      -1.15659
    86    O    4  S      Ryd( 4S)     0.00164       1.61523
    87    O    4  S      Ryd( 3S)     0.00002       0.94403
    88    O    4  S      Ryd( 5S)     0.00001       6.66318
    89    O    4  S      Ryd( 6S)     0.00000      42.13765
    90    O    4  px     Val( 2p)     0.83552      -0.37287
    91    O    4  px     Ryd( 4p)     0.00110       1.33779
    92    O    4  px     Ryd( 3p)     0.00005       0.74996
    93    O    4  px     Ryd( 5p)     0.00003       3.37334
    94    O    4  py     Val( 2p)     0.95706      -0.48753
    95    O    4  py     Ryd( 4p)     0.00201       1.12929
    96    O    4  py     Ryd( 3p)     0.00001       0.68956
    97    O    4  py     Ryd( 5p)     0.00000       2.87637
    98    O    4  pz     Val( 2p)     0.74112      -0.31260
    99    O    4  pz     Ryd( 4p)     0.00094       1.39448
   100    O    4  pz     Ryd( 3p)     0.00004       0.70121
   101    O    4  pz     Ryd( 5p)     0.00004       3.54281
   102    O    4  dxy    Ryd( 4d)     0.00045       2.04276
   103    O    4  dxy    Ryd( 3d)     0.00010       1.20611
   104    O    4  dxy    Ryd( 5d)     0.00001       6.56081
   105    O    4  dxz    Ryd( 4d)     0.00317       2.31971
   106    O    4  dxz    Ryd( 3d)     0.00007       1.37063
   107    O    4  dxz    Ryd( 5d)     0.00000       6.87872
   108    O    4  dyz    Ryd( 4d)     0.00085       2.14648
   109    O    4  dyz    Ryd( 3d)     0.00008       1.19115
   110    O    4  dyz    Ryd( 5d)     0.00001       6.61526
   111    O    4  dx2y2  Ryd( 4d)     0.00080       2.07826
   112    O    4  dx2y2  Ryd( 3d)     0.00004       1.24128
   113    O    4  dx2y2  Ryd( 5d)     0.00001       6.61267
   114    O    4  dz2    Ryd( 4d)     0.00157       2.33132
   115    O    4  dz2    Ryd( 3d)     0.00007       1.23931
   116    O    4  dz2    Ryd( 5d)     0.00003       6.76226
   117    O    4  f(0)   Ryd( 4f)     0.00002       6.21021
   118    O    4  f(C1)  Ryd( 4f)     0.00014       6.31121
   119    O    4  f(S1)  Ryd( 4f)     0.00002       5.94085
   120    O    4  f(C2)  Ryd( 4f)     0.00007       6.10149
   121    O    4  f(S2)  Ryd( 4f)     0.00005       6.07068
   122    O    4  f(C3)  Ryd( 4f)     0.00001       5.77736
   123    O    4  f(S3)  Ryd( 4f)     0.00001       5.76134
 
   124    H    5  S      Val( 1S)     0.43181       0.00386
   125    H    5  S      Ryd( 2S)     0.00016       1.36018
   126    H    5  S      Ryd( 3S)     0.00002       1.80589
   127    H    5  px     Ryd( 2p)     0.00013       0.49784
   128    H    5  px     Ryd( 3p)     0.00017       2.62644
   129    H    5  py     Ryd( 2p)     0.00010       0.43365
   130    H    5  py     Ryd( 3p)     0.00004       2.24038
   131    H    5  pz     Ryd( 2p)     0.00019       0.41470
   132    H    5  pz     Ryd( 3p)     0.00048       2.95781
 
   133    H    6  S      Val( 1S)     0.42450       0.02343
   134    H    6  S      Ryd( 2S)     0.00051       1.20112
   135    H    6  S      Ryd( 3S)     0.00002       1.89561
   136    H    6  px     Ryd( 2p)     0.00027       1.13511
   137    H    6  px     Ryd( 3p)     0.00008       2.02980
   138    H    6  py     Ryd( 2p)     0.00005       1.07391
   139    H    6  py     Ryd( 3p)     0.00004       1.58674
   140    H    6  pz     Ryd( 2p)     0.00045       1.22294
   141    H    6  pz     Ryd( 3p)     0.00025       2.10364

 WARNING:  Population inversion found on atom  C    1
           Population inversion found on atom  N    2
           Population inversion found on atom  H    3
           Population inversion found on atom  O    4
           Population inversion found on atom  H    5


 Summary of Natural Population Analysis:                  
                                                          
                                       Natural Population 
                Natural  -----------------------------------------------
    Atom  No    Charge         Core      Valence    Rydberg      Total
 -----------------------------------------------------------------------
      C    1    0.30803      0.99973     1.68308    0.00917     2.69197
      N    2   -0.20257      0.99970     2.67682    0.02606     3.70257
      H    3    0.18635      0.00000     0.31181    0.00184     0.31365
      O    4   -0.43253      0.99993     3.41912    0.01348     4.43253
      H    5    0.06690      0.00000     0.43181    0.00129     0.43310
      H    6    0.07383      0.00000     0.42450    0.00167     0.42617
 =======================================================================
   * Total *    0.00000      2.99936     8.94714    0.05350    12.00000

                                 Natural Population      
 --------------------------------------------------------
   Core                       2.99936 ( 99.9785% of   3)
   Valence                    8.94714 ( 99.4127% of   9)
   Natural Minimal Basis     11.94650 ( 99.5541% of  12)
   Natural Rydberg Basis      0.05350 (  0.4459% of  12)
 --------------------------------------------------------

    Atom  No          Natural Electron Configuration
 ----------------------------------------------------------------------------
      C    1      [core]2S( 0.50)2p( 1.18)
      N    2      [core]2S( 0.62)2p( 2.06)3p( 0.01)4d( 0.01)
      H    3            1S( 0.31)
      O    4      [core]2S( 0.89)2p( 2.53)4d( 0.01)
      H    5            1S( 0.43)
      H    6            1S( 0.42)


 NBO analysis skipped by request.
 Leave Link  607 at Tue Jan  3 09:05:15 2023, MaxMem=   536870912 cpu:               3.6 elap:               1.8
 (Enter /opt/software/gaussian/g16.c01/l701.exe)
 ... and contract with generalized density number  0.
 Compute integral first derivatives.
 Leave Link  701 at Tue Jan  3 09:05:16 2023, MaxMem=   536870912 cpu:               0.3 elap:               0.2
 (Enter /opt/software/gaussian/g16.c01/l702.exe)
 L702 exits ... SP integral derivatives will be done elsewhere.
 Leave Link  702 at Tue Jan  3 09:05:16 2023, MaxMem=   536870912 cpu:               0.1 elap:               0.0
 (Enter /opt/software/gaussian/g16.c01/l703.exe)
 Integral derivatives from FoFJK, PRISM(SPDF).
 Compute integral first derivatives, UseDBF=F ICtDFT=           0.
 Calling FoFJK, ICntrl=      2127 FMM=F ISym2X=0 I1Cent= 0 IOpClX= 1 NMat=1 NMatS=1 NMatT=0.
 FoFJK:  IHMeth= 1 ICntrl=    2127 DoSepK=F KAlg= 0 I1Cent=           0 FoldK=F
 IRaf=         0 NMat=       1 IRICut=       1 DoRegI=T DoRafI=F ISym2E= 0 IDoP0=0 IntGTp=1.
 FoFCou: FMM=F IPFlag=           0 FMFlag=      100000 FMFlg1=         800
         NFxFlg=           0 DoJE=F BraDBF=F KetDBF=F FulRan=T
         wScrn=  0.000000 ICntrl=      2127 IOpCl=  1 I1Cent=           0 NGrid=           0
         NMat0=    1 NMatS0=      1 NMatT0=    0 NMatD0=    1 NMtDS0=    0 NMtDT0=    0
 Symmetry not used in FoFCou.
 Leave Link  703 at Tue Jan  3 09:05:21 2023, MaxMem=   536870912 cpu:               8.8 elap:               4.4
 (Enter /opt/software/gaussian/g16.c01/l716.exe)
 Dipole        =-8.92837117D-01 2.74219559D-01-1.18906354D+00
 -------------------------------------------------------------------
 Center     Atomic                   Forces (Hartrees/Bohr)
 Number     Number              X              Y              Z
 -------------------------------------------------------------------
      1        6          -0.028824902   -0.001188521    0.005135371
      2        7           0.040450796    0.003600954   -0.015611589
      3        1          -0.008504607   -0.004767649    0.020671541
      4        8          -0.013309951    0.002449878   -0.010620955
      5        1           0.004928193   -0.002752428    0.011942809
      6        1           0.005260472    0.002657766   -0.011517177
 -------------------------------------------------------------------
 Cartesian Forces:  Max     0.040450796 RMS     0.014741896
 Z-matrix is all fixed cartesians, so copy forces.
 Force constants in Cartesian coordinates: 
                1             2             3             4             5 
      1  0.101329D+01
      2 -0.181037D-02  0.203575D+00
      3  0.786374D-02 -0.124878D+00  0.716256D+00
      4 -0.679882D+00  0.300493D-02 -0.129771D-01  0.122912D+01
      5  0.376763D-02 -0.101951D+00  0.210923D-01 -0.513644D-01  0.222812D+00
      6 -0.162703D-01  0.210924D-01 -0.188542D+00  0.222639D+00 -0.201358D+00
      7 -0.102620D-02 -0.665546D-02  0.288574D-01 -0.181518D+00 -0.289962D-01
      8  0.121571D-03  0.160790D-01  0.116710D-03 -0.287431D-01 -0.726755D-01
      9 -0.525445D-03  0.118691D-03  0.155912D-01  0.124629D+00  0.655904D-01
     10  0.119887D-02  0.777540D-02 -0.337130D-01 -0.367761D+00  0.763242D-01
     11  0.200587D-03  0.190369D-01 -0.153988D-02  0.768689D-01 -0.806506D-01
     12 -0.868461D-03 -0.154186D-02  0.253675D-01 -0.333281D+00  0.114090D+00
     13 -0.158674D+00  0.217720D-01 -0.944370D-01  0.990489D-03  0.642211D-02
     14  0.210005D-01 -0.665152D-01  0.549206D-01  0.108065D-03  0.144495D-01
     15 -0.910994D-01  0.549244D-01 -0.292045D+00 -0.467503D-03  0.139020D-03
     16 -0.174911D+00 -0.240865D-01  0.104406D+00 -0.948593D-03 -0.615334D-02
     17 -0.232800D-01 -0.702247D-01  0.502880D-01  0.125613D-03  0.180161D-01
     18  0.100900D+00  0.502841D-01 -0.276628D+00 -0.542935D-03  0.445850D-03
                6             7             8             9            10 
      6  0.104942D+01
      7  0.125728D+00  0.157894D+00
      8  0.655912D-01  0.315330D-01  0.477677D-01
      9 -0.341942D+00 -0.136727D+00 -0.699667D-01  0.335000D+00
     10 -0.330918D+00  0.246502D-01 -0.291152D-02  0.126236D-01  0.341912D+00
     11  0.114089D+00  0.411862D-02  0.878005D-02  0.424634D-02 -0.811881D-01
     12 -0.549005D+00 -0.178579D-01  0.424651D-02 -0.865234D-02  0.352007D+00
     13 -0.278537D-01  0.000000D+00  0.000000D+00  0.000000D+00  0.000000D+00
     14  0.139979D-03  0.000000D+00 -0.908908D-02 -0.209632D-02  0.000000D+00
     15  0.138797D-01  0.000000D+00 -0.209566D-02 -0.483348D-03  0.000000D+00
     16  0.266748D-01  0.000000D+00  0.000000D+00  0.000000D+00  0.000000D+00
     17  0.444845D-03  0.000000D+00  0.913787D-02  0.210757D-02  0.000000D+00
     18  0.161850D-01  0.000000D+00  0.210791D-02  0.486171D-03  0.000000D+00
               11            12            13            14            15 
     11  0.528801D-01
     12 -0.116784D+00  0.532292D+00
     13  0.000000D+00  0.000000D+00  0.128269D+00
     14  0.864159D-02  0.199298D-02 -0.243128D-01  0.428129D-01
     15  0.199249D-02  0.459521D-03  0.105452D+00 -0.591266D-01  0.285599D+00
     16  0.000000D+00  0.000000D+00  0.294149D-01  0.320416D-02 -0.138848D-01
     17 -0.868798D-02 -0.200368D-02 -0.388133D-02  0.970030D-02  0.416630D-02
     18 -0.200413D-02 -0.462205D-03  0.168390D-01  0.416934D-02 -0.741015D-02
               16            17            18 
     16  0.146445D+00
     17  0.270357D-01  0.420584D-01
     18 -0.117196D+00 -0.550030D-01  0.267829D+00
 Leave Link  716 at Tue Jan  3 09:05:21 2023, MaxMem=   536870912 cpu:               0.1 elap:               0.1
 (Enter /opt/software/gaussian/g16.c01/l103.exe)

 GradGradGradGradGradGradGradGradGradGradGradGradGradGradGradGradGradGrad
 Berny optimization.
 Search for a local minimum.
 Step number   1 out of a maximum of    2
 All quantities printed in internal units (Hartrees-Bohrs-Radians)
 Second derivative matrix not updated -- first step.
 The second derivative matrix:
                          X1        Y1        Z1        X2        Y2
           X1           1.01329
           Y1          -0.00181   0.20358
           Z1           0.00786  -0.12488   0.71626
           X2          -0.67988   0.00300  -0.01298   1.22912
           Y2           0.00377  -0.10195   0.02109  -0.05136   0.22281
           Z2          -0.01627   0.02109  -0.18854   0.22264  -0.20136
           X3          -0.00103  -0.00666   0.02886  -0.18152  -0.02900
           Y3           0.00012   0.01608   0.00012  -0.02874  -0.07268
           Z3          -0.00053   0.00012   0.01559   0.12463   0.06559
           X4           0.00120   0.00778  -0.03371  -0.36776   0.07632
           Y4           0.00020   0.01904  -0.00154   0.07687  -0.08065
           Z4          -0.00087  -0.00154   0.02537  -0.33328   0.11409
           X5          -0.15867   0.02177  -0.09444   0.00099   0.00642
           Y5           0.02100  -0.06652   0.05492   0.00011   0.01445
           Z5          -0.09110   0.05492  -0.29205  -0.00047   0.00014
           X6          -0.17491  -0.02409   0.10441  -0.00095  -0.00615
           Y6          -0.02328  -0.07022   0.05029   0.00013   0.01802
           Z6           0.10090   0.05028  -0.27663  -0.00054   0.00045
                          Z2        X3        Y3        Z3        X4
           Z2           1.04942
           X3           0.12573   0.15789
           Y3           0.06559   0.03153   0.04777
           Z3          -0.34194  -0.13673  -0.06997   0.33500
           X4          -0.33092   0.02465  -0.00291   0.01262   0.34191
           Y4           0.11409   0.00412   0.00878   0.00425  -0.08119
           Z4          -0.54900  -0.01786   0.00425  -0.00865   0.35201
           X5          -0.02785  -0.00000  -0.00000  -0.00000   0.00000
           Y5           0.00014  -0.00000  -0.00909  -0.00210   0.00000
           Z5           0.01388  -0.00000  -0.00210  -0.00048   0.00000
           X6           0.02667   0.00000   0.00000   0.00000  -0.00000
           Y6           0.00044   0.00000   0.00914   0.00211  -0.00000
           Z6           0.01618   0.00000   0.00211   0.00049  -0.00000
                          Y4        Z4        X5        Y5        Z5
           Y4           0.05288
           Z4          -0.11678   0.53229
           X5           0.00000   0.00000   0.12827
           Y5           0.00864   0.00199  -0.02431   0.04281
           Z5           0.00199   0.00046   0.10545  -0.05913   0.28560
           X6          -0.00000  -0.00000   0.02941   0.00320  -0.01388
           Y6          -0.00869  -0.00200  -0.00388   0.00970   0.00417
           Z6          -0.00200  -0.00046   0.01684   0.00417  -0.00741
                          X6        Y6        Z6
           X6           0.14644
           Y6           0.02704   0.04206
           Z6          -0.11720  -0.05500   0.26783
 ITU=  0
     Eigenvalues ---    0.03447   0.04394   0.09385   0.09776   0.15149
     Eigenvalues ---    0.18516   0.28085   0.33564   0.68419   0.94438
     Eigenvalues ---    1.52455   2.16742
 Angle between quadratic step and forces=  53.35 degrees.
 Linear search not attempted -- first point.
 B after Tr=    -0.004304    0.001941   -0.008450
         Rot=    1.000000    0.000001    0.000120    0.000027 Ang=   0.01 deg.
 Variable       Old X    -DE/DX   Delta X   Delta X   Delta X     New X
                                 (Linear)    (Quad)   (Total)
    X1        1.76526  -0.02882   0.00000  -0.00439  -0.00872   1.75654
    Y1       -0.09564  -0.00119   0.00000  -0.00161   0.00024  -0.09540
    Z1        0.10090   0.00514   0.00000   0.00690  -0.00112   0.09977
    X2        4.21476   0.04045   0.00000   0.02384   0.01949   4.23425
    Y2       -0.11476   0.00360   0.00000   0.00570   0.00741  -0.10735
    Z2        0.18359  -0.01561   0.00000  -0.02471  -0.03214   0.15145
    X3        5.12197  -0.00850   0.00000   0.03185   0.02792   5.14989
    Y3        0.27317  -0.00477   0.00000  -0.00883  -0.00717   0.26600
    Z3       -1.49844   0.02067   0.00000   0.03830   0.03109  -1.46735
    X4        5.62552  -0.01331   0.00000  -0.03226  -0.03708   5.58845
    Y4       -0.54121   0.00245   0.00000   0.00198   0.00362  -0.53760
    Z4        2.03258  -0.01062   0.00000  -0.00855  -0.01565   2.01693
    X5        0.86974   0.00493   0.00000  -0.01612  -0.02001   0.84973
    Y5        0.31971  -0.00275   0.00000  -0.01221  -0.01031   0.30939
    Z5       -1.70041   0.01194   0.00000   0.05303   0.04478  -1.65563
    X6        0.72441   0.00526   0.00000   0.02317   0.01841   0.74282
    Y6       -0.49386   0.00266   0.00000   0.00432   0.00622  -0.48764
    Z6        1.82729  -0.01152   0.00000  -0.01869  -0.02696   1.80033
         Item               Value     Threshold  Converged?
 Maximum Force            0.040451     0.000450     NO 
 RMS     Force            0.014742     0.000300     NO 
 Maximum Displacement     0.044782     0.001800     NO 
 RMS     Displacement     0.021848     0.001200     NO 
 Predicted change in Energy=-1.779152D-03
 GradGradGradGradGradGradGradGradGradGradGradGradGradGradGradGradGradGrad

 Leave Link  103 at Tue Jan  3 09:05:21 2023, MaxMem=   536870912 cpu:               0.1 elap:               0.0
 (Enter /opt/software/gaussian/g16.c01/l9999.exe)
 Unable to Open any file for archive entry.
 1\1\GINC-GRA630\Force\UHF\Gen\C1H3N1O1\BHAVUK\03-Jan-2023\0\\#p uhf/ch
 kbasis force guess=read geom=check scf=(maxcycle=900,verytightlineq,xq
 c) integral=grid=ultrafine symmetry=None density=current pop=(cm5,hlyg
 at,mbs,npa) output=wfx\\0002_q000_m01_k00_opt_uwb97xd_def2svpd/0002_q0
 00_m01_k00_force_uhf_def2tzvpd stable-force\\0,1\C,0.9341359983,-0.050
 6101672,0.0533916633\N,2.2303561638,-0.0607282973,0.0971529523\H,2.710
 4299206,0.1445551233,-0.7929401941\O,2.9768985022,-0.2863976361,1.0755
 945973\H,0.4602474304,0.169181767,-0.8998201368\H,0.383341983,-0.26134
 07898,0.9669611147\\Version=ES64L-G16RevC.01\HF=-168.8955718\S2=0.4684
 78\S2-1=0.\S2A=0.037309\RMSD=1.878e-09\RMSF=1.474e-02\Dipole=-0.892837
 1,0.2742196,-1.1890635\Quadrupole=-4.021592,1.8931486,2.1284434,1.7130
 404,-7.1471103,0.038511\PG=Unknown\\@
 The archive entry for this job was punched.

 Writing a WFNX file to "0002_q000_m01_k00_force_uhf_def2tzvpd.wfx"


 THE PROGRESS OF RIVERS TO THE SEA IS NOT AS RAPID
 AS THAT OF MAN TO ERROR.
                                              -- VOLTAIRE
 Job cpu time:       0 days  0 hours  0 minutes 21.2 seconds.
 Elapsed time:       0 days  0 hours  0 minutes 10.6 seconds.
 File lengths (MBytes):  RWF=     16 Int=      0 D2E=      0 Chk=      4 Scr=      1
 Normal termination of Gaussian 16 at Tue Jan  3 09:05:21 2023.
