 Entering Gaussian System, Link 0=g16
 Input=0002_q000_m01_k00_force_ub3lyp_def2tzvp.com
 Output=0002_q000_m01_k00_force_ub3lyp_def2tzvp.log
 Initial command:
 /opt/software/gaussian/g16.c01/l1.exe "/localscratch/bhavuk.2151356.0/Gau-18097.inp" -scrdir="/localscratch/bhavuk.2151356.0/"
 Entering Link 1 = /opt/software/gaussian/g16.c01/l1.exe PID=     18103.
  
 Copyright (c) 1988-2019, Gaussian, Inc.  All Rights Reserved.
  
 This is part of the Gaussian(R) 16 program.  It is based on
 the Gaussian(R) 09 system (copyright 2009, Gaussian, Inc.),
 the Gaussian(R) 03 system (copyright 2003, Gaussian, Inc.),
 the Gaussian(R) 98 system (copyright 1998, Gaussian, Inc.),
 the Gaussian(R) 94 system (copyright 1995, Gaussian, Inc.),
 the Gaussian 92(TM) system (copyright 1992, Gaussian, Inc.),
 the Gaussian 90(TM) system (copyright 1990, Gaussian, Inc.),
 the Gaussian 88(TM) system (copyright 1988, Gaussian, Inc.),
 the Gaussian 86(TM) system (copyright 1986, Carnegie Mellon
 University), and the Gaussian 82(TM) system (copyright 1983,
 Carnegie Mellon University). Gaussian is a federally registered
 trademark of Gaussian, Inc.
  
 This software contains proprietary and confidential information,
 including trade secrets, belonging to Gaussian, Inc.
  
 This software is provided under written license and may be
 used, copied, transmitted, or stored only in accord with that
 written license.
  
 The following legend is applicable only to US Government
 contracts under FAR:
  
                    RESTRICTED RIGHTS LEGEND
  
 Use, reproduction and disclosure by the US Government is
 subject to restrictions as set forth in subparagraphs (a)
 and (c) of the Commercial Computer Software - Restricted
 Rights clause in FAR 52.227-19.
  
 Gaussian, Inc.
 340 Quinnipiac St., Bldg. 40, Wallingford CT 06492
  
  
 ---------------------------------------------------------------
 Warning -- This program may not be used in any manner that
 competes with the business of Gaussian, Inc. or will provide
 assistance to any competitor of Gaussian, Inc.  The licensee
 of this program is prohibited from giving any competitor of
 Gaussian, Inc. access to this program.  By using this program,
 the user acknowledges that Gaussian, Inc. is engaged in the
 business of creating and licensing software in the field of
 computational chemistry and represents and warrants to the
 licensee that it is not a competitor of Gaussian, Inc. and that
 it will not use this program in any manner prohibited above.
 ---------------------------------------------------------------
  

 Cite this work as:
 Gaussian 16, Revision C.01,
 M. J. Frisch, G. W. Trucks, H. B. Schlegel, G. E. Scuseria, 
 M. A. Robb, J. R. Cheeseman, G. Scalmani, V. Barone, 
 G. A. Petersson, H. Nakatsuji, X. Li, M. Caricato, A. V. Marenich, 
 J. Bloino, B. G. Janesko, R. Gomperts, B. Mennucci, H. P. Hratchian, 
 J. V. Ortiz, A. F. Izmaylov, J. L. Sonnenberg, D. Williams-Young, 
 F. Ding, F. Lipparini, F. Egidi, J. Goings, B. Peng, A. Petrone, 
 T. Henderson, D. Ranasinghe, V. G. Zakrzewski, J. Gao, N. Rega, 
 G. Zheng, W. Liang, M. Hada, M. Ehara, K. Toyota, R. Fukuda, 
 J. Hasegawa, M. Ishida, T. Nakajima, Y. Honda, O. Kitao, H. Nakai, 
 T. Vreven, K. Throssell, J. A. Montgomery, Jr., J. E. Peralta, 
 F. Ogliaro, M. J. Bearpark, J. J. Heyd, E. N. Brothers, K. N. Kudin, 
 V. N. Staroverov, T. A. Keith, R. Kobayashi, J. Normand, 
 K. Raghavachari, A. P. Rendell, J. C. Burant, S. S. Iyengar, 
 J. Tomasi, M. Cossi, J. M. Millam, M. Klene, C. Adamo, R. Cammi, 
 J. W. Ochterski, R. L. Martin, K. Morokuma, O. Farkas, 
 J. B. Foresman, and D. J. Fox, Gaussian, Inc., Wallingford CT, 2019.
 
 ******************************************
 Gaussian 16:  ES64L-G16RevC.01  3-Jul-2019
                 3-Jan-2023 
 ******************************************
 %chk=0002_q000_m01_k00_force_ub3lyp_def2tzvp.chk
 %nprocshared=2
 Will use up to    2 processors via shared memory.
 %mem=4GB
 ----------------------------------------------------------------------
 #p ub3lyp/gen stable=opt scf=(maxcycle=900,verytightlineq,xqc) integra
 l=grid=ultrafine symmetry=None density=current iop(99/18=-1) output=wf
 n
 ----------------------------------------------------------------------
 1/38=1,172=1/1;
 2/12=2,15=3,17=6,18=5,40=1/2;
 3/5=7,11=2,25=1,30=1,74=-5,75=-5,116=2/1,2,3;
 4//1;
 5/5=2,7=900,8=3,13=1,17=3,38=5/2,8;
 6/7=2,8=2,9=2,10=2,22=-1,28=1/1;
 8/6=1,10=90,11=11/1;
 9/8=-3,42=1,46=1/14;
 5/5=2,7=900,8=3,17=43,38=5/8(-2);
 6/7=2,8=2,9=2,10=2,22=-1,28=1/1;
 99/5=1,6=100,9=1,18=-1/99;
 Leave Link    1 at Tue Jan  3 09:04:18 2023, MaxMem=   536870912 cpu:               0.1 elap:               0.1
 (Enter /opt/software/gaussian/g16.c01/l101.exe)
 ----------------------------------------------------------------------
 0002_q000_m01_k00_opt_uwb97xd_def2svpd/0002_q000_m01_k00_force_ub3lyp_
 def2tzvp stable-force
 ----------------------------------------------------------------------
 Symbolic Z-matrix:
 Charge =  0 Multiplicity = 1
 C                     0.93414  -0.05061   0.05339 
 N                     2.23036  -0.06073   0.09715 
 H                     2.71043   0.14456  -0.79294 
 O                     2.9769   -0.2864    1.07559 
 H                     0.46025   0.16918  -0.89982 
 H                     0.38334  -0.26134   0.96696 
 
 ITRead=  0  0  0  0  0  0
 MicOpt= -1 -1 -1 -1 -1 -1
 NAtoms=      6 NQM=        6 NQMF=       0 NMMI=      0 NMMIF=      0
                NMic=       0 NMicF=      0.
                    Isotopes and Nuclear Properties:
 (Nuclear quadrupole moments (NQMom) in fm**2, nuclear magnetic moments (NMagM)
  in nuclear magnetons)

  Atom         1           2           3           4           5           6
 IAtWgt=          12          14           1          16           1           1
 AtmWgt=  12.0000000  14.0030740   1.0078250  15.9949146   1.0078250   1.0078250
 NucSpn=           0           2           1           0           1           1
 AtZEff=  -0.0000000  -0.0000000  -0.0000000  -0.0000000  -0.0000000  -0.0000000
 NQMom=    0.0000000   2.0440000   0.0000000   0.0000000   0.0000000   0.0000000
 NMagM=    0.0000000   0.4037610   2.7928460   0.0000000   2.7928460   2.7928460
 AtZNuc=   6.0000000   7.0000000   1.0000000   8.0000000   1.0000000   1.0000000
 Leave Link  101 at Tue Jan  3 09:04:19 2023, MaxMem=   536870912 cpu:               0.5 elap:               0.3
 (Enter /opt/software/gaussian/g16.c01/l202.exe)
                          Input orientation:                          
 ---------------------------------------------------------------------
 Center     Atomic      Atomic             Coordinates (Angstroms)
 Number     Number       Type             X           Y           Z
 ---------------------------------------------------------------------
      1          6           0        0.934136   -0.050610    0.053392
      2          7           0        2.230356   -0.060728    0.097153
      3          1           0        2.710430    0.144555   -0.792940
      4          8           0        2.976899   -0.286398    1.075595
      5          1           0        0.460247    0.169182   -0.899820
      6          1           0        0.383342   -0.261341    0.966961
 ---------------------------------------------------------------------
                    Distance matrix (angstroms):
                    1          2          3          4          5
     1  C    0.000000
     2  N    1.296998   0.000000
     3  H    1.977268   1.031929   0.000000
     4  O    2.296383   1.251239   1.936013   0.000000
     5  H    1.086964   2.044529   2.252854   3.231617   0.000000
     6  H    1.087378   2.051408   2.945733   2.595952   1.917325
                    6
     6  H    0.000000
 Symmetry turned off by external request.
 Stoichiometry    CH3NO
 Rotational constants (GHZ):          75.8819039          11.9122881          10.2959784
 Leave Link  202 at Tue Jan  3 09:04:19 2023, MaxMem=   536870912 cpu:               0.0 elap:               0.0
 (Enter /opt/software/gaussian/g16.c01/l301.exe)
 General basis read from cards:  (5D, 7F)
 Centers:       3      5      6
 S 3 1.00
     Exponent=  3.4061341000D+01 Coefficients=  6.0251978000D-03
     Exponent=  5.1235746000D+00 Coefficients=  4.5021094000D-02
     Exponent=  1.1646626000D+00 Coefficients=  2.0189726000D-01
 S 1 1.00
     Exponent=  3.2723041000D-01 Coefficients=  1.0000000000D+00
 S 1 1.00
     Exponent=  1.0307241000D-01 Coefficients=  1.0000000000D+00
 P 1 1.00
     Exponent=  8.0000000000D-01 Coefficients=  1.0000000000D+00
 ****
 Centers:       1
 S 6 1.00
     Exponent=  1.3575349682D+04 Coefficients=  2.2245814352D-04
     Exponent=  2.0352333680D+03 Coefficients=  1.7232738252D-03
     Exponent=  4.6322562359D+02 Coefficients=  8.9255715314D-03
     Exponent=  1.3120019598D+02 Coefficients=  3.5727984502D-02
     Exponent=  4.2853015891D+01 Coefficients=  1.1076259931D-01
     Exponent=  1.5584185766D+01 Coefficients=  2.4295627626D-01
 S 2 1.00
     Exponent=  6.2067138508D+00 Coefficients=  4.1440263448D-01
     Exponent=  2.5764896527D+00 Coefficients=  2.3744968655D-01
 S 1 1.00
     Exponent=  5.7696339419D-01 Coefficients=  1.0000000000D+00
 S 1 1.00
     Exponent=  2.2972831358D-01 Coefficients=  1.0000000000D+00
 S 1 1.00
     Exponent=  9.5164440028D-02 Coefficients=  1.0000000000D+00
 P 4 1.00
     Exponent=  3.4697232244D+01 Coefficients=  5.3333657805D-03
     Exponent=  7.9582622826D+00 Coefficients=  3.5864109092D-02
     Exponent=  2.3780826883D+00 Coefficients=  1.4215873329D-01
     Exponent=  8.1433208183D-01 Coefficients=  3.4270471845D-01
 P 1 1.00
     Exponent=  2.8887547253D-01 Coefficients=  4.6445822433D-01
 P 1 1.00
     Exponent=  1.0056823671D-01 Coefficients=  2.4955789874D-01
 D 1 1.00
     Exponent=  1.0970000000D+00 Coefficients=  1.0000000000D+00
 D 1 1.00
     Exponent=  3.1800000000D-01 Coefficients=  1.0000000000D+00
 F 1 1.00
     Exponent=  7.6100000000D-01 Coefficients=  1.0000000000D+00
 ****
 Centers:       2
 S 6 1.00
     Exponent=  1.9730800647D+04 Coefficients=  2.1887984991D-04
     Exponent=  2.9578958745D+03 Coefficients=  1.6960708803D-03
     Exponent=  6.7322133595D+02 Coefficients=  8.7954603538D-03
     Exponent=  1.9068249494D+02 Coefficients=  3.5359382605D-02
     Exponent=  6.2295441898D+01 Coefficients=  1.1095789217D-01
     Exponent=  2.2654161182D+01 Coefficients=  2.4982972552D-01
 S 2 1.00
     Exponent=  8.9791477428D+00 Coefficients=  4.0623896148D-01
     Exponent=  3.6863002370D+00 Coefficients=  2.4338217176D-01
 S 1 1.00
     Exponent=  8.4660076805D-01 Coefficients=  1.0000000000D+00
 S 1 1.00
     Exponent=  3.3647133771D-01 Coefficients=  1.0000000000D+00
 S 1 1.00
     Exponent=  1.3647653675D-01 Coefficients=  1.0000000000D+00
 P 4 1.00
     Exponent=  4.9200380510D+01 Coefficients=  5.5552416751D-03
     Exponent=  1.1346790537D+01 Coefficients=  3.8052379723D-02
     Exponent=  3.4273972411D+00 Coefficients=  1.4953671029D-01
     Exponent=  1.1785525134D+00 Coefficients=  3.4949305230D-01
 P 1 1.00
     Exponent=  4.1642204972D-01 Coefficients=  4.5843153697D-01
 P 1 1.00
     Exponent=  1.4260826011D-01 Coefficients=  2.4428771672D-01
 D 1 1.00
     Exponent=  1.6540000000D+00 Coefficients=  1.0000000000D+00
 D 1 1.00
     Exponent=  4.6900000000D-01 Coefficients=  1.0000000000D+00
 F 1 1.00
     Exponent=  1.0930000000D+00 Coefficients=  1.0000000000D+00
 ****
 Centers:       4
 S 6 1.00
     Exponent=  2.7032382631D+04 Coefficients=  2.1726302465D-04
     Exponent=  4.0523871392D+03 Coefficients=  1.6838662199D-03
     Exponent=  9.2232722710D+02 Coefficients=  8.7395616265D-03
     Exponent=  2.6124070989D+02 Coefficients=  3.5239968808D-02
     Exponent=  8.5354641351D+01 Coefficients=  1.1153519115D-01
     Exponent=  3.1035035245D+01 Coefficients=  2.5588953961D-01
 S 2 1.00
     Exponent=  1.2260860728D+01 Coefficients=  3.9768730901D-01
     Exponent=  4.9987076005D+00 Coefficients=  2.4627849430D-01
 S 1 1.00
     Exponent=  1.1703108158D+00 Coefficients=  1.0000000000D+00
 S 1 1.00
     Exponent=  4.6474740994D-01 Coefficients=  1.0000000000D+00
 S 1 1.00
     Exponent=  1.8504536357D-01 Coefficients=  1.0000000000D+00
 P 4 1.00
     Exponent=  6.3274954801D+01 Coefficients=  6.0685103418D-03
     Exponent=  1.4627049379D+01 Coefficients=  4.1912575824D-02
     Exponent=  4.4501223456D+00 Coefficients=  1.6153841088D-01
     Exponent=  1.5275799647D+00 Coefficients=  3.5706951311D-01
 P 1 1.00
     Exponent=  5.2935117943D-01 Coefficients=  4.4794207502D-01
 P 1 1.00
     Exponent=  1.7478421270D-01 Coefficients=  2.4446069663D-01
 D 1 1.00
     Exponent=  2.3140000000D+00 Coefficients=  1.0000000000D+00
 D 1 1.00
     Exponent=  6.4500000000D-01 Coefficients=  1.0000000000D+00
 F 1 1.00
     Exponent=  1.4280000000D+00 Coefficients=  1.0000000000D+00
 ****
 Ernie: Thresh=  0.10000D-02 Tol=  0.10000D-05 Strict=F.
   111 basis functions,   177 primitive gaussians,   126 cartesian basis functions
    12 alpha electrons       12 beta electrons
       nuclear repulsion energy        72.3526514420 Hartrees.
 IExCor=  402 DFT=T Ex+Corr=B3LYP ExCW=0 ScaHFX=  0.200000
 ScaDFX=  0.800000  0.720000  1.000000  0.810000 ScalE2=  1.000000  1.000000
 IRadAn=      5 IRanWt=     -1 IRanGd=            0 ICorTp=0 IEmpDi=  4
 NAtoms=    6 NActive=    6 NUniq=    6 SFac= 1.00D+00 NAtFMM=   60 NAOKFM=F Big=F
 Integral buffers will be    131072 words long.
 Raffenetti 2 integral format.
 Two-electron integral symmetry is turned off.
 Leave Link  301 at Tue Jan  3 09:04:19 2023, MaxMem=   536870912 cpu:               0.2 elap:               0.1
 (Enter /opt/software/gaussian/g16.c01/l302.exe)
 NPDir=0 NMtPBC=     1 NCelOv=     1 NCel=       1 NClECP=     1 NCelD=      1
         NCelK=      1 NCelE2=     1 NClLst=     1 CellRange=     0.0.
 One-electron integrals computed using PRISM.
 NBasis=   111 RedAO= T EigKep=  7.22D-04  NBF=   111
 NBsUse=   111 1.00D-06 EigRej= -1.00D+00 NBFU=   111
 Precomputing XC quadrature grid using
 IXCGrd= 4 IRadAn=           5 IRanWt=          -1 IRanGd=           0 AccXCQ= 0.00D+00.
 Generated NRdTot=       0 NPtTot=           0 NUsed=           0 NTot=          32
 NSgBfM=   126   126   126   126   126 MxSgAt=     6 MxSgA2=     6.
 Leave Link  302 at Tue Jan  3 09:04:19 2023, MaxMem=   536870912 cpu:               0.3 elap:               0.2
 (Enter /opt/software/gaussian/g16.c01/l303.exe)
 DipDrv:  MaxL=1.
 Leave Link  303 at Tue Jan  3 09:04:19 2023, MaxMem=   536870912 cpu:               0.1 elap:               0.0
 (Enter /opt/software/gaussian/g16.c01/l401.exe)
 ExpMin= 9.52D-02 ExpMax= 2.70D+04 ExpMxC= 9.22D+02 IAcc=3 IRadAn=         5 AccDes= 0.00D+00
 Harris functional with IExCor=  402 and IRadAn=       5 diagonalized for initial guess.
 HarFok:  IExCor=  402 AccDes= 0.00D+00 IRadAn=         5 IDoV= 1 UseB2=F ITyADJ=14
 ICtDFT=  3500011 ScaDFX=  1.000000  1.000000  1.000000  1.000000
 FoFCou: FMM=F IPFlag=           0 FMFlag=      100000 FMFlg1=           0
         NFxFlg=           0 DoJE=T BraDBF=F KetDBF=T FulRan=T
         wScrn=  0.000000 ICntrl=       500 IOpCl=  0 I1Cent=   200000004 NGrid=           0
         NMat0=    1 NMatS0=      1 NMatT0=    0 NMatD0=    1 NMtDS0=    0 NMtDT0=    0
 Symmetry not used in FoFCou.
 Harris En= -169.896100775684    
 JPrj=0 DoOrth=F DoCkMO=F.
 Initial guess <Sx>= 0.0000 <Sy>= 0.0000 <Sz>= 0.0000 <S**2>=-0.0000 S=-0.0000
 Leave Link  401 at Tue Jan  3 09:04:20 2023, MaxMem=   536870912 cpu:               1.3 elap:               0.6
 (Enter /opt/software/gaussian/g16.c01/l502.exe)
 Keep R1 and R2 ints in memory in canonical form, NReq=40643075.
 FoFCou: FMM=F IPFlag=           0 FMFlag=           0 FMFlg1=           0
         NFxFlg=           0 DoJE=F BraDBF=F KetDBF=F FulRan=T
         wScrn=  0.000000 ICntrl=       600 IOpCl=  0 I1Cent=           0 NGrid=           0
         NMat0=    1 NMatS0=   6216 NMatT0=    0 NMatD0=    1 NMtDS0=    0 NMtDT0=    0
 Symmetry not used in FoFCou.
 Two-electron integral symmetry not used.
 UHF open shell SCF:
 Using DIIS extrapolation, IDIIS=  1040.
 NGot=   536870912 LenX=   498192424 LenY=   498176107
 Requested convergence on RMS density matrix=1.00D-08 within 128 cycles.
 Requested convergence on MAX density matrix=1.00D-06.
 Requested convergence on             energy=1.00D-06.
 No special actions if energy rises.
 Integral accuracy reduced to 1.0D-05 until final iterations.

 Cycle   1  Pass 0  IDiag  1:
 E= -169.779471912228    
 DIIS: error= 4.11D-02 at cycle   1 NSaved=   1.
 NSaved= 1 IEnMin= 1 EnMin= -169.779471912228     IErMin= 1 ErrMin= 4.11D-02
 ErrMax= 4.11D-02  0.00D+00 EMaxC= 1.00D-01 BMatC= 5.07D-01 BMatP= 5.07D-01
 IDIUse=3 WtCom= 5.89D-01 WtEn= 4.11D-01
 Coeff-Com:  0.100D+01
 Coeff-En:   0.100D+01
 Coeff:      0.100D+01
 Gap=     0.140 Goal=   None    Shift=    0.000
 Gap=     0.140 Goal=   None    Shift=    0.000
 GapD=    0.140 DampG=1.000 DampE=0.500 DampFc=0.5000 IDamp=-1.
 Damping current iteration by 5.00D-01
 RMSDP=7.39D-03 MaxDP=1.16D-01              OVMax= 2.97D-01

 Cycle   2  Pass 0  IDiag  1:
 E= -169.777497460771     Delta-E=        0.001974451457 Rises=F Damp=T
 DIIS: error= 1.66D-02 at cycle   2 NSaved=   2.
 NSaved= 2 IEnMin= 1 EnMin= -169.779471912228     IErMin= 2 ErrMin= 1.66D-02
 ErrMax= 1.66D-02  0.00D+00 EMaxC= 1.00D-01 BMatC= 1.63D-01 BMatP= 5.07D-01
 IDIUse=3 WtCom= 8.34D-01 WtEn= 1.66D-01
 Coeff-Com:  0.322D+00 0.678D+00
 Coeff-En:   0.508D+00 0.492D+00
 Coeff:      0.353D+00 0.647D+00
 Gap=     0.287 Goal=   None    Shift=    0.000
 Gap=     0.287 Goal=   None    Shift=    0.000
 RMSDP=2.70D-03 MaxDP=4.03D-02 DE= 1.97D-03 OVMax= 2.96D-01

 Cycle   3  Pass 0  IDiag  1:
 E= -169.838325879256     Delta-E=       -0.060828418484 Rises=F Damp=F
 DIIS: error= 1.60D-02 at cycle   3 NSaved=   3.
 NSaved= 3 IEnMin= 3 EnMin= -169.838325879256     IErMin= 3 ErrMin= 1.60D-02
 ErrMax= 1.60D-02  0.00D+00 EMaxC= 1.00D-01 BMatC= 1.48D-01 BMatP= 1.63D-01
 IDIUse=3 WtCom= 8.40D-01 WtEn= 1.60D-01
 EnCoef did     1 forward-backward iterations
 Coeff-Com:  0.138D+00 0.466D+00 0.396D+00
 Coeff-En:   0.332D-01 0.152D+00 0.815D+00
 Coeff:      0.121D+00 0.416D+00 0.463D+00
 Gap=     0.194 Goal=   None    Shift=    0.000
 Gap=     0.194 Goal=   None    Shift=    0.000
 RMSDP=1.68D-03 MaxDP=4.04D-02 DE=-6.08D-02 OVMax= 1.67D-01

 Cycle   4  Pass 0  IDiag  1:
 E= -169.866237025357     Delta-E=       -0.027911146102 Rises=F Damp=F
 DIIS: error= 9.55D-03 at cycle   4 NSaved=   4.
 NSaved= 4 IEnMin= 4 EnMin= -169.866237025357     IErMin= 4 ErrMin= 9.55D-03
 ErrMax= 9.55D-03  0.00D+00 EMaxC= 1.00D-01 BMatC= 3.89D-02 BMatP= 1.48D-01
 IDIUse=3 WtCom= 9.05D-01 WtEn= 9.55D-02
 Coeff-Com:  0.344D-01 0.152D+00 0.334D+00 0.479D+00
 Coeff-En:   0.000D+00 0.000D+00 0.254D+00 0.746D+00
 Coeff:      0.312D-01 0.138D+00 0.327D+00 0.505D+00
 Gap=     0.199 Goal=   None    Shift=    0.000
 Gap=     0.199 Goal=   None    Shift=    0.000
 RMSDP=6.46D-04 MaxDP=1.48D-02 DE=-2.79D-02 OVMax= 6.19D-02

 Cycle   5  Pass 0  IDiag  1:
 E= -169.874819388789     Delta-E=       -0.008582363431 Rises=F Damp=F
 DIIS: error= 1.72D-03 at cycle   5 NSaved=   5.
 NSaved= 5 IEnMin= 5 EnMin= -169.874819388789     IErMin= 5 ErrMin= 1.72D-03
 ErrMax= 1.72D-03  0.00D+00 EMaxC= 1.00D-01 BMatC= 1.80D-03 BMatP= 3.89D-02
 IDIUse=3 WtCom= 9.83D-01 WtEn= 1.72D-02
 Coeff-Com: -0.203D-02 0.184D-01 0.120D+00 0.278D+00 0.585D+00
 Coeff-En:   0.000D+00 0.000D+00 0.000D+00 0.000D+00 0.100D+01
 Coeff:     -0.200D-02 0.181D-01 0.118D+00 0.273D+00 0.592D+00
 Gap=     0.201 Goal=   None    Shift=    0.000
 Gap=     0.201 Goal=   None    Shift=    0.000
 RMSDP=1.37D-04 MaxDP=3.11D-03 DE=-8.58D-03 OVMax= 9.32D-03

 Cycle   6  Pass 0  IDiag  1:
 E= -169.875194506713     Delta-E=       -0.000375117925 Rises=F Damp=F
 DIIS: error= 3.99D-04 at cycle   6 NSaved=   6.
 NSaved= 6 IEnMin= 6 EnMin= -169.875194506713     IErMin= 6 ErrMin= 3.99D-04
 ErrMax= 3.99D-04  0.00D+00 EMaxC= 1.00D-01 BMatC= 7.23D-05 BMatP= 1.80D-03
 IDIUse=3 WtCom= 9.96D-01 WtEn= 3.99D-03
 Coeff-Com: -0.256D-02-0.866D-03 0.180D-01 0.461D-01 0.225D+00 0.714D+00
 Coeff-En:   0.000D+00 0.000D+00 0.000D+00 0.000D+00 0.000D+00 0.100D+01
 Coeff:     -0.255D-02-0.862D-03 0.179D-01 0.459D-01 0.225D+00 0.715D+00
 Gap=     0.201 Goal=   None    Shift=    0.000
 Gap=     0.201 Goal=   None    Shift=    0.000
 RMSDP=2.44D-05 MaxDP=3.62D-04 DE=-3.75D-04 OVMax= 1.32D-03

 Cycle   7  Pass 0  IDiag  1:
 E= -169.875209666235     Delta-E=       -0.000015159522 Rises=F Damp=F
 DIIS: error= 3.75D-05 at cycle   7 NSaved=   7.
 NSaved= 7 IEnMin= 7 EnMin= -169.875209666235     IErMin= 7 ErrMin= 3.75D-05
 ErrMax= 3.75D-05  0.00D+00 EMaxC= 1.00D-01 BMatC= 5.19D-07 BMatP= 7.23D-05
 IDIUse=1 WtCom= 1.00D+00 WtEn= 0.00D+00
 Coeff-Com: -0.293D-03-0.188D-03-0.198D-03-0.188D-02 0.223D-01 0.102D+00
 Coeff-Com:  0.878D+00
 Coeff:     -0.293D-03-0.188D-03-0.198D-03-0.188D-02 0.223D-01 0.102D+00
 Coeff:      0.878D+00
 Gap=     0.201 Goal=   None    Shift=    0.000
 Gap=     0.201 Goal=   None    Shift=    0.000
 RMSDP=3.36D-06 MaxDP=4.39D-05 DE=-1.52D-05 OVMax= 2.12D-04

 Initial convergence to 1.0D-05 achieved.  Increase integral accuracy.
 Cycle   8  Pass 1  IDiag  1:
 E= -169.875209192542     Delta-E=        0.000000473693 Rises=F Damp=F
 DIIS: error= 8.75D-06 at cycle   1 NSaved=   1.
 NSaved= 1 IEnMin= 1 EnMin= -169.875209192542     IErMin= 1 ErrMin= 8.75D-06
 ErrMax= 8.75D-06  0.00D+00 EMaxC= 1.00D-01 BMatC= 2.89D-08 BMatP= 2.89D-08
 IDIUse=1 WtCom= 1.00D+00 WtEn= 0.00D+00
 Coeff-Com:  0.100D+01
 Coeff:      0.100D+01
 Gap=     0.201 Goal=   None    Shift=    0.000
 Gap=     0.201 Goal=   None    Shift=    0.000
 RMSDP=3.36D-06 MaxDP=4.39D-05 DE= 4.74D-07 OVMax= 1.55D-04

 Cycle   9  Pass 1  IDiag  1:
 E= -169.875209166127     Delta-E=        0.000000026415 Rises=F Damp=F
 DIIS: error= 1.86D-05 at cycle   2 NSaved=   2.
 NSaved= 2 IEnMin= 1 EnMin= -169.875209192542     IErMin= 1 ErrMin= 8.75D-06
 ErrMax= 1.86D-05  0.00D+00 EMaxC= 1.00D-01 BMatC= 1.57D-07 BMatP= 2.89D-08
 IDIUse=1 WtCom= 1.00D+00 WtEn= 0.00D+00
 Coeff-Com:  0.715D+00 0.285D+00
 Coeff:      0.715D+00 0.285D+00
 Gap=     0.201 Goal=   None    Shift=    0.000
 Gap=     0.201 Goal=   None    Shift=    0.000
 RMSDP=1.31D-06 MaxDP=3.03D-05 DE= 2.64D-08 OVMax= 1.21D-04

 Cycle  10  Pass 1  IDiag  1:
 E= -169.875209199358     Delta-E=       -0.000000033231 Rises=F Damp=F
 DIIS: error= 2.40D-06 at cycle   3 NSaved=   3.
 NSaved= 3 IEnMin= 3 EnMin= -169.875209199358     IErMin= 3 ErrMin= 2.40D-06
 ErrMax= 2.40D-06  0.00D+00 EMaxC= 1.00D-01 BMatC= 3.33D-09 BMatP= 2.89D-08
 IDIUse=1 WtCom= 1.00D+00 WtEn= 0.00D+00
 Coeff-Com:  0.250D+00 0.152D+00 0.598D+00
 Coeff:      0.250D+00 0.152D+00 0.598D+00
 Gap=     0.201 Goal=   None    Shift=    0.000
 Gap=     0.201 Goal=   None    Shift=    0.000
 RMSDP=1.94D-07 MaxDP=3.37D-06 DE=-3.32D-08 OVMax= 1.33D-05

 Cycle  11  Pass 1  IDiag  1:
 E= -169.875209200094     Delta-E=       -0.000000000737 Rises=F Damp=F
 DIIS: error= 2.80D-07 at cycle   4 NSaved=   4.
 NSaved= 4 IEnMin= 4 EnMin= -169.875209200094     IErMin= 4 ErrMin= 2.80D-07
 ErrMax= 2.80D-07  0.00D+00 EMaxC= 1.00D-01 BMatC= 3.30D-11 BMatP= 3.33D-09
 IDIUse=1 WtCom= 1.00D+00 WtEn= 0.00D+00
 Coeff-Com:  0.952D-02 0.421D-02 0.850D-01 0.901D+00
 Coeff:      0.952D-02 0.421D-02 0.850D-01 0.901D+00
 Gap=     0.201 Goal=   None    Shift=    0.000
 Gap=     0.201 Goal=   None    Shift=    0.000
 RMSDP=3.73D-08 MaxDP=6.82D-07 DE=-7.37D-10 OVMax= 2.68D-06

 Cycle  12  Pass 1  IDiag  1:
 E= -169.875209200100     Delta-E=       -0.000000000005 Rises=F Damp=F
 DIIS: error= 2.09D-07 at cycle   5 NSaved=   5.
 NSaved= 5 IEnMin= 5 EnMin= -169.875209200100     IErMin= 5 ErrMin= 2.09D-07
 ErrMax= 2.09D-07  0.00D+00 EMaxC= 1.00D-01 BMatC= 1.73D-11 BMatP= 3.30D-11
 IDIUse=1 WtCom= 1.00D+00 WtEn= 0.00D+00
 Coeff-Com: -0.556D-02-0.304D-02 0.125D-01 0.502D+00 0.494D+00
 Coeff:     -0.556D-02-0.304D-02 0.125D-01 0.502D+00 0.494D+00
 Gap=     0.201 Goal=   None    Shift=    0.000
 Gap=     0.201 Goal=   None    Shift=    0.000
 RMSDP=1.22D-08 MaxDP=3.15D-07 DE=-5.37D-12 OVMax= 9.60D-07

 Cycle  13  Pass 1  IDiag  1:
 E= -169.875209200104     Delta-E=       -0.000000000004 Rises=F Damp=F
 DIIS: error= 6.11D-08 at cycle   6 NSaved=   6.
 NSaved= 6 IEnMin= 6 EnMin= -169.875209200104     IErMin= 6 ErrMin= 6.11D-08
 ErrMax= 6.11D-08  0.00D+00 EMaxC= 1.00D-01 BMatC= 1.75D-12 BMatP= 1.73D-11
 IDIUse=1 WtCom= 1.00D+00 WtEn= 0.00D+00
 Coeff-Com: -0.615D-02-0.233D-02-0.912D-02 0.142D+00 0.276D+00 0.599D+00
 Coeff:     -0.615D-02-0.233D-02-0.912D-02 0.142D+00 0.276D+00 0.599D+00
 Gap=     0.201 Goal=   None    Shift=    0.000
 Gap=     0.201 Goal=   None    Shift=    0.000
 RMSDP=3.30D-09 MaxDP=6.74D-08 DE=-4.23D-12 OVMax= 1.76D-07

 SCF Done:  E(UB3LYP) =  -169.875209200     A.U. after   13 cycles
            NFock= 13  Conv=0.33D-08     -V/T= 2.0044
 <Sx>= 0.0000 <Sy>= 0.0000 <Sz>= 0.0000 <S**2>=-0.0000 S=-0.0000
 <L.S>=  0.00000000000    
 KE= 1.691311245170D+02 PE=-5.429405433082D+02 EE= 1.315815581491D+02
 Annihilation of the first spin contaminant:
 S**2 before annihilation    -0.0000,   after     0.0000
 Leave Link  502 at Tue Jan  3 09:04:28 2023, MaxMem=   536870912 cpu:              16.5 elap:               8.6
 (Enter /opt/software/gaussian/g16.c01/l508.exe)
 QCSCF skips out because SCF is already converged.
 Leave Link  508 at Tue Jan  3 09:04:28 2023, MaxMem=   536870912 cpu:               0.0 elap:               0.0
 (Enter /opt/software/gaussian/g16.c01/l601.exe)
 Copying SCF densities to generalized density rwf, IOpCl= 1 IROHF=0.

 **********************************************************************

            Population analysis using the SCF Density.

 **********************************************************************

 Alpha  occ. eigenvalues --  -19.11340 -14.46852 -10.22184  -1.12481  -0.87105
 Alpha  occ. eigenvalues --   -0.67060  -0.55745  -0.49264  -0.46418  -0.42965
 Alpha  occ. eigenvalues --   -0.26825  -0.24447
 Alpha virt. eigenvalues --   -0.04306   0.01361   0.06825   0.10022   0.14243
 Alpha virt. eigenvalues --    0.16198   0.21136   0.21295   0.29895   0.34556
 Alpha virt. eigenvalues --    0.36454   0.41031   0.41546   0.44929   0.46278
 Alpha virt. eigenvalues --    0.48795   0.51079   0.52907   0.55690   0.60813
 Alpha virt. eigenvalues --    0.67896   0.74933   0.76117   0.91443   0.97702
 Alpha virt. eigenvalues --    1.02373   1.03603   1.20972   1.30139   1.34416
 Alpha virt. eigenvalues --    1.41503   1.41662   1.51390   1.53414   1.55304
 Alpha virt. eigenvalues --    1.57387   1.71504   1.74789   1.75597   1.80259
 Alpha virt. eigenvalues --    1.82431   1.92747   2.01397   2.04144   2.13816
 Alpha virt. eigenvalues --    2.16212   2.18290   2.25990   2.38766   2.47394
 Alpha virt. eigenvalues --    2.50342   2.58932   2.62905   2.71719   2.77824
 Alpha virt. eigenvalues --    2.81867   2.87741   2.90988   2.96240   2.99017
 Alpha virt. eigenvalues --    3.02378   3.10973   3.20792   3.27812   3.29253
 Alpha virt. eigenvalues --    3.43279   3.56351   3.64499   3.76587   3.91943
 Alpha virt. eigenvalues --    4.08741   4.09716   4.21443   4.40413   4.57771
 Alpha virt. eigenvalues --    4.67528   4.74464   4.75517   4.85579   4.92358
 Alpha virt. eigenvalues --    5.03779   5.14712   5.19774   5.26919   5.36821
 Alpha virt. eigenvalues --    5.39665   5.58520   5.77311   6.25473   6.30460
 Alpha virt. eigenvalues --    6.33980   6.51276   6.84621   6.98859   7.08435
 Alpha virt. eigenvalues --    7.36368  22.35603  31.99832  43.85892
  Beta  occ. eigenvalues --  -19.11340 -14.46852 -10.22184  -1.12481  -0.87105
  Beta  occ. eigenvalues --   -0.67060  -0.55745  -0.49264  -0.46418  -0.42965
  Beta  occ. eigenvalues --   -0.26825  -0.24447
  Beta virt. eigenvalues --   -0.04306   0.01361   0.06825   0.10022   0.14243
  Beta virt. eigenvalues --    0.16198   0.21136   0.21295   0.29895   0.34556
  Beta virt. eigenvalues --    0.36454   0.41031   0.41546   0.44929   0.46278
  Beta virt. eigenvalues --    0.48795   0.51079   0.52907   0.55690   0.60813
  Beta virt. eigenvalues --    0.67896   0.74933   0.76117   0.91443   0.97702
  Beta virt. eigenvalues --    1.02373   1.03603   1.20972   1.30139   1.34416
  Beta virt. eigenvalues --    1.41503   1.41662   1.51390   1.53414   1.55304
  Beta virt. eigenvalues --    1.57387   1.71504   1.74789   1.75597   1.80259
  Beta virt. eigenvalues --    1.82431   1.92747   2.01397   2.04144   2.13816
  Beta virt. eigenvalues --    2.16212   2.18290   2.25990   2.38766   2.47394
  Beta virt. eigenvalues --    2.50342   2.58932   2.62905   2.71719   2.77824
  Beta virt. eigenvalues --    2.81867   2.87741   2.90988   2.96240   2.99017
  Beta virt. eigenvalues --    3.02378   3.10973   3.20792   3.27812   3.29253
  Beta virt. eigenvalues --    3.43279   3.56351   3.64499   3.76587   3.91943
  Beta virt. eigenvalues --    4.08741   4.09716   4.21443   4.40413   4.57771
  Beta virt. eigenvalues --    4.67528   4.74464   4.75517   4.85579   4.92358
  Beta virt. eigenvalues --    5.03779   5.14712   5.19774   5.26919   5.36821
  Beta virt. eigenvalues --    5.39665   5.58520   5.77311   6.25473   6.30460
  Beta virt. eigenvalues --    6.33980   6.51276   6.84621   6.98859   7.08435
  Beta virt. eigenvalues --    7.36368  22.35603  31.99832  43.85892
          Condensed to atoms (all electrons):
               1          2          3          4          5          6
     1  C    5.124124   0.496455  -0.084105  -0.106693   0.371659   0.401463
     2  N    0.496455   5.765255   0.349574   0.292766  -0.028490  -0.030018
     3  H   -0.084105   0.349574   0.558126  -0.055112   0.004917   0.008664
     4  O   -0.106693   0.292766  -0.055112   8.291250   0.008560   0.005213
     5  H    0.371659  -0.028490   0.004917   0.008560   0.542324  -0.022924
     6  H    0.401463  -0.030018   0.008664   0.005213  -0.022924   0.495062
          Atomic-Atomic Spin Densities.
               1          2          3          4          5          6
     1  C    0.000000  -0.000000   0.000000   0.000000   0.000000   0.000000
     2  N   -0.000000  -0.000000  -0.000000   0.000000  -0.000000  -0.000000
     3  H    0.000000  -0.000000  -0.000000  -0.000000  -0.000000  -0.000000
     4  O    0.000000   0.000000  -0.000000  -0.000000  -0.000000   0.000000
     5  H    0.000000  -0.000000  -0.000000  -0.000000   0.000000   0.000000
     6  H    0.000000  -0.000000  -0.000000   0.000000   0.000000  -0.000000
 Mulliken charges and spin densities:
               1          2
     1  C   -0.202903   0.000000
     2  N    0.154457  -0.000000
     3  H    0.217937  -0.000000
     4  O   -0.435984  -0.000000
     5  H    0.123954   0.000000
     6  H    0.142539  -0.000000
 Sum of Mulliken charges =  -0.00000   0.00000
 Mulliken charges and spin densities with hydrogens summed into heavy atoms:
               1          2
     1  C    0.063590   0.000000
     2  N    0.372394  -0.000000
     4  O   -0.435984  -0.000000
 Electronic spatial extent (au):  <R**2>=            516.1214
 Charge=             -0.0000 electrons
 Dipole moment (field-independent basis, Debye):
    X=             -1.9503    Y=              0.6620    Z=             -2.8705  Tot=              3.5329
 Quadrupole moment (field-independent basis, Debye-Ang):
   XX=            -25.9042   YY=            -19.2060   ZZ=            -18.9836
   XY=              2.1805   XZ=             -9.1301   YZ=              0.0682
 Traceless Quadrupole moment (field-independent basis, Debye-Ang):
   XX=             -4.5396   YY=              2.1586   ZZ=              2.3810
   XY=              2.1805   XZ=             -9.1301   YZ=              0.0682
 Octapole moment (field-independent basis, Debye-Ang**2):
  XXX=           -134.6341  YYY=              6.7015  ZZZ=            -23.2105  XYY=            -36.7069
  XXY=              8.8418  XXZ=            -34.0325  XZZ=            -40.6962  YZZ=              3.1147
  YYZ=             -6.6392  XYZ=              1.3617
 Hexadecapole moment (field-independent basis, Debye-Ang**3):
 XXXX=           -627.1549 YYYY=            -22.5844 ZZZZ=            -68.6705 XXXY=             36.9529
 XXXZ=           -137.8509 YYYX=             17.1375 YYYZ=              6.4494 ZZZX=            -65.9056
 ZZZY=              6.6386 XXYY=            -93.6637 XXZZ=           -114.3963 YYZZ=            -15.2442
 XXYZ=              6.5105 YYXZ=            -19.1434 ZZXY=              8.2268
 N-N= 7.235265144198D+01 E-N=-5.429405459596D+02  KE= 1.691311245170D+02
                          Isotropic Fermi Contact Couplings
        Atom                 a.u.       MegaHertz       Gauss      10(-4) cm-1
     1  C(13)              0.00000       0.00000       0.00000       0.00000
     2  N(14)              0.00000       0.00000       0.00000       0.00000
     3  H(1)               0.00000       0.00000       0.00000       0.00000
     4  O(17)              0.00000      -0.00000      -0.00000      -0.00000
     5  H(1)              -0.00000      -0.00000      -0.00000      -0.00000
     6  H(1)               0.00000       0.00000       0.00000       0.00000
 --------------------------------------------------------
       Center         ----  Spin Dipole Couplings  ----
                      3XX-RR        3YY-RR        3ZZ-RR
 --------------------------------------------------------
     1   Atom        0.000000      0.000000      0.000000
     2   Atom        0.000000      0.000000      0.000000
     3   Atom        0.000000      0.000000      0.000000
     4   Atom        0.000000      0.000000      0.000000
     5   Atom        0.000000      0.000000      0.000000
     6   Atom        0.000000      0.000000      0.000000
 --------------------------------------------------------
                        XY            XZ            YZ
 --------------------------------------------------------
     1   Atom        0.000000      0.000000      0.000000
     2   Atom        0.000000      0.000000      0.000000
     3   Atom        0.000000      0.000000      0.000000
     4   Atom        0.000000      0.000000      0.000000
     5   Atom        0.000000      0.000000      0.000000
     6   Atom        0.000000      0.000000      0.000000
 --------------------------------------------------------


 ---------------------------------------------------------------------------------
              Anisotropic Spin Dipole Couplings in Principal Axis System
 ---------------------------------------------------------------------------------

       Atom             a.u.   MegaHertz   Gauss  10(-4) cm-1        Axes

              Baa     0.0000     0.000     0.000     0.000  1.0000  0.0000  0.0000
     1 C(13)  Bbb     0.0000     0.000     0.000     0.000 -0.0000  1.0000  0.0000
              Bcc     0.0000     0.000     0.000     0.000  0.0000  0.0000  1.0000
 
              Baa     0.0000     0.000     0.000     0.000  1.0000  0.0000  0.0000
     2 N(14)  Bbb     0.0000     0.000     0.000     0.000 -0.0000  1.0000  0.0000
              Bcc     0.0000     0.000     0.000     0.000  0.0000  0.0000  1.0000
 
              Baa     0.0000     0.000     0.000     0.000  1.0000  0.0000  0.0000
     3 H(1)   Bbb     0.0000     0.000     0.000     0.000 -0.0000  1.0000  0.0000
              Bcc     0.0000     0.000     0.000     0.000  0.0000  0.0000  1.0000
 
              Baa     0.0000    -0.000    -0.000    -0.000  1.0000  0.0000  0.0000
     4 O(17)  Bbb     0.0000    -0.000    -0.000    -0.000 -0.0000  1.0000  0.0000
              Bcc     0.0000    -0.000    -0.000    -0.000  0.0000  0.0000  1.0000
 
              Baa     0.0000     0.000     0.000     0.000  1.0000  0.0000  0.0000
     5 H(1)   Bbb     0.0000     0.000     0.000     0.000 -0.0000  1.0000  0.0000
              Bcc     0.0000     0.000     0.000     0.000  0.0000  0.0000  1.0000
 
              Baa     0.0000     0.000     0.000     0.000  1.0000  0.0000  0.0000
     6 H(1)   Bbb     0.0000     0.000     0.000     0.000 -0.0000  1.0000  0.0000
              Bcc     0.0000     0.000     0.000     0.000  0.0000  0.0000  1.0000
 

 ---------------------------------------------------------------------------------

 No NMR shielding tensors so no spin-rotation constants.
 Leave Link  601 at Tue Jan  3 09:04:28 2023, MaxMem=   536870912 cpu:               0.4 elap:               0.2
 (Enter /opt/software/gaussian/g16.c01/l801.exe)
 DoSCS=F DFT=T ScalE2(SS,OS)=  1.000000  1.000000
 Range of M.O.s used for correlation:     1   111
 NBasis=   111 NAE=    12 NBE=    12 NFC=     0 NFV=     0
 NROrb=    111 NOA=    12 NOB=    12 NVA=    99 NVB=    99
 Leave Link  801 at Tue Jan  3 09:04:28 2023, MaxMem=   536870912 cpu:               0.1 elap:               0.0
 (Enter /opt/software/gaussian/g16.c01/l914.exe)
 UHF ground state
 Doing stability rather than CIS.
 Keep R1 and R2 ints in memory in canonical form, NReq=42865376.
 FoFCou: FMM=F IPFlag=           0 FMFlag=           0 FMFlg1=           0
         NFxFlg=           0 DoJE=F BraDBF=F KetDBF=F FulRan=T
         wScrn=  0.000000 ICntrl=       600 IOpCl=  0 I1Cent=           0 NGrid=           0
         NMat0=    1 NMatS0=   6216 NMatT0=    0 NMatD0=    1 NMtDS0=    0 NMtDT0=    0
 Symmetry not used in FoFCou.
 Two-electron integral symmetry not used.
 MDV=   536870912 DFT=T DoStab=T Mixed=T DoRPA=F DoScal=F NonHer=F
 Making orbital integer symmetry assigments:
    12 initial guesses have been made.
 Convergence on wavefunction:    0.001000000000000
 Davidson Disk Diagonalization:  ConvIn= 1.00D-03 SkipCon=T Conv= 1.00D-03.
 Max sub-space:  2000 roots to seek:    12 dimension of matrix:         2376
 Iteration     1 Dimension    12 NMult     0 NNew     12
 CISAX will form    12 AO SS matrices at one time.
 NMat=    12 NSing=    12 JSym2X= 0.
 Excitation Energies [eV] at current iteration:
 Root      1 :     1.712072416963311
 Root      2 :     3.832718373799538
 Root      3 :     4.607989172263305
 Root      4 :     5.727604357104889
 Root      5 :     5.847088984427975
 Root      6 :     6.142685189267298
 Root      7 :     6.868683027962125
 Root      8 :     7.113193634861418
 Root      9 :     7.655945329085880
 Root     10 :     8.107857646124257
 Root     11 :     8.144974061781317
 Root     12 :    14.803988917551976
 Iteration     2 Dimension    24 NMult    12 NNew     12
 CISAX will form    12 AO SS matrices at one time.
 NMat=    12 NSing=    12 JSym2X= 0.
 Root      1 not converged, maximum delta is    0.090916615141487
 Excitation Energies [eV] at current iteration:
 Root      1 :     1.288999930202594   Change is   -0.423072486760716
 Root      2 :     3.655988895233966   Change is   -0.176729478565573
 Root      3 :     4.562457325208478   Change is   -0.045531847054826
 Root      4 :     5.654935569845341   Change is   -0.072668787259548
 Root      5 :     5.831114664999736   Change is   -0.015974319428240
 Root      6 :     5.948153049028803   Change is   -0.194532140238495
 Root      7 :     6.536915894895995   Change is   -0.331767133066130
 Root      8 :     6.936712082077774   Change is   -0.176481552783643
 Root      9 :     7.538495111625981   Change is   -0.117450217459900
 Root     10 :     7.770104069153640   Change is   -0.374869992627678
 Root     11 :     8.013472257489376   Change is   -0.094385388634881
 Root     12 :     9.650721192274723   Change is   -5.153267725277253
 Iteration     3 Dimension    27 NMult    24 NNew      3
 CISAX will form     3 AO SS matrices at one time.
 NMat=     3 NSing=     3 JSym2X= 0.
 Root      1 not converged, maximum delta is    0.012775275252867
 Excitation Energies [eV] at current iteration:
 Root      1 :     1.280137597045229   Change is   -0.008862333157365
 Root      2 :     3.654656656269900   Change is   -0.001332238964066
 Root      3 :     4.561242741756288   Change is   -0.001214583452190
 Iteration     4 Dimension    30 NMult    27 NNew      3
 CISAX will form     3 AO SS matrices at one time.
 NMat=     3 NSing=     3 JSym2X= 0.
 Root      1 not converged, maximum delta is    0.003390445754513
 Excitation Energies [eV] at current iteration:
 Root      1 :     1.279704482205534   Change is   -0.000433114839695
 Root      2 :     3.654627476903530   Change is   -0.000029179366370
 Root      3 :     4.561171839085388   Change is   -0.000070902670901
 Iteration     5 Dimension    33 NMult    30 NNew      3
 CISAX will form     3 AO SS matrices at one time.
 NMat=     3 NSing=     3 JSym2X= 0.
 Root      1 has converged.
 Excitation Energies [eV] at current iteration:
 Root      1 :     1.279693095836755   Change is   -0.000011386368779
 Root      2 :     3.654626747318813   Change is   -0.000000729584718
 Root      3 :     4.561168892263748   Change is   -0.000002946821640
 Convergence achieved on expansion vectors.
 ***********************************************************************
 Stability analysis using <AA,BB:AA,BB> singles matrix:
 ***********************************************************************
 1PDM for each excited state written to RWF  633
 Ground to excited state transition densities written to RWF  633

 Eigenvectors of the stability matrix:
 
 Excited state symmetry could not be determined.
 Eigenvector   1:  3.000-?Sym  Eigenvalue= 0.0470279  <S**2>=2.000
     12A -> 13A       -0.69440
     12B -> 13B        0.69440
 The wavefunction is stable under the perturbations considered.
 Leave Link  914 at Tue Jan  3 09:05:20 2023, MaxMem=   536870912 cpu:             103.2 elap:              51.6
 (Enter /opt/software/gaussian/g16.c01/l508.exe)
 The wavefunction is already stable.
 Leave Link  508 at Tue Jan  3 09:05:20 2023, MaxMem=   536870912 cpu:               0.0 elap:               0.0
 (Enter /opt/software/gaussian/g16.c01/l601.exe)
 Copying SCF densities to generalized density rwf, IOpCl= 1 IROHF=0.

 **********************************************************************

            Population analysis using the SCF Density.

 **********************************************************************

 Alpha  occ. eigenvalues --  -19.11340 -14.46852 -10.22184  -1.12481  -0.87105
 Alpha  occ. eigenvalues --   -0.67060  -0.55745  -0.49264  -0.46418  -0.42965
 Alpha  occ. eigenvalues --   -0.26825  -0.24447
 Alpha virt. eigenvalues --   -0.04306   0.01361   0.06825   0.10022   0.14243
 Alpha virt. eigenvalues --    0.16198   0.21136   0.21295   0.29895   0.34556
 Alpha virt. eigenvalues --    0.36454   0.41031   0.41546   0.44929   0.46278
 Alpha virt. eigenvalues --    0.48795   0.51079   0.52907   0.55690   0.60813
 Alpha virt. eigenvalues --    0.67896   0.74933   0.76117   0.91443   0.97702
 Alpha virt. eigenvalues --    1.02373   1.03603   1.20972   1.30139   1.34416
 Alpha virt. eigenvalues --    1.41503   1.41662   1.51390   1.53414   1.55304
 Alpha virt. eigenvalues --    1.57387   1.71504   1.74789   1.75597   1.80259
 Alpha virt. eigenvalues --    1.82431   1.92747   2.01397   2.04144   2.13816
 Alpha virt. eigenvalues --    2.16212   2.18290   2.25990   2.38766   2.47394
 Alpha virt. eigenvalues --    2.50342   2.58932   2.62905   2.71719   2.77824
 Alpha virt. eigenvalues --    2.81867   2.87741   2.90988   2.96240   2.99017
 Alpha virt. eigenvalues --    3.02378   3.10973   3.20792   3.27812   3.29253
 Alpha virt. eigenvalues --    3.43279   3.56351   3.64499   3.76587   3.91943
 Alpha virt. eigenvalues --    4.08741   4.09716   4.21443   4.40413   4.57771
 Alpha virt. eigenvalues --    4.67528   4.74464   4.75517   4.85579   4.92358
 Alpha virt. eigenvalues --    5.03779   5.14712   5.19774   5.26919   5.36821
 Alpha virt. eigenvalues --    5.39665   5.58520   5.77311   6.25473   6.30460
 Alpha virt. eigenvalues --    6.33980   6.51276   6.84621   6.98859   7.08435
 Alpha virt. eigenvalues --    7.36368  22.35603  31.99832  43.85892
  Beta  occ. eigenvalues --  -19.11340 -14.46852 -10.22184  -1.12481  -0.87105
  Beta  occ. eigenvalues --   -0.67060  -0.55745  -0.49264  -0.46418  -0.42965
  Beta  occ. eigenvalues --   -0.26825  -0.24447
  Beta virt. eigenvalues --   -0.04306   0.01361   0.06825   0.10022   0.14243
  Beta virt. eigenvalues --    0.16198   0.21136   0.21295   0.29895   0.34556
  Beta virt. eigenvalues --    0.36454   0.41031   0.41546   0.44929   0.46278
  Beta virt. eigenvalues --    0.48795   0.51079   0.52907   0.55690   0.60813
  Beta virt. eigenvalues --    0.67896   0.74933   0.76117   0.91443   0.97702
  Beta virt. eigenvalues --    1.02373   1.03603   1.20972   1.30139   1.34416
  Beta virt. eigenvalues --    1.41503   1.41662   1.51390   1.53414   1.55304
  Beta virt. eigenvalues --    1.57387   1.71504   1.74789   1.75597   1.80259
  Beta virt. eigenvalues --    1.82431   1.92747   2.01397   2.04144   2.13816
  Beta virt. eigenvalues --    2.16212   2.18290   2.25990   2.38766   2.47394
  Beta virt. eigenvalues --    2.50342   2.58932   2.62905   2.71719   2.77824
  Beta virt. eigenvalues --    2.81867   2.87741   2.90988   2.96240   2.99017
  Beta virt. eigenvalues --    3.02378   3.10973   3.20792   3.27812   3.29253
  Beta virt. eigenvalues --    3.43279   3.56351   3.64499   3.76587   3.91943
  Beta virt. eigenvalues --    4.08741   4.09716   4.21443   4.40413   4.57771
  Beta virt. eigenvalues --    4.67528   4.74464   4.75517   4.85579   4.92358
  Beta virt. eigenvalues --    5.03779   5.14712   5.19774   5.26919   5.36821
  Beta virt. eigenvalues --    5.39665   5.58520   5.77311   6.25473   6.30460
  Beta virt. eigenvalues --    6.33980   6.51276   6.84621   6.98859   7.08435
  Beta virt. eigenvalues --    7.36368  22.35603  31.99832  43.85892
          Condensed to atoms (all electrons):
               1          2          3          4          5          6
     1  C    5.124124   0.496455  -0.084105  -0.106693   0.371659   0.401463
     2  N    0.496455   5.765255   0.349574   0.292766  -0.028490  -0.030018
     3  H   -0.084105   0.349574   0.558126  -0.055112   0.004917   0.008664
     4  O   -0.106693   0.292766  -0.055112   8.291250   0.008560   0.005213
     5  H    0.371659  -0.028490   0.004917   0.008560   0.542324  -0.022924
     6  H    0.401463  -0.030018   0.008664   0.005213  -0.022924   0.495062
          Atomic-Atomic Spin Densities.
               1          2          3          4          5          6
     1  C    0.000000  -0.000000   0.000000   0.000000   0.000000   0.000000
     2  N   -0.000000  -0.000000  -0.000000   0.000000  -0.000000  -0.000000
     3  H    0.000000  -0.000000  -0.000000  -0.000000  -0.000000  -0.000000
     4  O    0.000000   0.000000  -0.000000  -0.000000  -0.000000   0.000000
     5  H    0.000000  -0.000000  -0.000000  -0.000000   0.000000   0.000000
     6  H    0.000000  -0.000000  -0.000000   0.000000   0.000000  -0.000000
 Mulliken charges and spin densities:
               1          2
     1  C   -0.202903   0.000000
     2  N    0.154457  -0.000000
     3  H    0.217937  -0.000000
     4  O   -0.435984  -0.000000
     5  H    0.123954   0.000000
     6  H    0.142539  -0.000000
 Sum of Mulliken charges =  -0.00000   0.00000
 Mulliken charges and spin densities with hydrogens summed into heavy atoms:
               1          2
     1  C    0.063590   0.000000
     2  N    0.372394  -0.000000
     4  O   -0.435984  -0.000000
 Electronic spatial extent (au):  <R**2>=            516.1214
 Charge=             -0.0000 electrons
 Dipole moment (field-independent basis, Debye):
    X=             -1.9503    Y=              0.6620    Z=             -2.8705  Tot=              3.5329
 Quadrupole moment (field-independent basis, Debye-Ang):
   XX=            -25.9042   YY=            -19.2060   ZZ=            -18.9836
   XY=              2.1805   XZ=             -9.1301   YZ=              0.0682
 Traceless Quadrupole moment (field-independent basis, Debye-Ang):
   XX=             -4.5396   YY=              2.1586   ZZ=              2.3810
   XY=              2.1805   XZ=             -9.1301   YZ=              0.0682
 Octapole moment (field-independent basis, Debye-Ang**2):
  XXX=           -134.6341  YYY=              6.7015  ZZZ=            -23.2105  XYY=            -36.7069
  XXY=              8.8418  XXZ=            -34.0325  XZZ=            -40.6962  YZZ=              3.1147
  YYZ=             -6.6392  XYZ=              1.3617
 Hexadecapole moment (field-independent basis, Debye-Ang**3):
 XXXX=           -627.1549 YYYY=            -22.5844 ZZZZ=            -68.6705 XXXY=             36.9529
 XXXZ=           -137.8509 YYYX=             17.1375 YYYZ=              6.4494 ZZZX=            -65.9056
 ZZZY=              6.6386 XXYY=            -93.6637 XXZZ=           -114.3963 YYZZ=            -15.2442
 XXYZ=              6.5105 YYXZ=            -19.1434 ZZXY=              8.2268
 N-N= 7.235265144198D+01 E-N=-5.429405459596D+02  KE= 1.691311245170D+02
                          Isotropic Fermi Contact Couplings
        Atom                 a.u.       MegaHertz       Gauss      10(-4) cm-1
     1  C(13)              0.00000       0.00000       0.00000       0.00000
     2  N(14)              0.00000       0.00000       0.00000       0.00000
     3  H(1)               0.00000       0.00000       0.00000       0.00000
     4  O(17)              0.00000      -0.00000      -0.00000      -0.00000
     5  H(1)              -0.00000      -0.00000      -0.00000      -0.00000
     6  H(1)               0.00000       0.00000       0.00000       0.00000
 --------------------------------------------------------
       Center         ----  Spin Dipole Couplings  ----
                      3XX-RR        3YY-RR        3ZZ-RR
 --------------------------------------------------------
     1   Atom        0.000000      0.000000      0.000000
     2   Atom        0.000000      0.000000      0.000000
     3   Atom        0.000000      0.000000      0.000000
     4   Atom        0.000000      0.000000      0.000000
     5   Atom        0.000000      0.000000      0.000000
     6   Atom        0.000000      0.000000      0.000000
 --------------------------------------------------------
                        XY            XZ            YZ
 --------------------------------------------------------
     1   Atom        0.000000      0.000000      0.000000
     2   Atom        0.000000      0.000000      0.000000
     3   Atom        0.000000      0.000000      0.000000
     4   Atom        0.000000      0.000000      0.000000
     5   Atom        0.000000      0.000000      0.000000
     6   Atom        0.000000      0.000000      0.000000
 --------------------------------------------------------


 ---------------------------------------------------------------------------------
              Anisotropic Spin Dipole Couplings in Principal Axis System
 ---------------------------------------------------------------------------------

       Atom             a.u.   MegaHertz   Gauss  10(-4) cm-1        Axes

              Baa     0.0000     0.000     0.000     0.000  1.0000  0.0000  0.0000
     1 C(13)  Bbb     0.0000     0.000     0.000     0.000 -0.0000  1.0000  0.0000
              Bcc     0.0000     0.000     0.000     0.000  0.0000  0.0000  1.0000
 
              Baa     0.0000     0.000     0.000     0.000  1.0000  0.0000  0.0000
     2 N(14)  Bbb     0.0000     0.000     0.000     0.000 -0.0000  1.0000  0.0000
              Bcc     0.0000     0.000     0.000     0.000  0.0000  0.0000  1.0000
 
              Baa     0.0000     0.000     0.000     0.000  1.0000  0.0000  0.0000
     3 H(1)   Bbb     0.0000     0.000     0.000     0.000 -0.0000  1.0000  0.0000
              Bcc     0.0000     0.000     0.000     0.000  0.0000  0.0000  1.0000
 
              Baa     0.0000    -0.000    -0.000    -0.000  1.0000  0.0000  0.0000
     4 O(17)  Bbb     0.0000    -0.000    -0.000    -0.000 -0.0000  1.0000  0.0000
              Bcc     0.0000    -0.000    -0.000    -0.000  0.0000  0.0000  1.0000
 
              Baa     0.0000     0.000     0.000     0.000  1.0000  0.0000  0.0000
     5 H(1)   Bbb     0.0000     0.000     0.000     0.000 -0.0000  1.0000  0.0000
              Bcc     0.0000     0.000     0.000     0.000  0.0000  0.0000  1.0000
 
              Baa     0.0000     0.000     0.000     0.000  1.0000  0.0000  0.0000
     6 H(1)   Bbb     0.0000     0.000     0.000     0.000 -0.0000  1.0000  0.0000
              Bcc     0.0000     0.000     0.000     0.000  0.0000  0.0000  1.0000
 

 ---------------------------------------------------------------------------------

 No NMR shielding tensors so no spin-rotation constants.
 Leave Link  601 at Tue Jan  3 09:05:20 2023, MaxMem=   536870912 cpu:               0.3 elap:               0.2
 (Enter /opt/software/gaussian/g16.c01/l9999.exe)

 Test job not archived.
 1\1\GINC-GRA704\Stability\UB3LYP\Gen\C1H3N1O1\BHAVUK\03-Jan-2023\0\\#p
  ub3lyp/gen stable=opt scf=(maxcycle=900,verytightlineq,xqc) integral=
 grid=ultrafine symmetry=None density=current iop(99/18=-1) output=wfn\
 \0002_q000_m01_k00_opt_uwb97xd_def2svpd/0002_q000_m01_k00_force_ub3lyp
 _def2tzvp stable-force\\0,1\C,0,0.9341359983,-0.0506101672,0.053391663
 3\N,0,2.2303561638,-0.0607282973,0.0971529523\H,0,2.7104299206,0.14455
 51233,-0.7929401941\O,0,2.9768985022,-0.2863976361,1.0755945973\H,0,0.
 4602474304,0.169181767,-0.8998201368\H,0,0.383341983,-0.2613407898,0.9
 669611147\\Version=ES64L-G16RevC.01\HF=-169.8752092\S2=0.\S2-1=0.\S2A=
 0.\RMSD=3.301e-09\Dipole=-0.7672979,0.2604415,-1.1293385\Quadrupole=-3
 .3750519,1.6048444,1.7702075,1.6211148,-6.7879895,0.050734\PG=Unknown\
 \@

 Writing a WFN file to "0002_q000_m01_k00_force_ub3lyp_def2tzvp.wfn"


 THE PROGRESS OF RIVERS TO THE SEA IS NOT AS RAPID
 AS THAT OF MAN TO ERROR.
                                              -- VOLTAIRE
 Job cpu time:       0 days  0 hours  2 minutes  3.6 seconds.
 Elapsed time:       0 days  0 hours  1 minutes  2.0 seconds.
 File lengths (MBytes):  RWF=     80 Int=      0 D2E=      0 Chk=      3 Scr=      1
 Normal termination of Gaussian 16 at Tue Jan  3 09:05:21 2023.
 Initial command:
 /opt/software/gaussian/g16.c01/l1.exe "/localscratch/bhavuk.2151356.0/Gau-18097.inp" -scrdir="/localscratch/bhavuk.2151356.0/"
 Entering Link 1 = /opt/software/gaussian/g16.c01/l1.exe PID=     19527.
  
 Copyright (c) 1988-2019, Gaussian, Inc.  All Rights Reserved.
  
 This is part of the Gaussian(R) 16 program.  It is based on
 the Gaussian(R) 09 system (copyright 2009, Gaussian, Inc.),
 the Gaussian(R) 03 system (copyright 2003, Gaussian, Inc.),
 the Gaussian(R) 98 system (copyright 1998, Gaussian, Inc.),
 the Gaussian(R) 94 system (copyright 1995, Gaussian, Inc.),
 the Gaussian 92(TM) system (copyright 1992, Gaussian, Inc.),
 the Gaussian 90(TM) system (copyright 1990, Gaussian, Inc.),
 the Gaussian 88(TM) system (copyright 1988, Gaussian, Inc.),
 the Gaussian 86(TM) system (copyright 1986, Carnegie Mellon
 University), and the Gaussian 82(TM) system (copyright 1983,
 Carnegie Mellon University). Gaussian is a federally registered
 trademark of Gaussian, Inc.
  
 This software contains proprietary and confidential information,
 including trade secrets, belonging to Gaussian, Inc.
  
 This software is provided under written license and may be
 used, copied, transmitted, or stored only in accord with that
 written license.
  
 The following legend is applicable only to US Government
 contracts under FAR:
  
                    RESTRICTED RIGHTS LEGEND
  
 Use, reproduction and disclosure by the US Government is
 subject to restrictions as set forth in subparagraphs (a)
 and (c) of the Commercial Computer Software - Restricted
 Rights clause in FAR 52.227-19.
  
 Gaussian, Inc.
 340 Quinnipiac St., Bldg. 40, Wallingford CT 06492
  
  
 ---------------------------------------------------------------
 Warning -- This program may not be used in any manner that
 competes with the business of Gaussian, Inc. or will provide
 assistance to any competitor of Gaussian, Inc.  The licensee
 of this program is prohibited from giving any competitor of
 Gaussian, Inc. access to this program.  By using this program,
 the user acknowledges that Gaussian, Inc. is engaged in the
 business of creating and licensing software in the field of
 computational chemistry and represents and warrants to the
 licensee that it is not a competitor of Gaussian, Inc. and that
 it will not use this program in any manner prohibited above.
 ---------------------------------------------------------------
  

 Cite this work as:
 Gaussian 16, Revision C.01,
 M. J. Frisch, G. W. Trucks, H. B. Schlegel, G. E. Scuseria, 
 M. A. Robb, J. R. Cheeseman, G. Scalmani, V. Barone, 
 G. A. Petersson, H. Nakatsuji, X. Li, M. Caricato, A. V. Marenich, 
 J. Bloino, B. G. Janesko, R. Gomperts, B. Mennucci, H. P. Hratchian, 
 J. V. Ortiz, A. F. Izmaylov, J. L. Sonnenberg, D. Williams-Young, 
 F. Ding, F. Lipparini, F. Egidi, J. Goings, B. Peng, A. Petrone, 
 T. Henderson, D. Ranasinghe, V. G. Zakrzewski, J. Gao, N. Rega, 
 G. Zheng, W. Liang, M. Hada, M. Ehara, K. Toyota, R. Fukuda, 
 J. Hasegawa, M. Ishida, T. Nakajima, Y. Honda, O. Kitao, H. Nakai, 
 T. Vreven, K. Throssell, J. A. Montgomery, Jr., J. E. Peralta, 
 F. Ogliaro, M. J. Bearpark, J. J. Heyd, E. N. Brothers, K. N. Kudin, 
 V. N. Staroverov, T. A. Keith, R. Kobayashi, J. Normand, 
 K. Raghavachari, A. P. Rendell, J. C. Burant, S. S. Iyengar, 
 J. Tomasi, M. Cossi, J. M. Millam, M. Klene, C. Adamo, R. Cammi, 
 J. W. Ochterski, R. L. Martin, K. Morokuma, O. Farkas, 
 J. B. Foresman, and D. J. Fox, Gaussian, Inc., Wallingford CT, 2019.
 
 ******************************************
 Gaussian 16:  ES64L-G16RevC.01  3-Jul-2019
                 3-Jan-2023 
 ******************************************
 %chk=0002_q000_m01_k00_force_ub3lyp_def2tzvp.chk
 %nprocshared=2
 Will use up to    2 processors via shared memory.
 %mem=4GB
 ----------------------------------------------------------------------
 #p ub3lyp/chkbasis force guess=read geom=check scf=(maxcycle=900,veryt
 ightlineq,xqc) integral=grid=ultrafine symmetry=None density=current p
 op=(cm5,hlygat,mbs,npa) output=wfx
 ----------------------------------------------------------------------
 1/10=7,29=2,30=1,38=1/1,3;
 2/12=2,15=3,40=1/2;
 3/5=7,6=2,11=2,14=-4,25=1,30=1,67=1,71=1,74=-5,75=-5,116=2/1,2,3;
 4/5=1/1;
 5/5=2,7=900,8=3,13=1,17=3,38=6/2,8;
 6/7=2,8=2,9=2,10=2,15=8,20=15,22=-1,27=100,28=1,40=-1,79=1/1,2,7;
 7/29=1,30=1/1,2,3,16;
 1/10=7,30=1/3;
 99/6=200/99;
 Leave Link    1 at Tue Jan  3 09:05:21 2023, MaxMem=   536870912 cpu:               0.2 elap:               0.1
 (Enter /opt/software/gaussian/g16.c01/l101.exe)
 ----------------------------------------------------------------------
 0002_q000_m01_k00_opt_uwb97xd_def2svpd/0002_q000_m01_k00_force_ub3lyp_
 def2tzvp stable-force
 ----------------------------------------------------------------------
 Structure from the checkpoint file:  "0002_q000_m01_k00_force_ub3lyp_def2tzvp.chk"
 Charge =  0 Multiplicity = 1
 Z-Matrix found in chk file.
 C,0,0.9341359983,-0.0506101672,0.0533916633
 N,0,2.2303561638,-0.0607282973,0.0971529523
 H,0,2.7104299206,0.1445551233,-0.7929401941
 O,0,2.9768985022,-0.2863976361,1.0755945973
 H,0,0.4602474304,0.169181767,-0.8998201368
 H,0,0.383341983,-0.2613407898,0.9669611147
 Recover connectivity data from disk.
 ITRead=  0  0  0  0  0  0
 MicOpt= -1 -1 -1 -1 -1 -1
 NAtoms=      6 NQM=        6 NQMF=       0 NMMI=      0 NMMIF=      0
                NMic=       0 NMicF=      0.
                    Isotopes and Nuclear Properties:
 (Nuclear quadrupole moments (NQMom) in fm**2, nuclear magnetic moments (NMagM)
  in nuclear magnetons)

  Atom         1           2           3           4           5           6
 IAtWgt=          12          14           1          16           1           1
 AtmWgt=  12.0000000  14.0030740   1.0078250  15.9949146   1.0078250   1.0078250
 NucSpn=           0           2           1           0           1           1
 AtZEff=   3.6000000   4.5500000   1.0000000   5.6000000   1.0000000   1.0000000
 NQMom=    0.0000000   2.0440000   0.0000000   0.0000000   0.0000000   0.0000000
 NMagM=    0.0000000   0.4037610   2.7928460   0.0000000   2.7928460   2.7928460
 AtZNuc=   6.0000000   7.0000000   1.0000000   8.0000000   1.0000000   1.0000000
 Leave Link  101 at Tue Jan  3 09:05:21 2023, MaxMem=   536870912 cpu:               0.4 elap:               0.2
 (Enter /opt/software/gaussian/g16.c01/l103.exe)

 GradGradGradGradGradGradGradGradGradGradGradGradGradGradGradGradGradGrad
 Berny optimization.
 Initialization pass.
 Trust Radius=3.00D-01 FncErr=1.00D-07 GrdErr=1.00D-07 EigMax=2.50D+02 EigMin=1.00D-04
 Number of steps in this run=      2 maximum allowed number of steps=      2.
 GradGradGradGradGradGradGradGradGradGradGradGradGradGradGradGradGradGrad

 Leave Link  103 at Tue Jan  3 09:05:21 2023, MaxMem=   536870912 cpu:               0.1 elap:               0.0
 (Enter /opt/software/gaussian/g16.c01/l202.exe)
                          Input orientation:                          
 ---------------------------------------------------------------------
 Center     Atomic      Atomic             Coordinates (Angstroms)
 Number     Number       Type             X           Y           Z
 ---------------------------------------------------------------------
      1          6           0        0.934136   -0.050610    0.053392
      2          7           0        2.230356   -0.060728    0.097153
      3          1           0        2.710430    0.144555   -0.792940
      4          8           0        2.976899   -0.286398    1.075595
      5          1           0        0.460247    0.169182   -0.899820
      6          1           0        0.383342   -0.261341    0.966961
 ---------------------------------------------------------------------
                    Distance matrix (angstroms):
                    1          2          3          4          5
     1  C    0.000000
     2  N    1.296998   0.000000
     3  H    1.977268   1.031929   0.000000
     4  O    2.296383   1.251239   1.936013   0.000000
     5  H    1.086964   2.044529   2.252854   3.231617   0.000000
     6  H    1.087378   2.051408   2.945733   2.595952   1.917325
                    6
     6  H    0.000000
 Symmetry turned off by external request.
 Stoichiometry    CH3NO
 Rotational constants (GHZ):          75.8819039          11.9122881          10.2959784
 Leave Link  202 at Tue Jan  3 09:05:21 2023, MaxMem=   536870912 cpu:               0.0 elap:               0.0
 (Enter /opt/software/gaussian/g16.c01/l301.exe)
 Basis read from chk: "0002_q000_m01_k00_force_ub3lyp_def2tzvp.chk" (5D, 7F)
 No pseudopotential information found on chk file.
   111 basis functions,   177 primitive gaussians,   126 cartesian basis functions
    12 alpha electrons       12 beta electrons
       nuclear repulsion energy        72.3526514420 Hartrees.
 IExCor=  402 DFT=T Ex+Corr=B3LYP ExCW=0 ScaHFX=  0.200000
 ScaDFX=  0.800000  0.720000  1.000000  0.810000 ScalE2=  1.000000  1.000000
 IRadAn=      5 IRanWt=     -1 IRanGd=            0 ICorTp=0 IEmpDi=  4
 NAtoms=    6 NActive=    6 NUniq=    6 SFac= 1.00D+00 NAtFMM=   60 NAOKFM=F Big=F
 Integral buffers will be    131072 words long.
 Raffenetti 2 integral format.
 Two-electron integral symmetry is turned off.
 No density basis found on file  20724.
 Leave Link  301 at Tue Jan  3 09:05:21 2023, MaxMem=   536870912 cpu:               0.1 elap:               0.1
 (Enter /opt/software/gaussian/g16.c01/l302.exe)
 NPDir=0 NMtPBC=     1 NCelOv=     1 NCel=       1 NClECP=     1 NCelD=      1
         NCelK=      1 NCelE2=     1 NClLst=     1 CellRange=     0.0.
 One-electron integrals computed using PRISM.
 NBasis=   111 RedAO= T EigKep=  7.22D-04  NBF=   111
 NBsUse=   111 1.00D-06 EigRej= -1.00D+00 NBFU=   111
 Precomputing XC quadrature grid using
 IXCGrd= 4 IRadAn=           5 IRanWt=          -1 IRanGd=           0 AccXCQ= 0.00D+00.
 Generated NRdTot=       0 NPtTot=           0 NUsed=           0 NTot=          32
 NSgBfM=   126   126   126   126   126 MxSgAt=     6 MxSgA2=     6.
 Leave Link  302 at Tue Jan  3 09:05:21 2023, MaxMem=   536870912 cpu:               0.4 elap:               0.2
 (Enter /opt/software/gaussian/g16.c01/l303.exe)
 DipDrv:  MaxL=1.
 Leave Link  303 at Tue Jan  3 09:05:21 2023, MaxMem=   536870912 cpu:               0.1 elap:               0.0
 (Enter /opt/software/gaussian/g16.c01/l401.exe)
 Initial guess from the checkpoint file:  "0002_q000_m01_k00_force_ub3lyp_def2tzvp.chk"
 B after Tr=     0.000000    0.000000    0.000000
         Rot=    1.000000    0.000000    0.000000    0.000000 Ang=   0.00 deg.
 Guess basis will be translated and rotated to current coordinates.
 JPrj=2 DoOrth=T DoCkMO=T.
 Initial guess <Sx>= 0.0000 <Sy>= 0.0000 <Sz>= 0.0000 <S**2>=-0.0000 S=-0.0000
 Leave Link  401 at Tue Jan  3 09:05:21 2023, MaxMem=   536870912 cpu:               0.2 elap:               0.1
 (Enter /opt/software/gaussian/g16.c01/l502.exe)
 Keep R1 and R2 ints in memory in canonical form, NReq=40643075.
 FoFCou: FMM=F IPFlag=           0 FMFlag=           0 FMFlg1=           0
         NFxFlg=           0 DoJE=F BraDBF=F KetDBF=F FulRan=T
         wScrn=  0.000000 ICntrl=       600 IOpCl=  0 I1Cent=           0 NGrid=           0
         NMat0=    1 NMatS0=   6216 NMatT0=    0 NMatD0=    1 NMtDS0=    0 NMtDT0=    0
 Symmetry not used in FoFCou.
 Two-electron integral symmetry not used.
 UHF open shell SCF:
 Using DIIS extrapolation, IDIIS=  1040.
 NGot=   536870912 LenX=   498192424 LenY=   498176107
 Requested convergence on RMS density matrix=1.00D-08 within 128 cycles.
 Requested convergence on MAX density matrix=1.00D-06.
 Requested convergence on             energy=1.00D-06.
 No special actions if energy rises.

 Cycle   1  Pass 1  IDiag  1:
 E= -169.875209200104    
 DIIS: error= 1.12D-08 at cycle   1 NSaved=   1.
 NSaved= 1 IEnMin= 1 EnMin= -169.875209200104     IErMin= 1 ErrMin= 1.12D-08
 ErrMax= 1.12D-08  0.00D+00 EMaxC= 1.00D-01 BMatC= 6.01D-14 BMatP= 6.01D-14
 IDIUse=1 WtCom= 1.00D+00 WtEn= 0.00D+00
 Coeff-Com:  0.100D+01
 Coeff:      0.100D+01
 Gap=     0.201 Goal=   None    Shift=    0.000
 Gap=     0.201 Goal=   None    Shift=    0.000
 RMSDP=1.70D-09 MaxDP=2.65D-08              OVMax= 6.91D-08

 SCF Done:  E(UB3LYP) =  -169.875209200     A.U. after    1 cycles
            NFock=  1  Conv=0.17D-08     -V/T= 2.0044
 <Sx>= 0.0000 <Sy>= 0.0000 <Sz>= 0.0000 <S**2>=-0.0000 S=-0.0000
 <L.S>=  0.00000000000    
 KE= 1.691311224425D+02 PE=-5.429405438851D+02 EE= 1.315815608004D+02
 Annihilation of the first spin contaminant:
 S**2 before annihilation     0.0000,   after    -0.0000
 Leave Link  502 at Tue Jan  3 09:05:23 2023, MaxMem=   536870912 cpu:               3.6 elap:               1.8
 (Enter /opt/software/gaussian/g16.c01/l508.exe)
 QCSCF skips out because SCF is already converged.
 Leave Link  508 at Tue Jan  3 09:05:23 2023, MaxMem=   536870912 cpu:               0.0 elap:               0.0
 (Enter /opt/software/gaussian/g16.c01/l601.exe)
 Copying SCF densities to generalized density rwf, IOpCl= 1 IROHF=0.

 **********************************************************************

            Population analysis using the SCF Density.

 **********************************************************************

 Alpha  occ. eigenvalues --  -19.11340 -14.46852 -10.22184  -1.12481  -0.87105
 Alpha  occ. eigenvalues --   -0.67060  -0.55745  -0.49264  -0.46418  -0.42965
 Alpha  occ. eigenvalues --   -0.26825  -0.24447
 Alpha virt. eigenvalues --   -0.04306   0.01361   0.06825   0.10022   0.14243
 Alpha virt. eigenvalues --    0.16198   0.21136   0.21295   0.29895   0.34556
 Alpha virt. eigenvalues --    0.36454   0.41031   0.41546   0.44929   0.46278
 Alpha virt. eigenvalues --    0.48795   0.51079   0.52907   0.55690   0.60813
 Alpha virt. eigenvalues --    0.67896   0.74933   0.76117   0.91443   0.97702
 Alpha virt. eigenvalues --    1.02373   1.03603   1.20972   1.30139   1.34416
 Alpha virt. eigenvalues --    1.41503   1.41662   1.51390   1.53414   1.55304
 Alpha virt. eigenvalues --    1.57387   1.71504   1.74789   1.75597   1.80259
 Alpha virt. eigenvalues --    1.82431   1.92747   2.01397   2.04144   2.13816
 Alpha virt. eigenvalues --    2.16212   2.18290   2.25990   2.38766   2.47394
 Alpha virt. eigenvalues --    2.50342   2.58932   2.62905   2.71719   2.77824
 Alpha virt. eigenvalues --    2.81867   2.87741   2.90988   2.96240   2.99017
 Alpha virt. eigenvalues --    3.02378   3.10973   3.20792   3.27812   3.29253
 Alpha virt. eigenvalues --    3.43279   3.56351   3.64499   3.76587   3.91943
 Alpha virt. eigenvalues --    4.08741   4.09716   4.21443   4.40413   4.57771
 Alpha virt. eigenvalues --    4.67528   4.74464   4.75517   4.85579   4.92358
 Alpha virt. eigenvalues --    5.03779   5.14712   5.19774   5.26919   5.36821
 Alpha virt. eigenvalues --    5.39665   5.58520   5.77311   6.25473   6.30460
 Alpha virt. eigenvalues --    6.33980   6.51276   6.84621   6.98859   7.08435
 Alpha virt. eigenvalues --    7.36368  22.35603  31.99832  43.85892
  Beta  occ. eigenvalues --  -19.11340 -14.46852 -10.22184  -1.12481  -0.87105
  Beta  occ. eigenvalues --   -0.67060  -0.55745  -0.49264  -0.46418  -0.42965
  Beta  occ. eigenvalues --   -0.26825  -0.24447
  Beta virt. eigenvalues --   -0.04306   0.01361   0.06825   0.10022   0.14243
  Beta virt. eigenvalues --    0.16198   0.21136   0.21295   0.29895   0.34556
  Beta virt. eigenvalues --    0.36454   0.41031   0.41546   0.44929   0.46278
  Beta virt. eigenvalues --    0.48795   0.51079   0.52907   0.55690   0.60813
  Beta virt. eigenvalues --    0.67896   0.74933   0.76117   0.91443   0.97702
  Beta virt. eigenvalues --    1.02373   1.03603   1.20972   1.30139   1.34416
  Beta virt. eigenvalues --    1.41503   1.41662   1.51390   1.53414   1.55304
  Beta virt. eigenvalues --    1.57387   1.71504   1.74789   1.75597   1.80259
  Beta virt. eigenvalues --    1.82431   1.92747   2.01397   2.04144   2.13816
  Beta virt. eigenvalues --    2.16212   2.18290   2.25990   2.38766   2.47394
  Beta virt. eigenvalues --    2.50342   2.58932   2.62905   2.71719   2.77824
  Beta virt. eigenvalues --    2.81867   2.87741   2.90988   2.96240   2.99017
  Beta virt. eigenvalues --    3.02378   3.10973   3.20792   3.27812   3.29253
  Beta virt. eigenvalues --    3.43279   3.56351   3.64499   3.76587   3.91943
  Beta virt. eigenvalues --    4.08741   4.09716   4.21443   4.40413   4.57771
  Beta virt. eigenvalues --    4.67528   4.74464   4.75517   4.85579   4.92358
  Beta virt. eigenvalues --    5.03779   5.14712   5.19774   5.26919   5.36821
  Beta virt. eigenvalues --    5.39665   5.58520   5.77311   6.25473   6.30460
  Beta virt. eigenvalues --    6.33980   6.51276   6.84621   6.98859   7.08435
  Beta virt. eigenvalues --    7.36368  22.35603  31.99832  43.85892
          Condensed to atoms (all electrons):
               1          2          3          4          5          6
     1  C    5.124124   0.496455  -0.084105  -0.106693   0.371659   0.401463
     2  N    0.496455   5.765255   0.349574   0.292766  -0.028490  -0.030018
     3  H   -0.084105   0.349574   0.558126  -0.055112   0.004917   0.008664
     4  O   -0.106693   0.292766  -0.055112   8.291250   0.008560   0.005213
     5  H    0.371659  -0.028490   0.004917   0.008560   0.542324  -0.022924
     6  H    0.401463  -0.030018   0.008664   0.005213  -0.022924   0.495063
          Atomic-Atomic Spin Densities.
               1          2          3          4          5          6
     1  C   -0.000000  -0.000000   0.000000   0.000000   0.000000   0.000000
     2  N   -0.000000   0.000000  -0.000000  -0.000000  -0.000000  -0.000000
     3  H    0.000000  -0.000000  -0.000000  -0.000000  -0.000000  -0.000000
     4  O    0.000000  -0.000000  -0.000000  -0.000000  -0.000000  -0.000000
     5  H    0.000000  -0.000000  -0.000000  -0.000000  -0.000000  -0.000000
     6  H    0.000000  -0.000000  -0.000000  -0.000000  -0.000000  -0.000000
 Mulliken charges and spin densities:
               1          2
     1  C   -0.202903  -0.000000
     2  N    0.154457   0.000000
     3  H    0.217936   0.000000
     4  O   -0.435984   0.000000
     5  H    0.123954  -0.000000
     6  H    0.142539  -0.000000
 Sum of Mulliken charges =  -0.00000  -0.00000
 Mulliken charges and spin densities with hydrogens summed into heavy atoms:
               1          2
     1  C    0.063590  -0.000000
     2  N    0.372394   0.000000
     4  O   -0.435984   0.000000
 Electronic spatial extent (au):  <R**2>=            516.1214
 Charge=              0.0000 electrons
 Dipole moment (field-independent basis, Debye):
    X=             -1.9503    Y=              0.6620    Z=             -2.8705  Tot=              3.5329
 Quadrupole moment (field-independent basis, Debye-Ang):
   XX=            -25.9042   YY=            -19.2060   ZZ=            -18.9836
   XY=              2.1805   XZ=             -9.1301   YZ=              0.0682
 Traceless Quadrupole moment (field-independent basis, Debye-Ang):
   XX=             -4.5396   YY=              2.1586   ZZ=              2.3810
   XY=              2.1805   XZ=             -9.1301   YZ=              0.0682
 Octapole moment (field-independent basis, Debye-Ang**2):
  XXX=           -134.6341  YYY=              6.7015  ZZZ=            -23.2105  XYY=            -36.7069
  XXY=              8.8418  XXZ=            -34.0325  XZZ=            -40.6962  YZZ=              3.1147
  YYZ=             -6.6392  XYZ=              1.3617
 Hexadecapole moment (field-independent basis, Debye-Ang**3):
 XXXX=           -627.1549 YYYY=            -22.5844 ZZZZ=            -68.6705 XXXY=             36.9529
 XXXZ=           -137.8509 YYYX=             17.1375 YYYZ=              6.4494 ZZZX=            -65.9056
 ZZZY=              6.6386 XXYY=            -93.6637 XXZZ=           -114.3963 YYZZ=            -15.2442
 XXYZ=              6.5105 YYXZ=            -19.1434 ZZXY=              8.2268
 N-N= 7.235265144198D+01 E-N=-5.429405408675D+02  KE= 1.691311224425D+02
 There are a total of      133398 grid points.
 ElSum from          density=       24.0000007749
 ElSum from atomic densities=       24.0000001944
 Hirshfeld populations at iteration   1 (CA, CB, DipXYZ):
               1          2          3          4          5
     1  C    3.019338   3.019338  -0.028087  -0.001945   0.008424
     2  N    3.453012   3.453012   0.066749   0.003325  -0.014417
     3  H    0.429298   0.429298   0.091256   0.036182  -0.156884
     4  O    4.153568   4.153568  -0.133860   0.036710  -0.159165
     5  H    0.474729   0.474729  -0.078272   0.032280  -0.140007
     6  H    0.470054   0.470054  -0.096703  -0.030456   0.132030
       Tot  12.000000  12.000000  -0.178916   0.076096  -0.330019

 Dip from Atomic Chgs             -0.588384   0.184349  -0.799317
         Total Dipole             -0.767300   0.260444  -1.129337

 Hirshfeld charges, spin densities, dipoles, and CM5 charges using IRadAn=      5:
              Q-H        S-H        Dx         Dy         Dz        Q-CM5   
     1  C   -0.038677  -0.000000  -0.028087  -0.001945   0.008424  -0.054519
     2  N    0.093976   0.000000   0.066749   0.003325  -0.014417  -0.235443
     3  H    0.141404  -0.000000   0.091256   0.036182  -0.156884   0.335530
     4  O   -0.307137   0.000000  -0.133860   0.036710  -0.159165  -0.283909
     5  H    0.050542  -0.000000  -0.078272   0.032280  -0.140007   0.113483
     6  H    0.059892  -0.000000  -0.096703  -0.030456   0.132030   0.124857
       Tot  -0.000001  -0.000000  -0.178916   0.076096  -0.330019  -0.000001
 Hirshfeld charges and spin densities with hydrogens summed into heavy atoms:
              Q-H        S-H       Q-CM5   
     1  C    0.071757  -0.000000   0.183821
     2  N    0.235379   0.000000   0.100087
     4  O   -0.307137   0.000000  -0.283909
 
 EQQ=-0.447091307351E-29 EQD= 0.474135949676E-15 EDD= 0.964172475041E-03
 EQQ+QD+DD= 0.964172475042E-03
 
          MBS Condensed to atoms (all electrons):
               1          2          3          4          5          6
     1  C    4.971026   0.472285  -0.050680  -0.036559   0.385528   0.383299
     2  N    0.472285   5.908435   0.319572   0.308599  -0.022308  -0.022958
     3  H   -0.050680   0.319572   0.483594  -0.031533  -0.003252   0.003068
     4  O   -0.036559   0.308599  -0.031533   8.220922   0.000962   0.000015
     5  H    0.385528  -0.022308  -0.003252   0.000962   0.531967  -0.018944
     6  H    0.383299  -0.022958   0.003068   0.000015  -0.018944   0.509863
          MBS Atomic-Atomic Spin Densities.
               1          2          3          4          5          6
     1  C   -0.000000   0.000000   0.000000   0.000000   0.000000   0.000000
     2  N    0.000000   0.000000   0.000000   0.000000  -0.000000  -0.000000
     3  H    0.000000   0.000000  -0.000000   0.000000  -0.000000  -0.000000
     4  O    0.000000   0.000000   0.000000   0.000000  -0.000000  -0.000000
     5  H    0.000000  -0.000000  -0.000000  -0.000000   0.000000  -0.000000
     6  H    0.000000  -0.000000  -0.000000  -0.000000  -0.000000   0.000000
 MBS Mulliken charges and spin densities:
               1          2
     1  C   -0.124900  -0.000000
     2  N    0.036374   0.000000
     3  H    0.279230  -0.000000
     4  O   -0.462407   0.000000
     5  H    0.126047   0.000000
     6  H    0.145656   0.000000
 Sum of MBS Mulliken charges =  -0.00000   0.00000
 MBS Mulliken charges and spin densities with hydrogens summed into heavy atoms:
               1          2
     1  C    0.146803  -0.000000
     2  N    0.315604   0.000000
     4  O   -0.462407   0.000000
 MBS Atomic Valencies and Mayer Atomic Bond Orders:
               1          2          3          4          5          6
     1  C    3.854135   1.528602   0.015122   0.406513   0.954879   0.949019
     2  N    1.528602   3.670376   0.823378   1.311019   0.003784   0.003593
     3  H    0.015122   0.823378   0.922030   0.068632   0.000786   0.014111
     4  O    0.406513   1.311019   0.068632   1.811271   0.018854   0.006252
     5  H    0.954879   0.003784   0.000786   0.018854   0.984112   0.005809
     6  H    0.949019   0.003593   0.014111   0.006252   0.005809   0.978784
 MBS Mayer-style numbers of lone pairs (12.000 valence pairs, 5.890 lone pairs):
               1
     1  C    1.135382
     2  N    1.646625
     3  H   -0.100630
     4  O    3.325568
     5  H   -0.055080
     6  H   -0.062220
 BEBO parameters in MulMin, MxElBE=  0:
 ELP=  0.00000000000     EBEBO=  0.00000000000     Sum=  0.00000000000    
 ELP=  0.00000000000     EBEBO=  0.00000000000     EJK=  0.00000000000      0.00000000000     Sum=  0.00000000000    
 0 EA=  0.00000000000     EB=  0.00000000000     ETot=  0.00000000000    
 1 EA=  0.00000000000     EB=  0.00000000000     ETot=  0.00000000000    
 2 EA=  0.00000000000     EB=  0.00000000000     ETot=  0.00000000000    
 3 EJ=  0.00000000000     EK=  0.00000000000     ETot=  0.00000000000    
 4 EJ=  0.00000000000     EK=  0.00000000000     ETot=  0.00000000000    
 5 EA=  0.00000000000     EB=  0.00000000000     ETot=  0.00000000000    
                          Isotropic Fermi Contact Couplings
        Atom                 a.u.       MegaHertz       Gauss      10(-4) cm-1
     1  C(13)              0.00000       0.00000       0.00000       0.00000
     2  N(14)             -0.00000      -0.00000      -0.00000      -0.00000
     3  H(1)               0.00000       0.00000       0.00000       0.00000
     4  O(17)              0.00000      -0.00000      -0.00000      -0.00000
     5  H(1)              -0.00000      -0.00000      -0.00000      -0.00000
     6  H(1)              -0.00000      -0.00000      -0.00000      -0.00000
 --------------------------------------------------------
       Center         ----  Spin Dipole Couplings  ----
                      3XX-RR        3YY-RR        3ZZ-RR
[...]
    23    C    1  dz2    Ryd( 4d)     0.00041       3.15916
    24    C    1  dz2    Ryd( 3d)     0.00005       1.84993
    25    C    1  f(0)   Ryd( 4f)     0.00003       3.26884
    26    C    1  f(C1)  Ryd( 4f)     0.00009       3.89892
    27    C    1  f(S1)  Ryd( 4f)     0.00005       3.01912
    28    C    1  f(C2)  Ryd( 4f)     0.00006       3.41086
    29    C    1  f(S2)  Ryd( 4f)     0.00001       3.19526
    30    C    1  f(C3)  Ryd( 4f)     0.00004       3.37088
    31    C    1  f(S3)  Ryd( 4f)     0.00005       3.30386
 
    32    N    2  S      Cor( 1S)     0.99969     -14.29807
    33    N    2  S      Val( 2S)     0.60324      -0.59852
    34    N    2  S      Ryd( 4S)     0.00379       1.64608
    35    N    2  S      Ryd( 3S)     0.00003       1.47246
    36    N    2  S      Ryd( 5S)     0.00000      30.84392
    37    N    2  px     Val( 2p)     0.63160      -0.29136
    38    N    2  px     Ryd( 3p)     0.00333       0.97003
    39    N    2  px     Ryd( 4p)     0.00018       2.36792
    40    N    2  py     Val( 2p)     0.65315      -0.29611
    41    N    2  py     Ryd( 3p)     0.00064       0.65276
    42    N    2  py     Ryd( 4p)     0.00018       1.81682
    43    N    2  pz     Val( 2p)     0.60380      -0.27251
    44    N    2  pz     Ryd( 3p)     0.00248       1.13625
    45    N    2  pz     Ryd( 4p)     0.00014       2.13752
    46    N    2  dxy    Ryd( 3d)     0.00105       1.46712
    47    N    2  dxy    Ryd( 4d)     0.00002       4.19811
    48    N    2  dxz    Ryd( 3d)     0.00078       1.94790
    49    N    2  dxz    Ryd( 4d)     0.00020       4.76916
    50    N    2  dyz    Ryd( 3d)     0.00121       1.46486
    51    N    2  dyz    Ryd( 4d)     0.00005       4.12706
    52    N    2  dx2y2  Ryd( 3d)     0.00165       1.91329
    53    N    2  dx2y2  Ryd( 4d)     0.00002       4.56082
    54    N    2  dz2    Ryd( 3d)     0.00227       1.76110
    55    N    2  dz2    Ryd( 4d)     0.00004       4.43988
    56    N    2  f(0)   Ryd( 4f)     0.00005       4.57730
    57    N    2  f(C1)  Ryd( 4f)     0.00017       5.25645
    58    N    2  f(S1)  Ryd( 4f)     0.00006       4.33233
    59    N    2  f(C2)  Ryd( 4f)     0.00012       4.68449
    60    N    2  f(S2)  Ryd( 4f)     0.00006       4.49478
    61    N    2  f(C3)  Ryd( 4f)     0.00010       4.61594
    62    N    2  f(S3)  Ryd( 4f)     0.00015       4.42470
 
    63    H    3  S      Val( 1S)     0.32898      -0.02547
    64    H    3  S      Ryd( 2S)     0.00154       0.55667
    65    H    3  S      Ryd( 3S)     0.00008       2.06204
    66    H    3  px     Ryd( 2p)     0.00010       2.54315
    67    H    3  py     Ryd( 2p)     0.00013       2.06759
    68    H    3  pz     Ryd( 2p)     0.00010       2.85875
 
    69    O    4  S      Cor( 1S)     0.99993     -18.91763
    70    O    4  S      Val( 2S)     0.88227      -0.86624
    71    O    4  S      Ryd( 3S)     0.00218       1.21543
    72    O    4  S      Ryd( 4S)     0.00004       5.23509
    73    O    4  S      Ryd( 5S)     0.00000      41.36017
    74    O    4  px     Val( 2p)     0.82854      -0.24629
    75    O    4  px     Ryd( 3p)     0.00179       0.77853
    76    O    4  px     Ryd( 4p)     0.00001       3.05001
    77    O    4  py     Val( 2p)     0.78968      -0.24919
    78    O    4  py     Ryd( 3p)     0.00167       0.63677
    79    O    4  py     Ryd( 4p)     0.00000       2.64880
    80    O    4  pz     Val( 2p)     0.72812      -0.23339
    81    O    4  pz     Ryd( 3p)     0.00149       0.75419
    82    O    4  pz     Ryd( 4p)     0.00002       3.13926
    83    O    4  dxy    Ryd( 3d)     0.00023       2.70273
    84    O    4  dxy    Ryd( 4d)     0.00000       5.63885
    85    O    4  dxz    Ryd( 3d)     0.00066       3.26485
    86    O    4  dxz    Ryd( 4d)     0.00001       6.16821
    87    O    4  dyz    Ryd( 3d)     0.00043       2.81865
    88    O    4  dyz    Ryd( 4d)     0.00001       5.82154
    89    O    4  dx2y2  Ryd( 3d)     0.00024       2.78058
    90    O    4  dx2y2  Ryd( 4d)     0.00001       5.70114
    91    O    4  dz2    Ryd( 3d)     0.00048       3.07658
    92    O    4  dz2    Ryd( 4d)     0.00001       6.15905
    93    O    4  f(0)   Ryd( 4f)     0.00002       5.60608
    94    O    4  f(C1)  Ryd( 4f)     0.00005       5.70113
    95    O    4  f(S1)  Ryd( 4f)     0.00001       5.42900
    96    O    4  f(C2)  Ryd( 4f)     0.00003       5.53672
    97    O    4  f(S2)  Ryd( 4f)     0.00002       5.51526
    98    O    4  f(C3)  Ryd( 4f)     0.00000       5.30143
    99    O    4  f(S3)  Ryd( 4f)     0.00000       5.28955
 
   100    H    5  S      Val( 1S)     0.40337      -0.03415
   101    H    5  S      Ryd( 2S)     0.00039       0.72143
   102    H    5  S      Ryd( 3S)     0.00007       1.59307
   103    H    5  px     Ryd( 2p)     0.00013       2.34093
   104    H    5  py     Ryd( 2p)     0.00013       1.94632
   105    H    5  pz     Ryd( 2p)     0.00028       2.63230
 
   106    H    6  S      Val( 1S)     0.39639      -0.01694
   107    H    6  S      Ryd( 2S)     0.00072       0.75987
   108    H    6  S      Ryd( 3S)     0.00005       1.53156
   109    H    6  px     Ryd( 2p)     0.00012       2.39719
   110    H    6  py     Ryd( 2p)     0.00006       1.95315
   111    H    6  pz     Ryd( 2p)     0.00027       2.58243

 WARNING:  Population inversion found on atom  C    1
           Population inversion found on atom  N    2


 Summary of Natural Population Analysis:                  
                                                          
                                       Natural Population 
                Natural  -----------------------------------------------
    Atom  No    Charge         Core      Valence    Rydberg      Total
 -----------------------------------------------------------------------
      C    1   -0.11889      0.99970     2.10767    0.01151     3.11889
      N    2   -0.01025      0.99969     2.49179    0.01877     3.51025
      H    3    0.16907      0.00000     0.32898    0.00195     0.33093
      O    4   -0.23796      0.99993     3.22862    0.00941     4.23796
      H    5    0.09564      0.00000     0.40337    0.00099     0.40436
      H    6    0.10239      0.00000     0.39639    0.00122     0.39761
 =======================================================================
   * Total *    0.00000      2.99932     8.95683    0.04385    12.00000

                                 Natural Population      
 --------------------------------------------------------
   Core                       2.99932 ( 99.9774% of   3)
   Valence                    8.95683 ( 99.5203% of   9)
   Natural Minimal Basis     11.95615 ( 99.6346% of  12)
   Natural Rydberg Basis      0.04385 (  0.3654% of  12)
 --------------------------------------------------------

    Atom  No          Natural Electron Configuration
 ----------------------------------------------------------------------------
      C    1      [core]2S( 0.53)2p( 1.58)3p( 0.01)
      N    2      [core]2S( 0.60)2p( 1.89)3p( 0.01)3d( 0.01)
      H    3            1S( 0.33)
      O    4      [core]2S( 0.88)2p( 2.35)
      H    5            1S( 0.40)
      H    6            1S( 0.40)


 NBO analysis skipped by request.
 Leave Link  607 at Tue Jan  3 09:05:26 2023, MaxMem=   536870912 cpu:               3.6 elap:               1.8
 (Enter /opt/software/gaussian/g16.c01/l701.exe)
 ... and contract with generalized density number  0.
 Compute integral first derivatives.
 Leave Link  701 at Tue Jan  3 09:05:26 2023, MaxMem=   536870912 cpu:               0.3 elap:               0.2
 (Enter /opt/software/gaussian/g16.c01/l702.exe)
 L702 exits ... SP integral derivatives will be done elsewhere.
 Leave Link  702 at Tue Jan  3 09:05:26 2023, MaxMem=   536870912 cpu:               0.1 elap:               0.0
 (Enter /opt/software/gaussian/g16.c01/l703.exe)
 Integral derivatives from FoFJK, PRISM(SPDF).
 Compute integral first derivatives, UseDBF=F ICtDFT=           0.
 Calling FoFJK, ICntrl=      2127 FMM=F ISym2X=0 I1Cent= 0 IOpClX= 1 NMat=1 NMatS=1 NMatT=0.
 FoFJK:  IHMeth= 1 ICntrl=    2127 DoSepK=F KAlg= 0 I1Cent=           0 FoldK=F
 IRaf=         0 NMat=       1 IRICut=       1 DoRegI=T DoRafI=F ISym2E= 0 IDoP0=0 IntGTp=1.
 FoFCou: FMM=F IPFlag=           0 FMFlag=      100000 FMFlg1=         800
         NFxFlg=           0 DoJE=F BraDBF=F KetDBF=F FulRan=T
         wScrn=  0.000000 ICntrl=      2127 IOpCl=  1 I1Cent=           0 NGrid=           0
         NMat0=    1 NMatS0=      1 NMatT0=    0 NMatD0=    1 NMtDS0=    0 NMtDT0=    0
 Symmetry not used in FoFCou.
 Leave Link  703 at Tue Jan  3 09:05:30 2023, MaxMem=   536870912 cpu:               7.9 elap:               3.9
 (Enter /opt/software/gaussian/g16.c01/l716.exe)
 Dipole        =-7.67297504D-01 2.60441399D-01-1.12933805D+00
 -------------------------------------------------------------------
 Center     Atomic                   Forces (Hartrees/Bohr)
 Number     Number              X              Y              Z
 -------------------------------------------------------------------
      1        6          -0.007414655    0.000332833   -0.001464711
      2        7          -0.000912725    0.000948345   -0.004107005
      3        1          -0.001064334   -0.000060047    0.000258282
      4        8           0.004336563   -0.001165385    0.005055809
      5        1           0.002224747   -0.001314085    0.005705160
      6        1           0.002830404    0.001258340   -0.005447535
 -------------------------------------------------------------------
 Cartesian Forces:  Max     0.007414655 RMS     0.003343790
 Z-matrix is all fixed cartesians, so copy forces.
 Force constants in Cartesian coordinates: 
                1             2             3             4             5 
      1  0.101329D+01
      2 -0.181037D-02  0.203575D+00
      3  0.786374D-02 -0.124878D+00  0.716256D+00
      4 -0.679882D+00  0.300493D-02 -0.129771D-01  0.122912D+01
      5  0.376763D-02 -0.101951D+00  0.210923D-01 -0.513644D-01  0.222812D+00
      6 -0.162703D-01  0.210924D-01 -0.188542D+00  0.222639D+00 -0.201358D+00
      7 -0.102620D-02 -0.665546D-02  0.288574D-01 -0.181518D+00 -0.289962D-01
      8  0.121571D-03  0.160790D-01  0.116710D-03 -0.287431D-01 -0.726755D-01
      9 -0.525445D-03  0.118691D-03  0.155912D-01  0.124629D+00  0.655904D-01
     10  0.119887D-02  0.777540D-02 -0.337130D-01 -0.367761D+00  0.763242D-01
     11  0.200587D-03  0.190369D-01 -0.153988D-02  0.768689D-01 -0.806506D-01
     12 -0.868461D-03 -0.154186D-02  0.253675D-01 -0.333281D+00  0.114090D+00
     13 -0.158674D+00  0.217720D-01 -0.944370D-01  0.990489D-03  0.642211D-02
     14  0.210005D-01 -0.665152D-01  0.549206D-01  0.108065D-03  0.144495D-01
     15 -0.910994D-01  0.549244D-01 -0.292045D+00 -0.467503D-03  0.139020D-03
     16 -0.174911D+00 -0.240865D-01  0.104406D+00 -0.948593D-03 -0.615334D-02
     17 -0.232800D-01 -0.702247D-01  0.502880D-01  0.125613D-03  0.180161D-01
     18  0.100900D+00  0.502841D-01 -0.276628D+00 -0.542935D-03  0.445850D-03
                6             7             8             9            10 
      6  0.104942D+01
      7  0.125728D+00  0.157894D+00
      8  0.655912D-01  0.315330D-01  0.477677D-01
      9 -0.341942D+00 -0.136727D+00 -0.699667D-01  0.335000D+00
     10 -0.330918D+00  0.246502D-01 -0.291152D-02  0.126236D-01  0.341912D+00
     11  0.114089D+00  0.411862D-02  0.878005D-02  0.424634D-02 -0.811881D-01
     12 -0.549005D+00 -0.178579D-01  0.424651D-02 -0.865234D-02  0.352007D+00
     13 -0.278537D-01  0.000000D+00  0.000000D+00  0.000000D+00  0.000000D+00
     14  0.139979D-03  0.000000D+00 -0.908908D-02 -0.209632D-02  0.000000D+00
     15  0.138797D-01  0.000000D+00 -0.209566D-02 -0.483348D-03  0.000000D+00
     16  0.266748D-01  0.000000D+00  0.000000D+00  0.000000D+00  0.000000D+00
     17  0.444845D-03  0.000000D+00  0.913787D-02  0.210757D-02  0.000000D+00
     18  0.161850D-01  0.000000D+00  0.210791D-02  0.486171D-03  0.000000D+00
               11            12            13            14            15 
     11  0.528801D-01
     12 -0.116784D+00  0.532292D+00
     13  0.000000D+00  0.000000D+00  0.128269D+00
     14  0.864159D-02  0.199298D-02 -0.243128D-01  0.428129D-01
     15  0.199249D-02  0.459521D-03  0.105452D+00 -0.591266D-01  0.285599D+00
     16  0.000000D+00  0.000000D+00  0.294149D-01  0.320416D-02 -0.138848D-01
     17 -0.868798D-02 -0.200368D-02 -0.388133D-02  0.970030D-02  0.416630D-02
     18 -0.200413D-02 -0.462205D-03  0.168390D-01  0.416934D-02 -0.741015D-02
               16            17            18 
     16  0.146445D+00
     17  0.270357D-01  0.420584D-01
     18 -0.117196D+00 -0.550030D-01  0.267829D+00
 Leave Link  716 at Tue Jan  3 09:05:31 2023, MaxMem=   536870912 cpu:               0.1 elap:               0.0
 (Enter /opt/software/gaussian/g16.c01/l103.exe)

 GradGradGradGradGradGradGradGradGradGradGradGradGradGradGradGradGradGrad
 Berny optimization.
 Search for a local minimum.
 Step number   1 out of a maximum of    2
 All quantities printed in internal units (Hartrees-Bohrs-Radians)
 Second derivative matrix not updated -- first step.
 The second derivative matrix:
                          X1        Y1        Z1        X2        Y2
           X1           1.01329
           Y1          -0.00181   0.20358
           Z1           0.00786  -0.12488   0.71626
           X2          -0.67988   0.00300  -0.01298   1.22912
           Y2           0.00377  -0.10195   0.02109  -0.05136   0.22281
           Z2          -0.01627   0.02109  -0.18854   0.22264  -0.20136
           X3          -0.00103  -0.00666   0.02886  -0.18152  -0.02900
           Y3           0.00012   0.01608   0.00012  -0.02874  -0.07268
           Z3          -0.00053   0.00012   0.01559   0.12463   0.06559
           X4           0.00120   0.00778  -0.03371  -0.36776   0.07632
           Y4           0.00020   0.01904  -0.00154   0.07687  -0.08065
           Z4          -0.00087  -0.00154   0.02537  -0.33328   0.11409
           X5          -0.15867   0.02177  -0.09444   0.00099   0.00642
           Y5           0.02100  -0.06652   0.05492   0.00011   0.01445
           Z5          -0.09110   0.05492  -0.29205  -0.00047   0.00014
           X6          -0.17491  -0.02409   0.10441  -0.00095  -0.00615
           Y6          -0.02328  -0.07022   0.05029   0.00013   0.01802
           Z6           0.10090   0.05028  -0.27663  -0.00054   0.00045
                          Z2        X3        Y3        Z3        X4
           Z2           1.04942
           X3           0.12573   0.15789
           Y3           0.06559   0.03153   0.04777
           Z3          -0.34194  -0.13673  -0.06997   0.33500
           X4          -0.33092   0.02465  -0.00291   0.01262   0.34191
           Y4           0.11409   0.00412   0.00878   0.00425  -0.08119
           Z4          -0.54900  -0.01786   0.00425  -0.00865   0.35201
           X5          -0.02785  -0.00000  -0.00000  -0.00000   0.00000
           Y5           0.00014  -0.00000  -0.00909  -0.00210   0.00000
           Z5           0.01388  -0.00000  -0.00210  -0.00048   0.00000
           X6           0.02667   0.00000   0.00000   0.00000  -0.00000
           Y6           0.00044   0.00000   0.00914   0.00211  -0.00000
           Z6           0.01618   0.00000   0.00211   0.00049  -0.00000
                          Y4        Z4        X5        Y5        Z5
           Y4           0.05288
           Z4          -0.11678   0.53229
           X5           0.00000   0.00000   0.12827
           Y5           0.00864   0.00199  -0.02431   0.04281
           Z5           0.00199   0.00046   0.10545  -0.05913   0.28560
           X6          -0.00000  -0.00000   0.02941   0.00320  -0.01388
           Y6          -0.00869  -0.00200  -0.00388   0.00970   0.00417
           Z6          -0.00200  -0.00046   0.01684   0.00417  -0.00741
                          X6        Y6        Z6
           X6           0.14644
           Y6           0.02704   0.04206
           Z6          -0.11720  -0.05500   0.26783
 ITU=  0
     Eigenvalues ---    0.03447   0.04394   0.09385   0.09776   0.15149
     Eigenvalues ---    0.18516   0.28085   0.33564   0.68419   0.94438
     Eigenvalues ---    1.52455   2.16742
 Angle between quadratic step and forces=  45.04 degrees.
 Linear search not attempted -- first point.
 B after Tr=     0.001331   -0.000309    0.001297
         Rot=    1.000000    0.000001   -0.000038   -0.000010 Ang=   0.00 deg.
 Variable       Old X    -DE/DX   Delta X   Delta X   Delta X     New X
                                 (Linear)    (Quad)   (Total)
    X1        1.76526  -0.00741   0.00000  -0.00468  -0.00334   1.76192
    Y1       -0.09564   0.00033   0.00000   0.00071   0.00044  -0.09520
    Z1        0.10090  -0.00146   0.00000  -0.00317  -0.00201   0.09889
    X2        4.21476  -0.00091   0.00000  -0.00134   0.00001   4.21477
    Y2       -0.11476   0.00095   0.00000  -0.00047  -0.00069  -0.11545
    Z2        0.18359  -0.00411   0.00000   0.00201   0.00299   0.18658
    X3        5.12197  -0.00106   0.00000  -0.01156  -0.01035   5.11162
    Y3        0.27317  -0.00006   0.00000   0.00031   0.00010   0.27327
    Z3       -1.49844   0.00026   0.00000  -0.00133  -0.00042  -1.49886
    X4        5.62552   0.00434   0.00000   0.00933   0.01083   5.63635
    Y4       -0.54121  -0.00117   0.00000  -0.00096  -0.00116  -0.54237
    Z4        2.03258   0.00506   0.00000   0.00419   0.00506   2.03764
    X5        0.86974   0.00222   0.00000   0.00136   0.00256   0.87230
    Y5        0.31971  -0.00131   0.00000  -0.00302  -0.00331   0.31639
    Z5       -1.70041   0.00571   0.00000   0.01320   0.01443  -1.68599
    X6        0.72441   0.00283   0.00000  -0.00118   0.00029   0.72471
    Y6       -0.49386   0.00126   0.00000   0.00492   0.00463  -0.48923
    Z6        1.82729  -0.00545   0.00000  -0.02129  -0.02004   1.80725
         Item               Value     Threshold  Converged?
 Maximum Force            0.007415     0.000450     NO 
 RMS     Force            0.003344     0.000300     NO 
 Maximum Displacement     0.020044     0.001800     NO 
 RMS     Displacement     0.007169     0.001200     NO 
 Predicted change in Energy=-1.539488D-04
 GradGradGradGradGradGradGradGradGradGradGradGradGradGradGradGradGradGrad

 Leave Link  103 at Tue Jan  3 09:05:31 2023, MaxMem=   536870912 cpu:               0.0 elap:               0.0
 (Enter /opt/software/gaussian/g16.c01/l9999.exe)
 Unable to Open any file for archive entry.
 1\1\GINC-GRA704\Force\UB3LYP\Gen\C1H3N1O1\BHAVUK\03-Jan-2023\0\\#p ub3
 lyp/chkbasis force guess=read geom=check scf=(maxcycle=900,verytightli
 neq,xqc) integral=grid=ultrafine symmetry=None density=current pop=(cm
 5,hlygat,mbs,npa) output=wfx\\0002_q000_m01_k00_opt_uwb97xd_def2svpd/0
 002_q000_m01_k00_force_ub3lyp_def2tzvp stable-force\\0,1\C,0.934135998
 3,-0.0506101672,0.0533916633\N,2.2303561638,-0.0607282973,0.0971529523
 \H,2.7104299206,0.1445551233,-0.7929401941\O,2.9768985022,-0.286397636
 1,1.0755945973\H,0.4602474304,0.169181767,-0.8998201368\H,0.383341983,
 -0.2613407898,0.9669611147\\Version=ES64L-G16RevC.01\HF=-169.8752092\S
 2=0.\S2-1=0.\S2A=0.\RMSD=1.704e-09\RMSF=3.344e-03\Dipole=-0.7672975,0.
 2604414,-1.1293381\Quadrupole=-3.3750509,1.6048442,1.7702068,1.6211144
 ,-6.7879878,0.0507341\PG=Unknown\\@
 The archive entry for this job was punched.

 Writing a WFNX file to "0002_q000_m01_k00_force_ub3lyp_def2tzvp.wfx"


 THERE ONCE WAS A GIRL NAMED IRENE,
 WHO LIVED ON DISTILLED KEROSENE,
      BUT SHE STARTED ABSORBIN'
      A NEW HYDROCARBON,
 AND SINCE THEN HAS NEVER BENZENE.
 Job cpu time:       0 days  0 hours  0 minutes 19.2 seconds.
 Elapsed time:       0 days  0 hours  0 minutes  9.3 seconds.
 File lengths (MBytes):  RWF=     10 Int=      0 D2E=      0 Chk=      3 Scr=      1
 Normal termination of Gaussian 16 at Tue Jan  3 09:05:31 2023.
