 Entering Gaussian System, Link 0=g16
 Input=0002_q000_m01_k00_force_ub3lyp_def2svp.com
 Output=0002_q000_m01_k00_force_ub3lyp_def2svp.log
 Initial command:
 /opt/software/gaussian/g16.c01/l1.exe "/localscratch/bhavuk.2151354.0/Gau-11559.inp" -scrdir="/localscratch/bhavuk.2151354.0/"
 Entering Link 1 = /opt/software/gaussian/g16.c01/l1.exe PID=     11560.
  
 Copyright (c) 1988-2019, Gaussian, Inc.  All Rights Reserved.
  
 This is part of the Gaussian(R) 16 program.  It is based on
 the Gaussian(R) 09 system (copyright 2009, Gaussian, Inc.),
 the Gaussian(R) 03 system (copyright 2003, Gaussian, Inc.),
 the Gaussian(R) 98 system (copyright 1998, Gaussian, Inc.),
 the Gaussian(R) 94 system (copyright 1995, Gaussian, Inc.),
 the Gaussian 92(TM) system (copyright 1992, Gaussian, Inc.),
 the Gaussian 90(TM) system (copyright 1990, Gaussian, Inc.),
 the Gaussian 88(TM) system (copyright 1988, Gaussian, Inc.),
 the Gaussian 86(TM) system (copyright 1986, Carnegie Mellon
 University), and the Gaussian 82(TM) system (copyright 1983,
 Carnegie Mellon University). Gaussian is a federally registered
 trademark of Gaussian, Inc.
  
 This software contains proprietary and confidential information,
 including trade secrets, belonging to Gaussian, Inc.
  
 This software is provided under written license and may be
 used, copied, transmitted, or stored only in accord with that
 written license.
  
 The following legend is applicable only to US Government
 contracts under FAR:
  
                    RESTRICTED RIGHTS LEGEND
  
 Use, reproduction and disclosure by the US Government is
 subject to restrictions as set forth in subparagraphs (a)
 and (c) of the Commercial Computer Software - Restricted
 Rights clause in FAR 52.227-19.
  
 Gaussian, Inc.
 340 Quinnipiac St., Bldg. 40, Wallingford CT 06492
  
  
 ---------------------------------------------------------------
 Warning -- This program may not be used in any manner that
 competes with the business of Gaussian, Inc. or will provide
 assistance to any competitor of Gaussian, Inc.  The licensee
 of this program is prohibited from giving any competitor of
 Gaussian, Inc. access to this program.  By using this program,
 the user acknowledges that Gaussian, Inc. is engaged in the
 business of creating and licensing software in the field of
 computational chemistry and represents and warrants to the
 licensee that it is not a competitor of Gaussian, Inc. and that
 it will not use this program in any manner prohibited above.
 ---------------------------------------------------------------
  

 Cite this work as:
 Gaussian 16, Revision C.01,
 M. J. Frisch, G. W. Trucks, H. B. Schlegel, G. E. Scuseria, 
 M. A. Robb, J. R. Cheeseman, G. Scalmani, V. Barone, 
 G. A. Petersson, H. Nakatsuji, X. Li, M. Caricato, A. V. Marenich, 
 J. Bloino, B. G. Janesko, R. Gomperts, B. Mennucci, H. P. Hratchian, 
 J. V. Ortiz, A. F. Izmaylov, J. L. Sonnenberg, D. Williams-Young, 
 F. Ding, F. Lipparini, F. Egidi, J. Goings, B. Peng, A. Petrone, 
 T. Henderson, D. Ranasinghe, V. G. Zakrzewski, J. Gao, N. Rega, 
 G. Zheng, W. Liang, M. Hada, M. Ehara, K. Toyota, R. Fukuda, 
 J. Hasegawa, M. Ishida, T. Nakajima, Y. Honda, O. Kitao, H. Nakai, 
 T. Vreven, K. Throssell, J. A. Montgomery, Jr., J. E. Peralta, 
 F. Ogliaro, M. J. Bearpark, J. J. Heyd, E. N. Brothers, K. N. Kudin, 
 V. N. Staroverov, T. A. Keith, R. Kobayashi, J. Normand, 
 K. Raghavachari, A. P. Rendell, J. C. Burant, S. S. Iyengar, 
 J. Tomasi, M. Cossi, J. M. Millam, M. Klene, C. Adamo, R. Cammi, 
 J. W. Ochterski, R. L. Martin, K. Morokuma, O. Farkas, 
 J. B. Foresman, and D. J. Fox, Gaussian, Inc., Wallingford CT, 2019.
 
 ******************************************
 Gaussian 16:  ES64L-G16RevC.01  3-Jul-2019
                 3-Jan-2023 
 ******************************************
 %chk=0002_q000_m01_k00_force_ub3lyp_def2svp.chk
 %nprocshared=2
 Will use up to    2 processors via shared memory.
 %mem=4GB
 ----------------------------------------------------------------------
 #p ub3lyp/gen stable=opt scf=(maxcycle=900,verytightlineq,xqc) integra
 l=grid=ultrafine symmetry=None density=current iop(99/18=-1) output=wf
 n
 ----------------------------------------------------------------------
 1/38=1,172=1/1;
 2/12=2,15=3,17=6,18=5,40=1/2;
 3/5=7,11=2,25=1,30=1,74=-5,75=-5,116=2/1,2,3;
 4//1;
 5/5=2,7=900,8=3,13=1,17=3,38=5/2,8;
 6/7=2,8=2,9=2,10=2,22=-1,28=1/1;
 8/6=1,10=90,11=11/1;
 9/8=-3,42=1,46=1/14;
 5/5=2,7=900,8=3,17=43,38=5/8(-2);
 6/7=2,8=2,9=2,10=2,22=-1,28=1/1;
 99/5=1,6=100,9=1,18=-1/99;
 Leave Link    1 at Tue Jan  3 09:04:12 2023, MaxMem=   536870912 cpu:               0.1 elap:               0.1
 (Enter /opt/software/gaussian/g16.c01/l101.exe)
 ----------------------------------------------------------------------
 0002_q000_m01_k00_opt_uwb97xd_def2svpd/0002_q000_m01_k00_force_ub3lyp_
 def2svp stable-force
 ----------------------------------------------------------------------
 Symbolic Z-matrix:
 Charge =  0 Multiplicity = 1
 C                     0.93414  -0.05061   0.05339 
 N                     2.23036  -0.06073   0.09715 
 H                     2.71043   0.14456  -0.79294 
 O                     2.9769   -0.2864    1.07559 
 H                     0.46025   0.16918  -0.89982 
 H                     0.38334  -0.26134   0.96696 
 
 ITRead=  0  0  0  0  0  0
 MicOpt= -1 -1 -1 -1 -1 -1
 NAtoms=      6 NQM=        6 NQMF=       0 NMMI=      0 NMMIF=      0
                NMic=       0 NMicF=      0.
                    Isotopes and Nuclear Properties:
 (Nuclear quadrupole moments (NQMom) in fm**2, nuclear magnetic moments (NMagM)
  in nuclear magnetons)

  Atom         1           2           3           4           5           6
 IAtWgt=          12          14           1          16           1           1
 AtmWgt=  12.0000000  14.0030740   1.0078250  15.9949146   1.0078250   1.0078250
 NucSpn=           0           2           1           0           1           1
 AtZEff=  -0.0000000  -0.0000000  -0.0000000  -0.0000000  -0.0000000  -0.0000000
 NQMom=    0.0000000   2.0440000   0.0000000   0.0000000   0.0000000   0.0000000
 NMagM=    0.0000000   0.4037610   2.7928460   0.0000000   2.7928460   2.7928460
 AtZNuc=   6.0000000   7.0000000   1.0000000   8.0000000   1.0000000   1.0000000
 Leave Link  101 at Tue Jan  3 09:04:12 2023, MaxMem=   536870912 cpu:               0.5 elap:               0.3
 (Enter /opt/software/gaussian/g16.c01/l202.exe)
                          Input orientation:                          
 ---------------------------------------------------------------------
 Center     Atomic      Atomic             Coordinates (Angstroms)
 Number     Number       Type             X           Y           Z
 ---------------------------------------------------------------------
      1          6           0        0.934136   -0.050610    0.053392
      2          7           0        2.230356   -0.060728    0.097153
      3          1           0        2.710430    0.144555   -0.792940
      4          8           0        2.976899   -0.286398    1.075595
      5          1           0        0.460247    0.169182   -0.899820
      6          1           0        0.383342   -0.261341    0.966961
 ---------------------------------------------------------------------
                    Distance matrix (angstroms):
                    1          2          3          4          5
     1  C    0.000000
     2  N    1.296998   0.000000
     3  H    1.977268   1.031929   0.000000
     4  O    2.296383   1.251239   1.936013   0.000000
     5  H    1.086964   2.044529   2.252854   3.231617   0.000000
     6  H    1.087378   2.051408   2.945733   2.595952   1.917325
                    6
     6  H    0.000000
 Symmetry turned off by external request.
 Stoichiometry    CH3NO
 Rotational constants (GHZ):          75.8819039          11.9122881          10.2959784
 Leave Link  202 at Tue Jan  3 09:04:12 2023, MaxMem=   536870912 cpu:               0.0 elap:               0.0
 (Enter /opt/software/gaussian/g16.c01/l301.exe)
 General basis read from cards:  (5D, 7F)
 Centers:       3      5      6
 S 3 1.00
     Exponent=  1.3010701000D+01 Coefficients=  1.9682158000D-02
     Exponent=  1.9622572000D+00 Coefficients=  1.3796524000D-01
     Exponent=  4.4453796000D-01 Coefficients=  4.7831935000D-01
 S 1 1.00
     Exponent=  1.2194962000D-01 Coefficients=  1.0000000000D+00
 P 1 1.00
     Exponent=  8.0000000000D-01 Coefficients=  1.0000000000D+00
 ****
 Centers:       1
 S 5 1.00
     Exponent=  1.2384016938D+03 Coefficients=  5.4568832082D-03
     Exponent=  1.8629004992D+02 Coefficients=  4.0638409211D-02
     Exponent=  4.2251176346D+01 Coefficients=  1.8025593888D-01
     Exponent=  1.1676557932D+01 Coefficients=  4.6315121755D-01
     Exponent=  3.5930506482D+00 Coefficients=  4.4087173314D-01
 S 1 1.00
     Exponent=  4.0245147363D-01 Coefficients=  1.0000000000D+00
 S 1 1.00
     Exponent=  1.3090182668D-01 Coefficients=  1.0000000000D+00
 P 3 1.00
     Exponent=  9.4680970621D+00 Coefficients=  3.8387871728D-02
     Exponent=  2.0103545142D+00 Coefficients=  2.1117025112D-01
     Exponent=  5.4771004707D-01 Coefficients=  5.1328172114D-01
 P 1 1.00
     Exponent=  1.5268613795D-01 Coefficients=  1.0000000000D+00
 D 1 1.00
     Exponent=  8.0000000000D-01 Coefficients=  1.0000000000D+00
 ****
 Centers:       2
 S 5 1.00
     Exponent=  1.7128415853D+03 Coefficients= -5.3934125305D-03
     Exponent=  2.5764812677D+02 Coefficients= -4.0221581118D-02
     Exponent=  5.8458245853D+01 Coefficients= -1.7931144990D-01
     Exponent=  1.6198367905D+01 Coefficients= -4.6376317823D-01
     Exponent=  5.0052600809D+00 Coefficients= -4.4171422662D-01
 S 1 1.00
     Exponent=  5.8731856571D-01 Coefficients=  1.0000000000D+00
 S 1 1.00
     Exponent=  1.8764592253D-01 Coefficients=  1.0000000000D+00
 P 3 1.00
     Exponent=  1.3571470233D+01 Coefficients= -4.0072398852D-02
     Exponent=  2.9257372874D+00 Coefficients= -2.1807045028D-01
     Exponent=  7.9927750754D-01 Coefficients= -5.1294466049D-01
 P 1 1.00
     Exponent=  2.1954348034D-01 Coefficients=  1.0000000000D+00
 D 1 1.00
     Exponent=  1.0000000000D+00 Coefficients=  1.0000000000D+00
 ****
 Centers:       4
 S 5 1.00
     Exponent=  2.2661767785D+03 Coefficients= -5.3431809926D-03
     Exponent=  3.4087010191D+02 Coefficients= -3.9890039230D-02
     Exponent=  7.7363135167D+01 Coefficients= -1.7853911985D-01
     Exponent=  2.1479644940D+01 Coefficients= -4.6427684959D-01
     Exponent=  6.6589433124D+00 Coefficients= -4.4309745172D-01
 S 1 1.00
     Exponent=  8.0975975668D-01 Coefficients=  1.0000000000D+00
 S 1 1.00
     Exponent=  2.5530772234D-01 Coefficients=  1.0000000000D+00
 P 3 1.00
     Exponent=  1.7721504317D+01 Coefficients=  4.3394573193D-02
     Exponent=  3.8635505440D+00 Coefficients=  2.3094120765D-01
     Exponent=  1.0480920883D+00 Coefficients=  5.1375311064D-01
 P 1 1.00
     Exponent=  2.7641544411D-01 Coefficients=  1.0000000000D+00
 D 1 1.00
     Exponent=  1.2000000000D+00 Coefficients=  1.0000000000D+00
 ****
 Ernie: Thresh=  0.10000D-02 Tol=  0.10000D-05 Strict=F.
    57 basis functions,    96 primitive gaussians,    60 cartesian basis functions
    12 alpha electrons       12 beta electrons
       nuclear repulsion energy        72.3526514420 Hartrees.
 IExCor=  402 DFT=T Ex+Corr=B3LYP ExCW=0 ScaHFX=  0.200000
 ScaDFX=  0.800000  0.720000  1.000000  0.810000 ScalE2=  1.000000  1.000000
 IRadAn=      5 IRanWt=     -1 IRanGd=            0 ICorTp=0 IEmpDi=  4
 NAtoms=    6 NActive=    6 NUniq=    6 SFac= 1.00D+00 NAtFMM=   60 NAOKFM=F Big=F
 Integral buffers will be    131072 words long.
 Raffenetti 2 integral format.
 Two-electron integral symmetry is turned off.
 Leave Link  301 at Tue Jan  3 09:04:12 2023, MaxMem=   536870912 cpu:               0.2 elap:               0.1
 (Enter /opt/software/gaussian/g16.c01/l302.exe)
 NPDir=0 NMtPBC=     1 NCelOv=     1 NCel=       1 NClECP=     1 NCelD=      1
         NCelK=      1 NCelE2=     1 NClLst=     1 CellRange=     0.0.
 One-electron integrals computed using PRISM.
 NBasis=    57 RedAO= T EigKep=  7.17D-03  NBF=    57
 NBsUse=    57 1.00D-06 EigRej= -1.00D+00 NBFU=    57
 Precomputing XC quadrature grid using
 IXCGrd= 4 IRadAn=           5 IRanWt=          -1 IRanGd=           0 AccXCQ= 0.00D+00.
 Generated NRdTot=       0 NPtTot=           0 NUsed=           0 NTot=          32
 NSgBfM=    60    60    60    60    60 MxSgAt=     6 MxSgA2=     6.
 Leave Link  302 at Tue Jan  3 09:04:12 2023, MaxMem=   536870912 cpu:               0.3 elap:               0.2
 (Enter /opt/software/gaussian/g16.c01/l303.exe)
 DipDrv:  MaxL=1.
 Leave Link  303 at Tue Jan  3 09:04:12 2023, MaxMem=   536870912 cpu:               0.1 elap:               0.1
 (Enter /opt/software/gaussian/g16.c01/l401.exe)
 ExpMin= 1.22D-01 ExpMax= 2.27D+03 ExpMxC= 3.41D+02 IAcc=3 IRadAn=         5 AccDes= 0.00D+00
 Harris functional with IExCor=  402 and IRadAn=       5 diagonalized for initial guess.
 HarFok:  IExCor=  402 AccDes= 0.00D+00 IRadAn=         5 IDoV= 1 UseB2=F ITyADJ=14
 ICtDFT=  3500011 ScaDFX=  1.000000  1.000000  1.000000  1.000000
 FoFCou: FMM=F IPFlag=           0 FMFlag=      100000 FMFlg1=           0
         NFxFlg=           0 DoJE=T BraDBF=F KetDBF=T FulRan=T
         wScrn=  0.000000 ICntrl=       500 IOpCl=  0 I1Cent=   200000004 NGrid=           0
         NMat0=    1 NMatS0=      1 NMatT0=    0 NMatD0=    1 NMtDS0=    0 NMtDT0=    0
 Symmetry not used in FoFCou.
 Harris En= -169.687461606614    
 JPrj=0 DoOrth=F DoCkMO=F.
 Initial guess <Sx>= 0.0000 <Sy>= 0.0000 <Sz>= 0.0000 <S**2>= 0.0000 S= 0.0000
 Leave Link  401 at Tue Jan  3 09:04:13 2023, MaxMem=   536870912 cpu:               0.8 elap:               0.4
 (Enter /opt/software/gaussian/g16.c01/l502.exe)
 Keep R1 and R2 ints in memory in canonical form, NReq=4504806.
 FoFCou: FMM=F IPFlag=           0 FMFlag=           0 FMFlg1=           0
         NFxFlg=           0 DoJE=F BraDBF=F KetDBF=F FulRan=T
         wScrn=  0.000000 ICntrl=       600 IOpCl=  0 I1Cent=           0 NGrid=           0
         NMat0=    1 NMatS0=   1653 NMatT0=    0 NMatD0=    1 NMtDS0=    0 NMtDT0=    0
 Symmetry not used in FoFCou.
 Two-electron integral symmetry not used.
 UHF open shell SCF:
 Using DIIS extrapolation, IDIIS=  1040.
 NGot=   536870912 LenX=   534128512 LenY=   534124471
 Requested convergence on RMS density matrix=1.00D-08 within 128 cycles.
 Requested convergence on MAX density matrix=1.00D-06.
 Requested convergence on             energy=1.00D-06.
 No special actions if energy rises.
 Integral accuracy reduced to 1.0D-05 until final iterations.

 Cycle   1  Pass 0  IDiag  1:
 E= -169.581735772676    
 DIIS: error= 4.07D-02 at cycle   1 NSaved=   1.
 NSaved= 1 IEnMin= 1 EnMin= -169.581735772676     IErMin= 1 ErrMin= 4.07D-02
 ErrMax= 4.07D-02  0.00D+00 EMaxC= 1.00D-01 BMatC= 4.10D-01 BMatP= 4.10D-01
 IDIUse=3 WtCom= 5.93D-01 WtEn= 4.07D-01
 Coeff-Com:  0.100D+01
 Coeff-En:   0.100D+01
 Coeff:      0.100D+01
 Gap=     0.139 Goal=   None    Shift=    0.000
 Gap=     0.139 Goal=   None    Shift=    0.000
 GapD=    0.139 DampG=1.000 DampE=0.500 DampFc=0.5000 IDamp=-1.
 Damping current iteration by 5.00D-01
 RMSDP=1.52D-02 MaxDP=2.06D-01              OVMax= 3.00D-01

 Cycle   2  Pass 0  IDiag  1:
 E= -169.578140035770     Delta-E=        0.003595736906 Rises=F Damp=T
 DIIS: error= 2.46D-02 at cycle   2 NSaved=   2.
 NSaved= 2 IEnMin= 1 EnMin= -169.581735772676     IErMin= 2 ErrMin= 2.46D-02
 ErrMax= 2.46D-02  0.00D+00 EMaxC= 1.00D-01 BMatC= 1.41D-01 BMatP= 4.10D-01
 IDIUse=3 WtCom= 7.54D-01 WtEn= 2.46D-01
 Coeff-Com:  0.338D+00 0.662D+00
 Coeff-En:   0.516D+00 0.484D+00
 Coeff:      0.382D+00 0.618D+00
 Gap=     0.288 Goal=   None    Shift=    0.000
 Gap=     0.288 Goal=   None    Shift=    0.000
 RMSDP=5.38D-03 MaxDP=8.20D-02 DE= 3.60D-03 OVMax= 3.04D-01

 Cycle   3  Pass 0  IDiag  1:
 E= -169.636603323940     Delta-E=       -0.058463288170 Rises=F Damp=F
 DIIS: error= 2.18D-02 at cycle   3 NSaved=   3.
 NSaved= 3 IEnMin= 3 EnMin= -169.636603323940     IErMin= 3 ErrMin= 2.18D-02
 ErrMax= 2.18D-02  0.00D+00 EMaxC= 1.00D-01 BMatC= 1.22D-01 BMatP= 1.41D-01
 IDIUse=3 WtCom= 7.82D-01 WtEn= 2.18D-01
 EnCoef did     2 forward-backward iterations
 Coeff-Com:  0.173D+00 0.452D+00 0.375D+00
 Coeff-En:   0.639D-01 0.126D+00 0.810D+00
 Coeff:      0.149D+00 0.381D+00 0.470D+00
 Gap=     0.193 Goal=   None    Shift=    0.000
 Gap=     0.193 Goal=   None    Shift=    0.000
 RMSDP=4.28D-03 MaxDP=8.20D-02 DE=-5.85D-02 OVMax= 1.70D-01

 Cycle   4  Pass 0  IDiag  1:
 E= -169.659728558304     Delta-E=       -0.023125234364 Rises=F Damp=F
 DIIS: error= 1.21D-02 at cycle   4 NSaved=   4.
 NSaved= 4 IEnMin= 4 EnMin= -169.659728558304     IErMin= 4 ErrMin= 1.21D-02
 ErrMax= 1.21D-02  0.00D+00 EMaxC= 1.00D-01 BMatC= 4.12D-02 BMatP= 1.22D-01
 IDIUse=3 WtCom= 8.79D-01 WtEn= 1.21D-01
 Coeff-Com:  0.666D-01 0.143D+00 0.345D+00 0.446D+00
 Coeff-En:   0.000D+00 0.000D+00 0.291D+00 0.709D+00
 Coeff:      0.586D-01 0.125D+00 0.338D+00 0.478D+00
 Gap=     0.201 Goal=   None    Shift=    0.000
 Gap=     0.201 Goal=   None    Shift=    0.000
 RMSDP=1.73D-03 MaxDP=2.95D-02 DE=-2.31D-02 OVMax= 6.71D-02

 Cycle   5  Pass 0  IDiag  1:
 E= -169.669580450918     Delta-E=       -0.009851892614 Rises=F Damp=F
 DIIS: error= 1.50D-03 at cycle   5 NSaved=   5.
 NSaved= 5 IEnMin= 5 EnMin= -169.669580450918     IErMin= 5 ErrMin= 1.50D-03
 ErrMax= 1.50D-03  0.00D+00 EMaxC= 1.00D-01 BMatC= 1.00D-03 BMatP= 4.12D-02
 IDIUse=3 WtCom= 9.85D-01 WtEn= 1.50D-02
 Coeff-Com:  0.606D-02 0.104D-01 0.108D+00 0.236D+00 0.640D+00
 Coeff-En:   0.000D+00 0.000D+00 0.000D+00 0.000D+00 0.100D+01
 Coeff:      0.597D-02 0.102D-01 0.106D+00 0.232D+00 0.645D+00
 Gap=     0.203 Goal=   None    Shift=    0.000
 Gap=     0.203 Goal=   None    Shift=    0.000
 RMSDP=2.80D-04 MaxDP=4.01D-03 DE=-9.85D-03 OVMax= 8.36D-03

 Cycle   6  Pass 0  IDiag  1:
 E= -169.669809212423     Delta-E=       -0.000228761505 Rises=F Damp=F
 DIIS: error= 3.39D-04 at cycle   6 NSaved=   6.
 NSaved= 6 IEnMin= 6 EnMin= -169.669809212423     IErMin= 6 ErrMin= 3.39D-04
 ErrMax= 3.39D-04  0.00D+00 EMaxC= 1.00D-01 BMatC= 3.30D-05 BMatP= 1.00D-03
 IDIUse=3 WtCom= 9.97D-01 WtEn= 3.39D-03
 Coeff-Com: -0.186D-02-0.302D-02 0.980D-02 0.242D-01 0.195D+00 0.776D+00
 Coeff-En:   0.000D+00 0.000D+00 0.000D+00 0.000D+00 0.000D+00 0.100D+01
 Coeff:     -0.186D-02-0.301D-02 0.976D-02 0.241D-01 0.194D+00 0.777D+00
 Gap=     0.203 Goal=   None    Shift=    0.000
 Gap=     0.203 Goal=   None    Shift=    0.000
 RMSDP=4.46D-05 MaxDP=4.62D-04 DE=-2.29D-04 OVMax= 1.12D-03

 Cycle   7  Pass 0  IDiag  1:
 E= -169.669816655368     Delta-E=       -0.000007442945 Rises=F Damp=F
 DIIS: error= 3.12D-05 at cycle   7 NSaved=   7.
 NSaved= 7 IEnMin= 7 EnMin= -169.669816655368     IErMin= 7 ErrMin= 3.12D-05
 ErrMax= 3.12D-05  0.00D+00 EMaxC= 1.00D-01 BMatC= 2.40D-07 BMatP= 3.30D-05
 IDIUse=1 WtCom= 1.00D+00 WtEn= 0.00D+00
 Coeff-Com: -0.279D-03-0.212D-03 0.130D-03-0.161D-02 0.156D-01 0.890D-01
 Coeff-Com:  0.897D+00
 Coeff:     -0.279D-03-0.212D-03 0.130D-03-0.161D-02 0.156D-01 0.890D-01
 Coeff:      0.897D+00
 Gap=     0.203 Goal=   None    Shift=    0.000
 Gap=     0.203 Goal=   None    Shift=    0.000
 RMSDP=5.18D-06 MaxDP=6.15D-05 DE=-7.44D-06 OVMax= 1.53D-04

 Initial convergence to 1.0D-05 achieved.  Increase integral accuracy.
 Cycle   8  Pass 1  IDiag  1:
 E= -169.669818088990     Delta-E=       -0.000001433622 Rises=F Damp=F
 DIIS: error= 5.21D-06 at cycle   1 NSaved=   1.
 NSaved= 1 IEnMin= 1 EnMin= -169.669818088990     IErMin= 1 ErrMin= 5.21D-06
 ErrMax= 5.21D-06  0.00D+00 EMaxC= 1.00D-01 BMatC= 6.69D-09 BMatP= 6.69D-09
 IDIUse=1 WtCom= 1.00D+00 WtEn= 0.00D+00
 Coeff-Com:  0.100D+01
 Coeff:      0.100D+01
 Gap=     0.203 Goal=   None    Shift=    0.000
 Gap=     0.203 Goal=   None    Shift=    0.000
 RMSDP=5.18D-06 MaxDP=6.15D-05 DE=-1.43D-06 OVMax= 6.85D-05

 Cycle   9  Pass 1  IDiag  1:
 E= -169.669818084632     Delta-E=        0.000000004358 Rises=F Damp=F
 DIIS: error= 1.20D-05 at cycle   2 NSaved=   2.
 NSaved= 2 IEnMin= 1 EnMin= -169.669818088990     IErMin= 1 ErrMin= 5.21D-06
 ErrMax= 1.20D-05  0.00D+00 EMaxC= 1.00D-01 BMatC= 2.84D-08 BMatP= 6.69D-09
 IDIUse=1 WtCom= 1.00D+00 WtEn= 0.00D+00
 Coeff-Com:  0.691D+00 0.309D+00
 Coeff:      0.691D+00 0.309D+00
 Gap=     0.203 Goal=   None    Shift=    0.000
 Gap=     0.203 Goal=   None    Shift=    0.000
 RMSDP=1.47D-06 MaxDP=2.61D-05 DE= 4.36D-09 OVMax= 5.45D-05

 Cycle  10  Pass 1  IDiag  1:
 E= -169.669818090524     Delta-E=       -0.000000005892 Rises=F Damp=F
 DIIS: error= 2.33D-06 at cycle   3 NSaved=   3.
 NSaved= 3 IEnMin= 3 EnMin= -169.669818090524     IErMin= 3 ErrMin= 2.33D-06
 ErrMax= 2.33D-06  0.00D+00 EMaxC= 1.00D-01 BMatC= 1.33D-09 BMatP= 6.69D-09
 IDIUse=1 WtCom= 1.00D+00 WtEn= 0.00D+00
 Coeff-Com:  0.253D+00 0.189D+00 0.559D+00
 Coeff:      0.253D+00 0.189D+00 0.559D+00
 Gap=     0.203 Goal=   None    Shift=    0.000
 Gap=     0.203 Goal=   None    Shift=    0.000
 RMSDP=3.31D-07 MaxDP=6.29D-06 DE=-5.89D-09 OVMax= 1.26D-05

 Cycle  11  Pass 1  IDiag  1:
 E= -169.669818090811     Delta-E=       -0.000000000287 Rises=F Damp=F
 DIIS: error= 6.63D-07 at cycle   4 NSaved=   4.
 NSaved= 4 IEnMin= 4 EnMin= -169.669818090811     IErMin= 4 ErrMin= 6.63D-07
 ErrMax= 6.63D-07  0.00D+00 EMaxC= 1.00D-01 BMatC= 1.31D-10 BMatP= 1.33D-09
 IDIUse=1 WtCom= 1.00D+00 WtEn= 0.00D+00
 Coeff-Com:  0.976D-01 0.831D-01 0.341D+00 0.478D+00
 Coeff:      0.976D-01 0.831D-01 0.341D+00 0.478D+00
 Gap=     0.203 Goal=   None    Shift=    0.000
 Gap=     0.203 Goal=   None    Shift=    0.000
 RMSDP=9.19D-08 MaxDP=1.66D-06 DE=-2.87D-10 OVMax= 2.99D-06

 Cycle  12  Pass 1  IDiag  1:
 E= -169.669818090841     Delta-E=       -0.000000000030 Rises=F Damp=F
 DIIS: error= 1.73D-07 at cycle   5 NSaved=   5.
 NSaved= 5 IEnMin= 5 EnMin= -169.669818090841     IErMin= 5 ErrMin= 1.73D-07
 ErrMax= 1.73D-07  0.00D+00 EMaxC= 1.00D-01 BMatC= 5.62D-12 BMatP= 1.31D-10
 IDIUse=1 WtCom= 1.00D+00 WtEn= 0.00D+00
 Coeff-Com: -0.924D-02-0.452D-02 0.322D-01 0.194D+00 0.788D+00
 Coeff:     -0.924D-02-0.452D-02 0.322D-01 0.194D+00 0.788D+00
 Gap=     0.203 Goal=   None    Shift=    0.000
 Gap=     0.203 Goal=   None    Shift=    0.000
 RMSDP=2.34D-08 MaxDP=4.51D-07 DE=-3.04D-11 OVMax= 5.84D-07

 Cycle  13  Pass 1  IDiag  1:
 E= -169.669818090843     Delta-E=       -0.000000000002 Rises=F Damp=F
 DIIS: error= 3.99D-08 at cycle   6 NSaved=   6.
 NSaved= 6 IEnMin= 6 EnMin= -169.669818090843     IErMin= 6 ErrMin= 3.99D-08
 ErrMax= 3.99D-08  0.00D+00 EMaxC= 1.00D-01 BMatC= 5.72D-13 BMatP= 5.62D-12
 IDIUse=1 WtCom= 1.00D+00 WtEn= 0.00D+00
 Coeff-Com: -0.755D-02-0.411D-02 0.175D-03 0.641D-01 0.349D+00 0.598D+00
 Coeff:     -0.755D-02-0.411D-02 0.175D-03 0.641D-01 0.349D+00 0.598D+00
 Gap=     0.203 Goal=   None    Shift=    0.000
 Gap=     0.203 Goal=   None    Shift=    0.000
 RMSDP=7.11D-09 MaxDP=9.04D-08 DE=-1.76D-12 OVMax= 1.24D-07

 SCF Done:  E(UB3LYP) =  -169.669818091     A.U. after   13 cycles
            NFock= 13  Conv=0.71D-08     -V/T= 2.0081
 <Sx>= 0.0000 <Sy>= 0.0000 <Sz>= 0.0000 <S**2>=-0.0000 S=-0.0000
 <L.S>=  0.00000000000    
 KE= 1.683139290975D+02 PE=-5.419233866141D+02 EE= 1.315869879838D+02
 Annihilation of the first spin contaminant:
 S**2 before annihilation     0.0000,   after    -0.0000
 Leave Link  502 at Tue Jan  3 09:04:16 2023, MaxMem=   536870912 cpu:               6.8 elap:               3.4
 (Enter /opt/software/gaussian/g16.c01/l508.exe)
 QCSCF skips out because SCF is already converged.
 Leave Link  508 at Tue Jan  3 09:04:16 2023, MaxMem=   536870912 cpu:               0.0 elap:               0.0
 (Enter /opt/software/gaussian/g16.c01/l601.exe)
 Copying SCF densities to generalized density rwf, IOpCl= 1 IROHF=0.

 **********************************************************************

            Population analysis using the SCF Density.

 **********************************************************************

 Alpha  occ. eigenvalues --  -19.10995 -14.47470 -10.22878  -1.10665  -0.85588
 Alpha  occ. eigenvalues --   -0.66026  -0.54719  -0.47879  -0.45845  -0.42013
 Alpha  occ. eigenvalues --   -0.25495  -0.23284
 Alpha virt. eigenvalues --   -0.02958   0.03382   0.08938   0.12556   0.22925
 Alpha virt. eigenvalues --    0.27271   0.41305   0.47508   0.49251   0.55261
 Alpha virt. eigenvalues --    0.60324   0.63569   0.64835   0.73528   0.76089
 Alpha virt. eigenvalues --    0.93899   0.96184   1.00421   1.07751   1.16440
 Alpha virt. eigenvalues --    1.22576   1.27651   1.31625   1.50990   1.51916
 Alpha virt. eigenvalues --    1.63194   1.81190   1.85695   1.92122   1.92961
 Alpha virt. eigenvalues --    2.04965   2.10411   2.30700   2.32933   2.50065
 Alpha virt. eigenvalues --    2.50191   2.63016   2.72867   2.77632   2.84505
 Alpha virt. eigenvalues --    2.98974   3.18925   3.22247   3.48932   3.75365
  Beta  occ. eigenvalues --  -19.10995 -14.47470 -10.22878  -1.10665  -0.85588
  Beta  occ. eigenvalues --   -0.66026  -0.54719  -0.47879  -0.45845  -0.42013
  Beta  occ. eigenvalues --   -0.25495  -0.23284
  Beta virt. eigenvalues --   -0.02958   0.03382   0.08938   0.12556   0.22925
  Beta virt. eigenvalues --    0.27271   0.41305   0.47508   0.49251   0.55261
  Beta virt. eigenvalues --    0.60324   0.63569   0.64835   0.73528   0.76089
  Beta virt. eigenvalues --    0.93899   0.96184   1.00421   1.07751   1.16440
  Beta virt. eigenvalues --    1.22576   1.27651   1.31625   1.50990   1.51916
  Beta virt. eigenvalues --    1.63194   1.81190   1.85695   1.92122   1.92961
  Beta virt. eigenvalues --    2.04965   2.10411   2.30700   2.32933   2.50065
  Beta virt. eigenvalues --    2.50191   2.63016   2.72867   2.77632   2.84505
  Beta virt. eigenvalues --    2.98974   3.18925   3.22247   3.48932   3.75365
          Condensed to atoms (all electrons):
               1          2          3          4          5          6
     1  C    4.872271   0.562476  -0.054355  -0.077483   0.359673   0.376931
     2  N    0.562476   5.668353   0.332360   0.262130  -0.016400  -0.013904
     3  H   -0.054355   0.332360   0.632054  -0.043730  -0.001663   0.010691
     4  O   -0.077483   0.262130  -0.043730   8.224763   0.005903   0.006245
     5  H    0.359673  -0.016400  -0.001663   0.005903   0.652808  -0.035149
     6  H    0.376931  -0.013904   0.010691   0.006245  -0.035149   0.602300
          Atomic-Atomic Spin Densities.
               1          2          3          4          5          6
     1  C   -0.000000  -0.000000   0.000000  -0.000000   0.000000   0.000000
     2  N   -0.000000   0.000000  -0.000000  -0.000000  -0.000000   0.000000
     3  H    0.000000  -0.000000   0.000000   0.000000   0.000000  -0.000000
     4  O   -0.000000  -0.000000   0.000000  -0.000000  -0.000000  -0.000000
     5  H    0.000000  -0.000000   0.000000  -0.000000  -0.000000  -0.000000
     6  H    0.000000   0.000000  -0.000000  -0.000000  -0.000000  -0.000000
 Mulliken charges and spin densities:
               1          2
     1  C   -0.039513  -0.000000
     2  N    0.204984   0.000000
     3  H    0.124643   0.000000
     4  O   -0.377828  -0.000000
     5  H    0.034828  -0.000000
     6  H    0.052885  -0.000000
 Sum of Mulliken charges =   0.00000   0.00000
 Mulliken charges and spin densities with hydrogens summed into heavy atoms:
               1          2
     1  C    0.048200  -0.000000
     2  N    0.329628   0.000000
     4  O   -0.377828  -0.000000
 Electronic spatial extent (au):  <R**2>=            514.4708
 Charge=             -0.0000 electrons
 Dipole moment (field-independent basis, Debye):
    X=             -1.6602    Y=              0.6506    Z=             -2.8213  Tot=              3.3376
 Quadrupole moment (field-independent basis, Debye-Ang):
   XX=            -24.6516   YY=            -18.5750   ZZ=            -18.6472
   XY=              2.1111   XZ=             -8.8775   YZ=              0.1379
 Traceless Quadrupole moment (field-independent basis, Debye-Ang):
   XX=             -4.0270   YY=              2.0496   ZZ=              1.9774
   XY=              2.1111   XZ=             -8.8775   YZ=              0.1379
 Octapole moment (field-independent basis, Debye-Ang**2):
  XXX=           -128.9414  YYY=              6.4134  ZZZ=            -22.1868  XYY=            -35.2391
  XXY=              8.5386  XXZ=            -32.9259  XZZ=            -39.6687  YZZ=              3.0087
  YYZ=             -6.3297  XYZ=              1.4581
 Hexadecapole moment (field-independent basis, Debye-Ang**3):
 XXXX=           -599.3779 YYYY=            -19.6582 ZZZZ=            -64.8453 XXXY=             35.5331
 XXXZ=           -132.6405 YYYX=             16.2002 YYYZ=              6.2153 ZZZX=            -63.0453
 ZZZY=              6.5691 XXYY=            -88.9914 XXZZ=           -111.2674 YYZZ=            -14.0301
 XXYZ=              6.8389 YYXZ=            -18.0578 ZZXY=              8.0443
 N-N= 7.235265144198D+01 E-N=-5.419233902410D+02  KE= 1.683139290975D+02
                          Isotropic Fermi Contact Couplings
        Atom                 a.u.       MegaHertz       Gauss      10(-4) cm-1
     1  C(13)             -0.00000      -0.00000      -0.00000      -0.00000
     2  N(14)             -0.00000      -0.00000      -0.00000      -0.00000
     3  H(1)               0.00000       0.00000       0.00000       0.00000
     4  O(17)             -0.00000       0.00000       0.00000       0.00000
     5  H(1)               0.00000       0.00000       0.00000       0.00000
     6  H(1)               0.00000       0.00000       0.00000       0.00000
 --------------------------------------------------------
       Center         ----  Spin Dipole Couplings  ----
                      3XX-RR        3YY-RR        3ZZ-RR
 --------------------------------------------------------
     1   Atom        0.000000      0.000000      0.000000
     2   Atom        0.000000      0.000000      0.000000
     3   Atom        0.000000      0.000000      0.000000
     4   Atom        0.000000      0.000000      0.000000
     5   Atom        0.000000      0.000000      0.000000
     6   Atom        0.000000      0.000000      0.000000
 --------------------------------------------------------
                        XY            XZ            YZ
 --------------------------------------------------------
     1   Atom        0.000000      0.000000      0.000000
     2   Atom        0.000000      0.000000      0.000000
     3   Atom        0.000000      0.000000      0.000000
     4   Atom        0.000000      0.000000      0.000000
     5   Atom        0.000000      0.000000      0.000000
     6   Atom        0.000000      0.000000      0.000000
 --------------------------------------------------------


 ---------------------------------------------------------------------------------
              Anisotropic Spin Dipole Couplings in Principal Axis System
 ---------------------------------------------------------------------------------

       Atom             a.u.   MegaHertz   Gauss  10(-4) cm-1        Axes

              Baa     0.0000     0.000     0.000     0.000  1.0000  0.0000  0.0000
     1 C(13)  Bbb     0.0000     0.000     0.000     0.000 -0.0000  1.0000  0.0000
              Bcc     0.0000     0.000     0.000     0.000  0.0000  0.0000  1.0000
 
              Baa     0.0000     0.000     0.000     0.000  1.0000  0.0000  0.0000
     2 N(14)  Bbb     0.0000     0.000     0.000     0.000 -0.0000  1.0000  0.0000
              Bcc     0.0000     0.000     0.000     0.000  0.0000  0.0000  1.0000
 
              Baa     0.0000     0.000     0.000     0.000  1.0000  0.0000  0.0000
     3 H(1)   Bbb     0.0000     0.000     0.000     0.000 -0.0000  1.0000  0.0000
              Bcc     0.0000     0.000     0.000     0.000  0.0000  0.0000  1.0000
 
              Baa     0.0000    -0.000    -0.000    -0.000  1.0000  0.0000  0.0000
     4 O(17)  Bbb     0.0000    -0.000    -0.000    -0.000 -0.0000  1.0000  0.0000
              Bcc     0.0000    -0.000    -0.000    -0.000  0.0000  0.0000  1.0000
 
              Baa     0.0000     0.000     0.000     0.000  1.0000  0.0000  0.0000
     5 H(1)   Bbb     0.0000     0.000     0.000     0.000 -0.0000  1.0000  0.0000
              Bcc     0.0000     0.000     0.000     0.000  0.0000  0.0000  1.0000
 
              Baa     0.0000     0.000     0.000     0.000  1.0000  0.0000  0.0000
     6 H(1)   Bbb     0.0000     0.000     0.000     0.000 -0.0000  1.0000  0.0000
              Bcc     0.0000     0.000     0.000     0.000  0.0000  0.0000  1.0000
 

 ---------------------------------------------------------------------------------

 No NMR shielding tensors so no spin-rotation constants.
 Leave Link  601 at Tue Jan  3 09:04:17 2023, MaxMem=   536870912 cpu:               0.3 elap:               0.1
 (Enter /opt/software/gaussian/g16.c01/l801.exe)
 DoSCS=F DFT=T ScalE2(SS,OS)=  1.000000  1.000000
 Range of M.O.s used for correlation:     1    57
 NBasis=    57 NAE=    12 NBE=    12 NFC=     0 NFV=     0
 NROrb=     57 NOA=    12 NOB=    12 NVA=    45 NVB=    45
 Leave Link  801 at Tue Jan  3 09:04:17 2023, MaxMem=   536870912 cpu:               0.1 elap:               0.0
 (Enter /opt/software/gaussian/g16.c01/l914.exe)
 UHF ground state
 Doing stability rather than CIS.
 Keep R1 and R2 ints in memory in canonical form, NReq=5045792.
 FoFCou: FMM=F IPFlag=           0 FMFlag=           0 FMFlg1=           0
         NFxFlg=           0 DoJE=F BraDBF=F KetDBF=F FulRan=T
         wScrn=  0.000000 ICntrl=       600 IOpCl=  0 I1Cent=           0 NGrid=           0
         NMat0=    1 NMatS0=   1653 NMatT0=    0 NMatD0=    1 NMtDS0=    0 NMtDT0=    0
 Symmetry not used in FoFCou.
 Two-electron integral symmetry not used.
 MDV=   536870912 DFT=T DoStab=T Mixed=T DoRPA=F DoScal=F NonHer=F
 Making orbital integer symmetry assigments:
    12 initial guesses have been made.
 Convergence on wavefunction:    0.001000000000000
 Davidson Disk Diagonalization:  ConvIn= 1.00D-03 SkipCon=T Conv= 1.00D-03.
 Max sub-space:  2000 roots to seek:    12 dimension of matrix:         1080
 Iteration     1 Dimension    12 NMult     0 NNew     12
 CISAX will form    12 AO SS matrices at one time.
 NMat=    12 NSing=    12 JSym2X= 0.
 New state      1 was old state      2
 Excitation Energies [eV] at current iteration:
 Root      1 :     1.444430749769321
 Root      2 :     3.674558144212400
 Root      3 :     4.569790080636389
 Root      4 :     5.883209322643853
 Root      5 :     6.028308078082235
 Root      6 :     6.210021042817720
 Root      7 :     7.115248419314946
 Root      8 :     7.267298533751262
 Root      9 :     7.948006414950829
 Root     10 :     8.286526727345668
 Root     11 :     8.370971784823574
 Root     12 :    16.122368252696631
 Iteration     2 Dimension    24 NMult    12 NNew     12
 CISAX will form    12 AO SS matrices at one time.
 NMat=    12 NSing=    12 JSym2X= 0.
 Root      1 not converged, maximum delta is    0.050660020963160
 Excitation Energies [eV] at current iteration:
 Root      1 :     1.159736834353079   Change is   -0.284693915416242
 Root      2 :     3.545285168292713   Change is   -0.129272975919686
 Root      3 :     4.540836013219224   Change is   -0.028954067417165
 Root      4 :     5.819792461311926   Change is   -0.063416861331927
 Root      5 :     6.014150333702110   Change is   -0.195870709115610
 Root      6 :     6.015731917712371   Change is   -0.012576160369864
 Root      7 :     6.776500366450407   Change is   -0.338748052864538
 Root      8 :     7.093412756464171   Change is   -0.173885777287091
 Root      9 :     7.792337777564521   Change is   -0.155668637386307
 Root     10 :     8.176206156983071   Change is   -0.194765627840503
 Root     11 :     8.223102319945561   Change is   -0.063424407400108
 Root     12 :    11.281019011748525   Change is   -4.841349240948106
 Iteration     3 Dimension    27 NMult    24 NNew      3
 CISAX will form     3 AO SS matrices at one time.
 NMat=     3 NSing=     3 JSym2X= 0.
 Root      1 not converged, maximum delta is    0.010933972641726
 Excitation Energies [eV] at current iteration:
 Root      1 :     1.152973806838498   Change is   -0.006763027514580
 Root      2 :     3.544408347455725   Change is   -0.000876820836988
 Root      3 :     4.540030385213774   Change is   -0.000805628005450
 Iteration     4 Dimension    30 NMult    27 NNew      3
 CISAX will form     3 AO SS matrices at one time.
 NMat=     3 NSing=     3 JSym2X= 0.
 Root      1 not converged, maximum delta is    0.002588463958140
 Excitation Energies [eV] at current iteration:
 Root      1 :     1.152705266327238   Change is   -0.000268540511260
 Root      2 :     3.544377692803832   Change is   -0.000030654651894
 Root      3 :     4.539999363865181   Change is   -0.000031021348594
 Iteration     5 Dimension    33 NMult    30 NNew      3
 CISAX will form     3 AO SS matrices at one time.
 NMat=     3 NSing=     3 JSym2X= 0.
 Root      1 has converged.
 Excitation Energies [eV] at current iteration:
 Root      1 :     1.152697162412985   Change is   -0.000008103914254
 Root      2 :     3.544377208643707   Change is   -0.000000484160125
 Root      3 :     4.539998176182837   Change is   -0.000001187682344
 Convergence achieved on expansion vectors.
 ***********************************************************************
 Stability analysis using <AA,BB:AA,BB> singles matrix:
 ***********************************************************************
 1PDM for each excited state written to RWF  633
 Ground to excited state transition densities written to RWF  633

 Eigenvectors of the stability matrix:
 
 Excited state symmetry could not be determined.
 Eigenvector   1:  3.000-?Sym  Eigenvalue= 0.0423608  <S**2>=2.000
     12A -> 13A       -0.70104
     12B -> 13B        0.70104
 The wavefunction is stable under the perturbations considered.
 Leave Link  914 at Tue Jan  3 09:04:31 2023, MaxMem=   536870912 cpu:              28.6 elap:              14.3
 (Enter /opt/software/gaussian/g16.c01/l508.exe)
 The wavefunction is already stable.
 Leave Link  508 at Tue Jan  3 09:04:31 2023, MaxMem=   536870912 cpu:               0.0 elap:               0.0
 (Enter /opt/software/gaussian/g16.c01/l601.exe)
 Copying SCF densities to generalized density rwf, IOpCl= 1 IROHF=0.

 **********************************************************************

            Population analysis using the SCF Density.

 **********************************************************************

 Alpha  occ. eigenvalues --  -19.10995 -14.47470 -10.22878  -1.10665  -0.85588
 Alpha  occ. eigenvalues --   -0.66026  -0.54719  -0.47879  -0.45845  -0.42013
 Alpha  occ. eigenvalues --   -0.25495  -0.23284
 Alpha virt. eigenvalues --   -0.02958   0.03382   0.08938   0.12556   0.22925
 Alpha virt. eigenvalues --    0.27271   0.41305   0.47508   0.49251   0.55261
 Alpha virt. eigenvalues --    0.60324   0.63569   0.64835   0.73528   0.76089
 Alpha virt. eigenvalues --    0.93899   0.96184   1.00421   1.07751   1.16440
 Alpha virt. eigenvalues --    1.22576   1.27651   1.31625   1.50990   1.51916
 Alpha virt. eigenvalues --    1.63194   1.81190   1.85695   1.92122   1.92961
 Alpha virt. eigenvalues --    2.04965   2.10411   2.30700   2.32933   2.50065
 Alpha virt. eigenvalues --    2.50191   2.63016   2.72867   2.77632   2.84505
 Alpha virt. eigenvalues --    2.98974   3.18925   3.22247   3.48932   3.75365
  Beta  occ. eigenvalues --  -19.10995 -14.47470 -10.22878  -1.10665  -0.85588
  Beta  occ. eigenvalues --   -0.66026  -0.54719  -0.47879  -0.45845  -0.42013
  Beta  occ. eigenvalues --   -0.25495  -0.23284
  Beta virt. eigenvalues --   -0.02958   0.03382   0.08938   0.12556   0.22925
  Beta virt. eigenvalues --    0.27271   0.41305   0.47508   0.49251   0.55261
  Beta virt. eigenvalues --    0.60324   0.63569   0.64835   0.73528   0.76089
  Beta virt. eigenvalues --    0.93899   0.96184   1.00421   1.07751   1.16440
  Beta virt. eigenvalues --    1.22576   1.27651   1.31625   1.50990   1.51916
  Beta virt. eigenvalues --    1.63194   1.81190   1.85695   1.92122   1.92961
  Beta virt. eigenvalues --    2.04965   2.10411   2.30700   2.32933   2.50065
  Beta virt. eigenvalues --    2.50191   2.63016   2.72867   2.77632   2.84505
  Beta virt. eigenvalues --    2.98974   3.18925   3.22247   3.48932   3.75365
          Condensed to atoms (all electrons):
               1          2          3          4          5          6
     1  C    4.872271   0.562476  -0.054355  -0.077483   0.359673   0.376931
     2  N    0.562476   5.668353   0.332360   0.262130  -0.016400  -0.013904
     3  H   -0.054355   0.332360   0.632054  -0.043730  -0.001663   0.010691
     4  O   -0.077483   0.262130  -0.043730   8.224763   0.005903   0.006245
     5  H    0.359673  -0.016400  -0.001663   0.005903   0.652808  -0.035149
     6  H    0.376931  -0.013904   0.010691   0.006245  -0.035149   0.602300
          Atomic-Atomic Spin Densities.
               1          2          3          4          5          6
     1  C   -0.000000  -0.000000   0.000000  -0.000000   0.000000   0.000000
     2  N   -0.000000   0.000000  -0.000000  -0.000000  -0.000000   0.000000
     3  H    0.000000  -0.000000   0.000000   0.000000   0.000000  -0.000000
     4  O   -0.000000  -0.000000   0.000000  -0.000000  -0.000000  -0.000000
     5  H    0.000000  -0.000000   0.000000  -0.000000  -0.000000  -0.000000
     6  H    0.000000   0.000000  -0.000000  -0.000000  -0.000000  -0.000000
 Mulliken charges and spin densities:
               1          2
     1  C   -0.039513  -0.000000
     2  N    0.204984   0.000000
     3  H    0.124643   0.000000
     4  O   -0.377828  -0.000000
     5  H    0.034828  -0.000000
     6  H    0.052885  -0.000000
 Sum of Mulliken charges =   0.00000   0.00000
 Mulliken charges and spin densities with hydrogens summed into heavy atoms:
               1          2
     1  C    0.048200  -0.000000
     2  N    0.329628   0.000000
     4  O   -0.377828  -0.000000
 Electronic spatial extent (au):  <R**2>=            514.4708
 Charge=             -0.0000 electrons
 Dipole moment (field-independent basis, Debye):
    X=             -1.6602    Y=              0.6506    Z=             -2.8213  Tot=              3.3376
 Quadrupole moment (field-independent basis, Debye-Ang):
   XX=            -24.6516   YY=            -18.5750   ZZ=            -18.6472
   XY=              2.1111   XZ=             -8.8775   YZ=              0.1379
 Traceless Quadrupole moment (field-independent basis, Debye-Ang):
   XX=             -4.0270   YY=              2.0496   ZZ=              1.9774
   XY=              2.1111   XZ=             -8.8775   YZ=              0.1379
 Octapole moment (field-independent basis, Debye-Ang**2):
  XXX=           -128.9414  YYY=              6.4134  ZZZ=            -22.1868  XYY=            -35.2391
  XXY=              8.5386  XXZ=            -32.9259  XZZ=            -39.6687  YZZ=              3.0087
  YYZ=             -6.3297  XYZ=              1.4581
 Hexadecapole moment (field-independent basis, Debye-Ang**3):
 XXXX=           -599.3779 YYYY=            -19.6582 ZZZZ=            -64.8453 XXXY=             35.5331
 XXXZ=           -132.6405 YYYX=             16.2002 YYYZ=              6.2153 ZZZX=            -63.0453
 ZZZY=              6.5691 XXYY=            -88.9914 XXZZ=           -111.2674 YYZZ=            -14.0301
 XXYZ=              6.8389 YYXZ=            -18.0578 ZZXY=              8.0443
 N-N= 7.235265144198D+01 E-N=-5.419233902410D+02  KE= 1.683139290975D+02
                          Isotropic Fermi Contact Couplings
        Atom                 a.u.       MegaHertz       Gauss      10(-4) cm-1
     1  C(13)             -0.00000      -0.00000      -0.00000      -0.00000
     2  N(14)             -0.00000      -0.00000      -0.00000      -0.00000
     3  H(1)               0.00000       0.00000       0.00000       0.00000
     4  O(17)             -0.00000       0.00000       0.00000       0.00000
     5  H(1)               0.00000       0.00000       0.00000       0.00000
     6  H(1)               0.00000       0.00000       0.00000       0.00000
 --------------------------------------------------------
       Center         ----  Spin Dipole Couplings  ----
                      3XX-RR        3YY-RR        3ZZ-RR
 --------------------------------------------------------
     1   Atom        0.000000      0.000000      0.000000
     2   Atom        0.000000      0.000000      0.000000
     3   Atom        0.000000      0.000000      0.000000
     4   Atom        0.000000      0.000000      0.000000
     5   Atom        0.000000      0.000000      0.000000
     6   Atom        0.000000      0.000000      0.000000
 --------------------------------------------------------
                        XY            XZ            YZ
 --------------------------------------------------------
     1   Atom        0.000000      0.000000      0.000000
     2   Atom        0.000000      0.000000      0.000000
     3   Atom        0.000000      0.000000      0.000000
     4   Atom        0.000000      0.000000      0.000000
     5   Atom        0.000000      0.000000      0.000000
     6   Atom        0.000000      0.000000      0.000000
 --------------------------------------------------------


 ---------------------------------------------------------------------------------
              Anisotropic Spin Dipole Couplings in Principal Axis System
 ---------------------------------------------------------------------------------

       Atom             a.u.   MegaHertz   Gauss  10(-4) cm-1        Axes

              Baa     0.0000     0.000     0.000     0.000  1.0000  0.0000  0.0000
     1 C(13)  Bbb     0.0000     0.000     0.000     0.000 -0.0000  1.0000  0.0000
              Bcc     0.0000     0.000     0.000     0.000  0.0000  0.0000  1.0000
 
              Baa     0.0000     0.000     0.000     0.000  1.0000  0.0000  0.0000
     2 N(14)  Bbb     0.0000     0.000     0.000     0.000 -0.0000  1.0000  0.0000
              Bcc     0.0000     0.000     0.000     0.000  0.0000  0.0000  1.0000
 
              Baa     0.0000     0.000     0.000     0.000  1.0000  0.0000  0.0000
     3 H(1)   Bbb     0.0000     0.000     0.000     0.000 -0.0000  1.0000  0.0000
              Bcc     0.0000     0.000     0.000     0.000  0.0000  0.0000  1.0000
 
              Baa     0.0000    -0.000    -0.000    -0.000  1.0000  0.0000  0.0000
     4 O(17)  Bbb     0.0000    -0.000    -0.000    -0.000 -0.0000  1.0000  0.0000
              Bcc     0.0000    -0.000    -0.000    -0.000  0.0000  0.0000  1.0000
 
              Baa     0.0000     0.000     0.000     0.000  1.0000  0.0000  0.0000
     5 H(1)   Bbb     0.0000     0.000     0.000     0.000 -0.0000  1.0000  0.0000
              Bcc     0.0000     0.000     0.000     0.000  0.0000  0.0000  1.0000
 
              Baa     0.0000     0.000     0.000     0.000  1.0000  0.0000  0.0000
     6 H(1)   Bbb     0.0000     0.000     0.000     0.000 -0.0000  1.0000  0.0000
              Bcc     0.0000     0.000     0.000     0.000  0.0000  0.0000  1.0000
 

 ---------------------------------------------------------------------------------

 No NMR shielding tensors so no spin-rotation constants.
 Leave Link  601 at Tue Jan  3 09:04:31 2023, MaxMem=   536870912 cpu:               0.3 elap:               0.2
 (Enter /opt/software/gaussian/g16.c01/l9999.exe)

 Test job not archived.
 1\1\GINC-GRA630\Stability\UB3LYP\Gen\C1H3N1O1\BHAVUK\03-Jan-2023\0\\#p
  ub3lyp/gen stable=opt scf=(maxcycle=900,verytightlineq,xqc) integral=
 grid=ultrafine symmetry=None density=current iop(99/18=-1) output=wfn\
 \0002_q000_m01_k00_opt_uwb97xd_def2svpd/0002_q000_m01_k00_force_ub3lyp
 _def2svp stable-force\\0,1\C,0,0.9341359983,-0.0506101672,0.0533916633
 \N,0,2.2303561638,-0.0607282973,0.0971529523\H,0,2.7104299206,0.144555
 1233,-0.7929401941\O,0,2.9768985022,-0.2863976361,1.0755945973\H,0,0.4
 602474304,0.169181767,-0.8998201368\H,0,0.383341983,-0.2613407898,0.96
 69611147\\Version=ES64L-G16RevC.01\HF=-169.6698181\S2=0.\S2-1=0.\S2A=0
 .\RMSD=7.111e-09\Dipole=-0.6531826,0.2559816,-1.1100035\Quadrupole=-2.
 9939615,1.5238241,1.4701374,1.5695458,-6.6002347,0.1025275\PG=Unknown\
 \@

 Writing a WFN file to "0002_q000_m01_k00_force_ub3lyp_def2svp.wfn"


 THE WORLD IS NOT A HAMBURGER - YOU CAN'T HAVE IT YOUR WAY.
 Job cpu time:       0 days  0 hours  0 minutes 38.5 seconds.
 Elapsed time:       0 days  0 hours  0 minutes 19.3 seconds.
 File lengths (MBytes):  RWF=     46 Int=      0 D2E=      0 Chk=      2 Scr=      1
 Normal termination of Gaussian 16 at Tue Jan  3 09:04:31 2023.
 Initial command:
 /opt/software/gaussian/g16.c01/l1.exe "/localscratch/bhavuk.2151354.0/Gau-11559.inp" -scrdir="/localscratch/bhavuk.2151354.0/"
 Entering Link 1 = /opt/software/gaussian/g16.c01/l1.exe PID=     11878.
  
 Copyright (c) 1988-2019, Gaussian, Inc.  All Rights Reserved.
  
 This is part of the Gaussian(R) 16 program.  It is based on
 the Gaussian(R) 09 system (copyright 2009, Gaussian, Inc.),
 the Gaussian(R) 03 system (copyright 2003, Gaussian, Inc.),
 the Gaussian(R) 98 system (copyright 1998, Gaussian, Inc.),
 the Gaussian(R) 94 system (copyright 1995, Gaussian, Inc.),
 the Gaussian 92(TM) system (copyright 1992, Gaussian, Inc.),
 the Gaussian 90(TM) system (copyright 1990, Gaussian, Inc.),
 the Gaussian 88(TM) system (copyright 1988, Gaussian, Inc.),
 the Gaussian 86(TM) system (copyright 1986, Carnegie Mellon
 University), and the Gaussian 82(TM) system (copyright 1983,
 Carnegie Mellon University). Gaussian is a federally registered
 trademark of Gaussian, Inc.
  
 This software contains proprietary and confidential information,
 including trade secrets, belonging to Gaussian, Inc.
  
 This software is provided under written license and may be
 used, copied, transmitted, or stored only in accord with that
 written license.
  
 The following legend is applicable only to US Government
 contracts under FAR:
  
                    RESTRICTED RIGHTS LEGEND
  
 Use, reproduction and disclosure by the US Government is
 subject to restrictions as set forth in subparagraphs (a)
 and (c) of the Commercial Computer Software - Restricted
 Rights clause in FAR 52.227-19.
  
 Gaussian, Inc.
 340 Quinnipiac St., Bldg. 40, Wallingford CT 06492
  
  
 ---------------------------------------------------------------
 Warning -- This program may not be used in any manner that
 competes with the business of Gaussian, Inc. or will provide
 assistance to any competitor of Gaussian, Inc.  The licensee
 of this program is prohibited from giving any competitor of
 Gaussian, Inc. access to this program.  By using this program,
 the user acknowledges that Gaussian, Inc. is engaged in the
 business of creating and licensing software in the field of
 computational chemistry and represents and warrants to the
 licensee that it is not a competitor of Gaussian, Inc. and that
 it will not use this program in any manner prohibited above.
 ---------------------------------------------------------------
  

 Cite this work as:
 Gaussian 16, Revision C.01,
 M. J. Frisch, G. W. Trucks, H. B. Schlegel, G. E. Scuseria, 
 M. A. Robb, J. R. Cheeseman, G. Scalmani, V. Barone, 
 G. A. Petersson, H. Nakatsuji, X. Li, M. Caricato, A. V. Marenich, 
 J. Bloino, B. G. Janesko, R. Gomperts, B. Mennucci, H. P. Hratchian, 
 J. V. Ortiz, A. F. Izmaylov, J. L. Sonnenberg, D. Williams-Young, 
 F. Ding, F. Lipparini, F. Egidi, J. Goings, B. Peng, A. Petrone, 
 T. Henderson, D. Ranasinghe, V. G. Zakrzewski, J. Gao, N. Rega, 
 G. Zheng, W. Liang, M. Hada, M. Ehara, K. Toyota, R. Fukuda, 
 J. Hasegawa, M. Ishida, T. Nakajima, Y. Honda, O. Kitao, H. Nakai, 
 T. Vreven, K. Throssell, J. A. Montgomery, Jr., J. E. Peralta, 
 F. Ogliaro, M. J. Bearpark, J. J. Heyd, E. N. Brothers, K. N. Kudin, 
 V. N. Staroverov, T. A. Keith, R. Kobayashi, J. Normand, 
 K. Raghavachari, A. P. Rendell, J. C. Burant, S. S. Iyengar, 
 J. Tomasi, M. Cossi, J. M. Millam, M. Klene, C. Adamo, R. Cammi, 
 J. W. Ochterski, R. L. Martin, K. Morokuma, O. Farkas, 
 J. B. Foresman, and D. J. Fox, Gaussian, Inc., Wallingford CT, 2019.
 
 ******************************************
 Gaussian 16:  ES64L-G16RevC.01  3-Jul-2019
                 3-Jan-2023 
 ******************************************
 %chk=0002_q000_m01_k00_force_ub3lyp_def2svp.chk
 %nprocshared=2
 Will use up to    2 processors via shared memory.
 %mem=4GB
 ----------------------------------------------------------------------
 #p ub3lyp/chkbasis force guess=read geom=check scf=(maxcycle=900,veryt
 ightlineq,xqc) integral=grid=ultrafine symmetry=None density=current p
 op=(cm5,hlygat,mbs,npa) output=wfx
 ----------------------------------------------------------------------
 1/10=7,29=2,30=1,38=1/1,3;
 2/12=2,15=3,40=1/2;
 3/5=7,6=2,11=2,14=-4,25=1,30=1,67=1,71=1,74=-5,75=-5,116=2/1,2,3;
 4/5=1/1;
 5/5=2,7=900,8=3,13=1,17=3,38=6/2,8;
 6/7=2,8=2,9=2,10=2,15=8,20=15,22=-1,27=100,28=1,40=-1,79=1/1,2,7;
 7/29=1,30=1/1,2,3,16;
 1/10=7,30=1/3;
 99/6=200/99;
 Leave Link    1 at Tue Jan  3 09:04:31 2023, MaxMem=   536870912 cpu:               0.1 elap:               0.1
 (Enter /opt/software/gaussian/g16.c01/l101.exe)
 ----------------------------------------------------------------------
 0002_q000_m01_k00_opt_uwb97xd_def2svpd/0002_q000_m01_k00_force_ub3lyp_
 def2svp stable-force
 ----------------------------------------------------------------------
 Structure from the checkpoint file:  "0002_q000_m01_k00_force_ub3lyp_def2svp.chk"
 Charge =  0 Multiplicity = 1
 Z-Matrix found in chk file.
 C,0,0.9341359983,-0.0506101672,0.0533916633
 N,0,2.2303561638,-0.0607282973,0.0971529523
 H,0,2.7104299206,0.1445551233,-0.7929401941
 O,0,2.9768985022,-0.2863976361,1.0755945973
 H,0,0.4602474304,0.169181767,-0.8998201368
 H,0,0.383341983,-0.2613407898,0.9669611147
 Recover connectivity data from disk.
 ITRead=  0  0  0  0  0  0
 MicOpt= -1 -1 -1 -1 -1 -1
 NAtoms=      6 NQM=        6 NQMF=       0 NMMI=      0 NMMIF=      0
                NMic=       0 NMicF=      0.
                    Isotopes and Nuclear Properties:
 (Nuclear quadrupole moments (NQMom) in fm**2, nuclear magnetic moments (NMagM)
  in nuclear magnetons)

  Atom         1           2           3           4           5           6
 IAtWgt=          12          14           1          16           1           1
 AtmWgt=  12.0000000  14.0030740   1.0078250  15.9949146   1.0078250   1.0078250
 NucSpn=           0           2           1           0           1           1
 AtZEff=   3.6000000   4.5500000   1.0000000   5.6000000   1.0000000   1.0000000
 NQMom=    0.0000000   2.0440000   0.0000000   0.0000000   0.0000000   0.0000000
 NMagM=    0.0000000   0.4037610   2.7928460   0.0000000   2.7928460   2.7928460
 AtZNuc=   6.0000000   7.0000000   1.0000000   8.0000000   1.0000000   1.0000000
 Leave Link  101 at Tue Jan  3 09:04:32 2023, MaxMem=   536870912 cpu:               0.4 elap:               0.2
 (Enter /opt/software/gaussian/g16.c01/l103.exe)

 GradGradGradGradGradGradGradGradGradGradGradGradGradGradGradGradGradGrad
 Berny optimization.
 Initialization pass.
 Trust Radius=3.00D-01 FncErr=1.00D-07 GrdErr=1.00D-07 EigMax=2.50D+02 EigMin=1.00D-04
 Number of steps in this run=      2 maximum allowed number of steps=      2.
 GradGradGradGradGradGradGradGradGradGradGradGradGradGradGradGradGradGrad

 Leave Link  103 at Tue Jan  3 09:04:32 2023, MaxMem=   536870912 cpu:               0.1 elap:               0.0
 (Enter /opt/software/gaussian/g16.c01/l202.exe)
                          Input orientation:                          
 ---------------------------------------------------------------------
 Center     Atomic      Atomic             Coordinates (Angstroms)
 Number     Number       Type             X           Y           Z
 ---------------------------------------------------------------------
      1          6           0        0.934136   -0.050610    0.053392
      2          7           0        2.230356   -0.060728    0.097153
      3          1           0        2.710430    0.144555   -0.792940
      4          8           0        2.976899   -0.286398    1.075595
      5          1           0        0.460247    0.169182   -0.899820
      6          1           0        0.383342   -0.261341    0.966961
 ---------------------------------------------------------------------
                    Distance matrix (angstroms):
                    1          2          3          4          5
     1  C    0.000000
     2  N    1.296998   0.000000
     3  H    1.977268   1.031929   0.000000
     4  O    2.296383   1.251239   1.936013   0.000000
     5  H    1.086964   2.044529   2.252854   3.231617   0.000000
     6  H    1.087378   2.051408   2.945733   2.595952   1.917325
                    6
     6  H    0.000000
 Symmetry turned off by external request.
 Stoichiometry    CH3NO
 Rotational constants (GHZ):          75.8819039          11.9122881          10.2959784
 Leave Link  202 at Tue Jan  3 09:04:32 2023, MaxMem=   536870912 cpu:               0.0 elap:               0.0
 (Enter /opt/software/gaussian/g16.c01/l301.exe)
 Basis read from chk: "0002_q000_m01_k00_force_ub3lyp_def2svp.chk" (5D, 7F)
 No pseudopotential information found on chk file.
    57 basis functions,    96 primitive gaussians,    60 cartesian basis functions
    12 alpha electrons       12 beta electrons
       nuclear repulsion energy        72.3526514420 Hartrees.
 IExCor=  402 DFT=T Ex+Corr=B3LYP ExCW=0 ScaHFX=  0.200000
 ScaDFX=  0.800000  0.720000  1.000000  0.810000 ScalE2=  1.000000  1.000000
 IRadAn=      5 IRanWt=     -1 IRanGd=            0 ICorTp=0 IEmpDi=  4
 NAtoms=    6 NActive=    6 NUniq=    6 SFac= 1.00D+00 NAtFMM=   60 NAOKFM=F Big=F
 Integral buffers will be    131072 words long.
 Raffenetti 2 integral format.
 Two-electron integral symmetry is turned off.
 No density basis found on file  20724.
 Leave Link  301 at Tue Jan  3 09:04:32 2023, MaxMem=   536870912 cpu:               0.1 elap:               0.1
 (Enter /opt/software/gaussian/g16.c01/l302.exe)
 NPDir=0 NMtPBC=     1 NCelOv=     1 NCel=       1 NClECP=     1 NCelD=      1
         NCelK=      1 NCelE2=     1 NClLst=     1 CellRange=     0.0.
 One-electron integrals computed using PRISM.
 NBasis=    57 RedAO= T EigKep=  7.17D-03  NBF=    57
 NBsUse=    57 1.00D-06 EigRej= -1.00D+00 NBFU=    57
 Precomputing XC quadrature grid using
 IXCGrd= 4 IRadAn=           5 IRanWt=          -1 IRanGd=           0 AccXCQ= 0.00D+00.
 Generated NRdTot=       0 NPtTot=           0 NUsed=           0 NTot=          32
 NSgBfM=    60    60    60    60    60 MxSgAt=     6 MxSgA2=     6.
 Leave Link  302 at Tue Jan  3 09:04:32 2023, MaxMem=   536870912 cpu:               0.3 elap:               0.2
 (Enter /opt/software/gaussian/g16.c01/l303.exe)
 DipDrv:  MaxL=1.
 Leave Link  303 at Tue Jan  3 09:04:32 2023, MaxMem=   536870912 cpu:               0.1 elap:               0.1
 (Enter /opt/software/gaussian/g16.c01/l401.exe)
 Initial guess from the checkpoint file:  "0002_q000_m01_k00_force_ub3lyp_def2svp.chk"
 B after Tr=     0.000000    0.000000    0.000000
         Rot=    1.000000    0.000000    0.000000    0.000000 Ang=   0.00 deg.
 Guess basis will be translated and rotated to current coordinates.
 JPrj=2 DoOrth=T DoCkMO=T.
 Initial guess <Sx>= 0.0000 <Sy>= 0.0000 <Sz>= 0.0000 <S**2>=-0.0000 S=-0.0000
 Leave Link  401 at Tue Jan  3 09:04:32 2023, MaxMem=   536870912 cpu:               0.2 elap:               0.1
 (Enter /opt/software/gaussian/g16.c01/l502.exe)
 Keep R1 and R2 ints in memory in canonical form, NReq=4504806.
 FoFCou: FMM=F IPFlag=           0 FMFlag=           0 FMFlg1=           0
         NFxFlg=           0 DoJE=F BraDBF=F KetDBF=F FulRan=T
         wScrn=  0.000000 ICntrl=       600 IOpCl=  0 I1Cent=           0 NGrid=           0
         NMat0=    1 NMatS0=   1653 NMatT0=    0 NMatD0=    1 NMtDS0=    0 NMtDT0=    0
 Symmetry not used in FoFCou.
 Two-electron integral symmetry not used.
 UHF open shell SCF:
 Using DIIS extrapolation, IDIIS=  1040.
 NGot=   536870912 LenX=   534128512 LenY=   534124471
 Requested convergence on RMS density matrix=1.00D-08 within 128 cycles.
 Requested convergence on MAX density matrix=1.00D-06.
 Requested convergence on             energy=1.00D-06.
 No special actions if energy rises.

 Cycle   1  Pass 1  IDiag  1:
 E= -169.669818090843    
 DIIS: error= 5.73D-09 at cycle   1 NSaved=   1.
 NSaved= 1 IEnMin= 1 EnMin= -169.669818090843     IErMin= 1 ErrMin= 5.73D-09
 ErrMax= 5.73D-09  0.00D+00 EMaxC= 1.00D-01 BMatC= 1.19D-14 BMatP= 1.19D-14
 IDIUse=1 WtCom= 1.00D+00 WtEn= 0.00D+00
 Coeff-Com:  0.100D+01
 Coeff:      0.100D+01
 Gap=     0.203 Goal=   None    Shift=    0.000
 Gap=     0.203 Goal=   None    Shift=    0.000
 RMSDP=2.03D-09 MaxDP=3.24D-08              OVMax= 5.32D-08

 SCF Done:  E(UB3LYP) =  -169.669818091     A.U. after    1 cycles
            NFock=  1  Conv=0.20D-08     -V/T= 2.0081
 <Sx>= 0.0000 <Sy>= 0.0000 <Sz>= 0.0000 <S**2>=-0.0000 S=-0.0000
 <L.S>=  0.00000000000    
 KE= 1.683139283315D+02 PE=-5.419233894750D+02 EE= 1.315869916106D+02
 Annihilation of the first spin contaminant:
 S**2 before annihilation    -0.0000,   after    -0.0000
 Leave Link  502 at Tue Jan  3 09:04:33 2023, MaxMem=   536870912 cpu:               1.1 elap:               0.6
 (Enter /opt/software/gaussian/g16.c01/l508.exe)
 QCSCF skips out because SCF is already converged.
 Leave Link  508 at Tue Jan  3 09:04:33 2023, MaxMem=   536870912 cpu:               0.0 elap:               0.0
 (Enter /opt/software/gaussian/g16.c01/l601.exe)
 Copying SCF densities to generalized density rwf, IOpCl= 1 IROHF=0.

 **********************************************************************

            Population analysis using the SCF Density.

 **********************************************************************

 Alpha  occ. eigenvalues --  -19.10995 -14.47470 -10.22878  -1.10665  -0.85588
 Alpha  occ. eigenvalues --   -0.66026  -0.54719  -0.47879  -0.45845  -0.42013
 Alpha  occ. eigenvalues --   -0.25495  -0.23284
 Alpha virt. eigenvalues --   -0.02958   0.03382   0.08938   0.12556   0.22925
 Alpha virt. eigenvalues --    0.27271   0.41305   0.47508   0.49251   0.55261
 Alpha virt. eigenvalues --    0.60324   0.63569   0.64835   0.73528   0.76089
 Alpha virt. eigenvalues --    0.93899   0.96184   1.00421   1.07751   1.16440
 Alpha virt. eigenvalues --    1.22576   1.27651   1.31625   1.50990   1.51916
 Alpha virt. eigenvalues --    1.63194   1.81190   1.85695   1.92122   1.92961
 Alpha virt. eigenvalues --    2.04965   2.10411   2.30700   2.32933   2.50065
 Alpha virt. eigenvalues --    2.50191   2.63016   2.72867   2.77632   2.84505
 Alpha virt. eigenvalues --    2.98974   3.18925   3.22247   3.48932   3.75365
  Beta  occ. eigenvalues --  -19.10995 -14.47470 -10.22878  -1.10665  -0.85588
  Beta  occ. eigenvalues --   -0.66026  -0.54719  -0.47879  -0.45845  -0.42013
  Beta  occ. eigenvalues --   -0.25495  -0.23284
  Beta virt. eigenvalues --   -0.02958   0.03382   0.08938   0.12556   0.22925
  Beta virt. eigenvalues --    0.27271   0.41305   0.47508   0.49251   0.55261
  Beta virt. eigenvalues --    0.60324   0.63569   0.64835   0.73528   0.76089
  Beta virt. eigenvalues --    0.93899   0.96184   1.00421   1.07751   1.16440
  Beta virt. eigenvalues --    1.22576   1.27651   1.31625   1.50990   1.51916
  Beta virt. eigenvalues --    1.63194   1.81190   1.85695   1.92122   1.92961
  Beta virt. eigenvalues --    2.04965   2.10411   2.30700   2.32933   2.50065
  Beta virt. eigenvalues --    2.50191   2.63016   2.72867   2.77632   2.84505
  Beta virt. eigenvalues --    2.98974   3.18925   3.22247   3.48932   3.75365
          Condensed to atoms (all electrons):
               1          2          3          4          5          6
     1  C    4.872271   0.562476  -0.054355  -0.077483   0.359673   0.376931
     2  N    0.562476   5.668353   0.332360   0.262130  -0.016400  -0.013904
     3  H   -0.054355   0.332360   0.632054  -0.043730  -0.001663   0.010691
     4  O   -0.077483   0.262130  -0.043730   8.224762   0.005903   0.006245
     5  H    0.359673  -0.016400  -0.001663   0.005903   0.652809  -0.035149
     6  H    0.376931  -0.013904   0.010691   0.006245  -0.035149   0.602300
          Atomic-Atomic Spin Densities.
               1          2          3          4          5          6
     1  C   -0.000000   0.000000   0.000000  -0.000000  -0.000000  -0.000000
     2  N    0.000000   0.000000  -0.000000  -0.000000   0.000000  -0.000000
     3  H    0.000000  -0.000000  -0.000000   0.000000  -0.000000  -0.000000
     4  O   -0.000000  -0.000000   0.000000  -0.000000   0.000000   0.000000
     5  H   -0.000000   0.000000  -0.000000   0.000000   0.000000  -0.000000
     6  H   -0.000000  -0.000000  -0.000000   0.000000  -0.000000   0.000000
 Mulliken charges and spin densities:
               1          2
     1  C   -0.039513  -0.000000
     2  N    0.204984   0.000000
     3  H    0.124643   0.000000
     4  O   -0.377828  -0.000000
     5  H    0.034828  -0.000000
     6  H    0.052885  -0.000000
 Sum of Mulliken charges =  -0.00000  -0.00000
 Mulliken charges and spin densities with hydrogens summed into heavy atoms:
               1          2
     1  C    0.048200  -0.000000
     2  N    0.329628   0.000000
     4  O   -0.377828  -0.000000
 Electronic spatial extent (au):  <R**2>=            514.4708
 Charge=              0.0000 electrons
 Dipole moment (field-independent basis, Debye):
    X=             -1.6602    Y=              0.6506    Z=             -2.8213  Tot=              3.3376
 Quadrupole moment (field-independent basis, Debye-Ang):
   XX=            -24.6516   YY=            -18.5750   ZZ=            -18.6472
   XY=              2.1111   XZ=             -8.8775   YZ=              0.1379
 Traceless Quadrupole moment (field-independent basis, Debye-Ang):
   XX=             -4.0270   YY=              2.0496   ZZ=              1.9774
   XY=              2.1111   XZ=             -8.8775   YZ=              0.1379
 Octapole moment (field-independent basis, Debye-Ang**2):
  XXX=           -128.9414  YYY=              6.4134  ZZZ=            -22.1868  XYY=            -35.2391
  XXY=              8.5385  XXZ=            -32.9259  XZZ=            -39.6687  YZZ=              3.0087
  YYZ=             -6.3297  XYZ=              1.4581
 Hexadecapole moment (field-independent basis, Debye-Ang**3):
 XXXX=           -599.3779 YYYY=            -19.6582 ZZZZ=            -64.8453 XXXY=             35.5330
 XXXZ=           -132.6405 YYYX=             16.2002 YYYZ=              6.2153 ZZZX=            -63.0453
 ZZZY=              6.5691 XXYY=            -88.9914 XXZZ=           -111.2674 YYZZ=            -14.0301
 XXYZ=              6.8389 YYXZ=            -18.0578 ZZXY=              8.0443
 N-N= 7.235265144198D+01 E-N=-5.419233884107D+02  KE= 1.683139283315D+02
 There are a total of      132492 grid points.
 ElSum from          density=       24.0000001251
 ElSum from atomic densities=       24.0000001944
 Hirshfeld populations at iteration   1 (CA, CB, DipXYZ):
               1          2          3          4          5
     1  C    3.022323   3.022323  -0.006378   0.000403  -0.001761
     2  N    3.446362   3.446362   0.078646   0.000752  -0.003266
     3  H    0.429471   0.429471   0.088822   0.034958  -0.151576
     4  O    4.151827   4.151827  -0.118880   0.036263  -0.157226
     5  H    0.476989   0.476989  -0.072186   0.032070  -0.139090
     6  H    0.473028   0.473028  -0.089922  -0.031368   0.135984
       Tot  12.000000  12.000000  -0.119898   0.073077  -0.316936

 Dip from Atomic Chgs             -0.533285   0.182907  -0.793066
         Total Dipole             -0.653183   0.255984  -1.110001

 Hirshfeld charges, spin densities, dipoles, and CM5 charges using IRadAn=      5:
              Q-H        S-H        Dx         Dy         Dz        Q-CM5   
     1  C   -0.044646  -0.000000  -0.006378   0.000403  -0.001761  -0.060488
     2  N    0.107275  -0.000000   0.078646   0.000752  -0.003266  -0.222143
     3  H    0.141058   0.000000   0.088822   0.034958  -0.151576   0.335185
     4  O   -0.303655  -0.000000  -0.118880   0.036263  -0.157226  -0.280427
     5  H    0.046023  -0.000000  -0.072186   0.032070  -0.139090   0.108963
     6  H    0.053944  -0.000000  -0.089922  -0.031368   0.135984   0.118909
       Tot  -0.000000  -0.000000  -0.119898   0.073077  -0.316936  -0.000000
 Hirshfeld charges and spin densities with hydrogens summed into heavy atoms:
              Q-H        S-H       Q-CM5   
     1  C    0.055321  -0.000000   0.167385
     2  N    0.248334  -0.000000   0.113042
     4  O   -0.303655  -0.000000  -0.280427
 
 EQQ= 0.923132444000E-29 EQD= 0.284969382577E-15 EDD= 0.305778003643E-03
 EQQ+QD+DD= 0.305778003644E-03
 
          MBS Condensed to atoms (all electrons):
               1          2          3          4          5          6
     1  C    4.951416   0.477002  -0.049792  -0.035983   0.387785   0.385770
     2  N    0.477002   5.880049   0.322591   0.321145  -0.021828  -0.022046
     3  H   -0.049792   0.322591   0.496507  -0.031558  -0.003496   0.003003
     4  O   -0.035983   0.321145  -0.031558   8.177578   0.000940  -0.000123
     5  H    0.387785  -0.021828  -0.003496   0.000940   0.544005  -0.017959
     6  H    0.385770  -0.022046   0.003003  -0.000123  -0.017959   0.519544
          MBS Atomic-Atomic Spin Densities.
               1          2          3          4          5          6
     1  C   -0.000000  -0.000000  -0.000000  -0.000000   0.000000   0.000000
     2  N   -0.000000   0.000000   0.000000  -0.000000  -0.000000  -0.000000
     3  H   -0.000000   0.000000   0.000000   0.000000  -0.000000   0.000000
     4  O   -0.000000  -0.000000   0.000000   0.000000   0.000000   0.000000
     5  H    0.000000  -0.000000  -0.000000   0.000000  -0.000000  -0.000000
     6  H    0.000000  -0.000000   0.000000   0.000000  -0.000000  -0.000000
 MBS Mulliken charges and spin densities:
               1          2
     1  C   -0.116199  -0.000000
     2  N    0.043088  -0.000000
     3  H    0.262746   0.000000
     4  O   -0.431998  -0.000000
     5  H    0.110552  -0.000000
     6  H    0.131811  -0.000000
 Sum of MBS Mulliken charges =  -0.00000  -0.00000
 MBS Mulliken charges and spin densities with hydrogens summed into heavy atoms:
               1          2
     1  C    0.126164  -0.000000
     2  N    0.305834   0.000000
     4  O   -0.431998  -0.000000
 MBS Atomic Valencies and Mayer Atomic Bond Orders:
               1          2          3          4          5          6
     1  C    3.866852   1.515734   0.012891   0.420387   0.961756   0.956084
     2  N    1.515734   3.686507   0.835198   1.329860   0.003104   0.002610
     3  H    0.012891   0.835198   0.930965   0.068521   0.000911   0.013443
     4  O    0.420387   1.329860   0.068521   1.842858   0.017805   0.006286
     5  H    0.961756   0.003104   0.000911   0.017805   0.987778   0.004202
     6  H    0.956084   0.002610   0.013443   0.006286   0.004202   0.982626
 MBS Mayer-style numbers of lone pairs (12.000 valence pairs, 5.851 lone pairs):
               1
     1  C    1.124673
     2  N    1.635202
     3  H   -0.096855
     4  O    3.294570
     5  H   -0.049165
     6  H   -0.057218
 BEBO parameters in MulMin, MxElBE=  0:
 ELP=  0.00000000000     EBEBO=  0.00000000000     Sum=  0.00000000000    
 ELP=  0.00000000000     EBEBO=  0.00000000000     EJK=  0.00000000000      0.00000000000     Sum=  0.00000000000    
 0 EA=  0.00000000000     EB=  0.00000000000     ETot=  0.00000000000    
 1 EA=  0.00000000000     EB=  0.00000000000     ETot=  0.00000000000    
 2 EA=  0.00000000000     EB=  0.00000000000     ETot=  0.00000000000    
 3 EJ=  0.00000000000     EK=  0.00000000000     ETot=  0.00000000000    
 4 EJ=  0.00000000000     EK=  0.00000000000     ETot=  0.00000000000    
 5 EA=  0.00000000000     EB=  0.00000000000     ETot=  0.00000000000    
                          Isotropic Fermi Contact Couplings
        Atom                 a.u.       MegaHertz       Gauss      10(-4) cm-1
     1  C(13)              0.00000       0.00000       0.00000       0.00000
     2  N(14)             -0.00000      -0.00000      -0.00000      -0.00000
     3  H(1)               0.00000       0.00000       0.00000       0.00000
     4  O(17)             -0.00000       0.00000       0.00000       0.00000
     5  H(1)              -0.00000      -0.00000      -0.00000      -0.00000
     6  H(1)              -0.00000      -0.00000      -0.00000      -0.00000
 --------------------------------------------------------
       Center         ----  Spin Dipole Couplings  ----
                      3XX-RR        3YY-RR        3ZZ-RR
 --------------------------------------------------------
     1   Atom        0.000000      0.000000      0.000000
     2   Atom        0.000000      0.000000      0.000000
     3   Atom        0.000000      0.000000      0.000000
     4   Atom        0.000000      0.000000      0.000000
     5   Atom        0.000000      0.000000      0.000000
     6   Atom        0.000000      0.000000      0.000000
 --------------------------------------------------------
                        XY            XZ            YZ
 --------------------------------------------------------
     1   Atom        0.000000      0.000000      0.000000
     2   Atom        0.000000      0.000000      0.000000
     3   Atom        0.000000      0.000000      0.000000
     4   Atom        0.000000      0.000000      0.000000
     5   Atom        0.000000      0.000000      0.000000
     6   Atom        0.000000      0.000000      0.000000
 --------------------------------------------------------


 ---------------------------------------------------------------------------------
              Anisotropic Spin Dipole Couplings in Principal Axis System
 ---------------------------------------------------------------------------------

       Atom             a.u.   MegaHertz   Gauss  10(-4) cm-1        Axes

              Baa     0.0000     0.000     0.000     0.000  1.0000  0.0000  0.0000
     1 C(13)  Bbb     0.0000     0.000     0.000     0.000 -0.0000  1.0000  0.0000
              Bcc     0.0000     0.000     0.000     0.000  0.0000  0.0000  1.0000
 
              Baa     0.0000     0.000     0.000     0.000  1.0000  0.0000  0.0000
     2 N(14)  Bbb     0.0000     0.000     0.000     0.000 -0.0000  1.0000  0.0000
              Bcc     0.0000     0.000     0.000     0.000  0.0000  0.0000  1.0000
 
              Baa     0.0000     0.000     0.000     0.000  1.0000  0.0000  0.0000
     3 H(1)   Bbb     0.0000     0.000     0.000     0.000 -0.0000  1.0000  0.0000
              Bcc     0.0000     0.000     0.000     0.000  0.0000  0.0000  1.0000
 
              Baa     0.0000    -0.000    -0.000    -0.000  1.0000  0.0000  0.0000
     4 O(17)  Bbb     0.0000    -0.000    -0.000    -0.000 -0.0000  1.0000  0.0000
              Bcc     0.0000    -0.000    -0.000    -0.000  0.0000  0.0000  1.0000
 
              Baa     0.0000     0.000     0.000     0.000  1.0000  0.0000  0.0000
     5 H(1)   Bbb     0.0000     0.000     0.000     0.000 -0.0000  1.0000  0.0000
              Bcc     0.0000     0.000     0.000     0.000  0.0000  0.0000  1.0000
 
              Baa     0.0000     0.000     0.000     0.000  1.0000  0.0000  0.0000
     6 H(1)   Bbb     0.0000     0.000     0.000     0.000 -0.0000  1.0000  0.0000
              Bcc     0.0000     0.000     0.000     0.000  0.0000  0.0000  1.0000
 

 ---------------------------------------------------------------------------------

 No NMR shielding tensors so no spin-rotation constants.
 Leave Link  601 at Tue Jan  3 09:04:33 2023, MaxMem=   536870912 cpu:               0.6 elap:               0.3
 (Enter /opt/software/gaussian/g16.c01/l602.exe)
 FitSet:  NAtFit=     6 NAtPot=     6 NAtFrz=     0 MDM=    10 TotChg=   0.00000
 Generate Potential Derived Charges using the Hu-Lu-Yang model:
 IRhTyp=1 IRadAn=         2 Sigma=    0.800 Ln(Rho0)=    -9.00 ThrGrd= 1.00D-08 Tiny= 1.00D-08
       6989 gridpoints compressed to      1671.

 **********************************************************************

            Electrostatic Properties Using The SCF Density.

 **********************************************************************

       Atomic Center    1 is at   0.934136 -0.050610  0.053392
       Atomic Center    2 is at   2.230356 -0.060728  0.097153
       Atomic Center    3 is at   2.710430  0.144555 -0.792940
       Atomic Center    4 is at   2.976899 -0.286398  1.075595
       Atomic Center    5 is at   0.460247  0.169182 -0.899820
       Atomic Center    6 is at   0.383342 -0.261341  0.966961
    1671 points will be used for fitting atomic charges
 Fitting point charges to electrostatic potential
 Charges from ESP fit, RMS=   0.00060 RRMS=   0.05246:
 ESP charges:
               1
     1  C   -0.498264
     2  N    0.367351
     3  H    0.195125
     4  O   -0.468837
     5  H    0.175613
     6  H    0.229012
 Sum of ESP charges =  -0.00000
 ESP charges with hydrogens summed into heavy atoms:
               1
     1  C   -0.093639
     2  N    0.562476
     4  O   -0.468837
 Charge=  -0.00000 Dipole=    -1.6538     0.6496    -2.8170 Tot=     3.3306
 -----------------------------------------------------------------

              Electrostatic Properties (Atomic Units)

 -----------------------------------------------------------------
    Center     Electric         -------- Electric Field --------
               Potential          X             Y             Z
 -----------------------------------------------------------------
    1 Atom    -14.674185
    2 Atom    -18.189054
    3 Atom     -0.980040
    4 Atom    -22.344087
    5 Atom     -1.055097
    6 Atom     -1.061765
 -----------------------------------------------------------------
 Leave Link  602 at Tue Jan  3 09:04:33 2023, MaxMem=   536870912 cpu:               0.1 elap:               0.1
 (Enter /opt/software/gaussian/g16.c01/l607.exe)
 ******************************Gaussian NBO Version 3.1******************************
             N A T U R A L   A T O M I C   O R B I T A L   A N D
          N A T U R A L   B O N D   O R B I T A L   A N A L Y S I S
 ******************************Gaussian NBO Version 3.1******************************
       /RESON  / : Allow strongly delocalized NBO set

 Analyzing the SCF density

 Job title: 0002_q000_m01_k00_opt_uwb97xd_def2svpd/0002_q000_m01_k00_force_u

 Storage needed:     10029 in NPA ( 536870684 available)
 GSVD:  LWork=        1905 too small for GESVD, short by         567 words or         567 for optimal perf.


 NATURAL POPULATIONS:  Natural atomic orbital occupancies 
                                                          
   NAO  Atom  No  lang   Type(AO)    Occupancy
 --------------------------------------------
     1    C    1  S      Cor( 1S)     1.99929
     2    C    1  S      Val( 2S)     1.03123
     3    C    1  S      Ryd( 3S)     0.00193
     4    C    1  px     Val( 2p)     0.88795
     5    C    1  px     Ryd( 3p)     0.00740
     6    C    1  py     Val( 2p)     1.09318
     7    C    1  py     Ryd( 3p)     0.00718
     8    C    1  pz     Val( 2p)     1.18339
     9    C    1  pz     Ryd( 3p)     0.00302
    10    C    1  dxy    Ryd( 3d)     0.00131
    11    C    1  dxz    Ryd( 3d)     0.00064
    12    C    1  dyz    Ryd( 3d)     0.00012
    13    C    1  dx2y2  Ryd( 3d)     0.00089
    14    C    1  dz2    Ryd( 3d)     0.00082
 
    15    N    2  S      Cor( 1S)     1.99923
    16    N    2  S      Val( 2S)     1.18606
    17    N    2  S      Ryd( 3S)     0.00477
    18    N    2  px     Val( 2p)     1.29453
[...]
      C    1   -0.10917      0.99965     2.09787    0.01166     3.10917
      N    2   -0.02369      0.99961     2.51046    0.01362     3.52369
      H    3    0.17628      0.00000     0.31965    0.00408     0.32372
      O    4   -0.23971      0.99990     3.23156    0.00825     4.23971
      H    5    0.09509      0.00000     0.40329    0.00161     0.40491
      H    6    0.10120      0.00000     0.39667    0.00213     0.39880
 =======================================================================
   * Total *    0.00000      2.99916     8.95950    0.04135    12.00000

                                 Natural Population      
 --------------------------------------------------------
   Core                       2.99916 ( 99.9719% of   3)
   Valence                    8.95950 ( 99.5500% of   9)
   Natural Minimal Basis     11.95865 ( 99.6554% of  12)
   Natural Rydberg Basis      0.04135 (  0.3446% of  12)
 --------------------------------------------------------

    Atom  No          Natural Electron Configuration
 ----------------------------------------------------------------------------
      C    1      [core]2S( 0.52)2p( 1.58)3p( 0.01)
      N    2      [core]2S( 0.59)2p( 1.92)3p( 0.01)
      H    3            1S( 0.32)
      O    4      [core]2S( 0.87)2p( 2.36)
      H    5            1S( 0.40)
      H    6            1S( 0.40)


 NBO analysis skipped by request.


 ***************************************************
 *******         Beta  spin orbitals         *******
 ***************************************************


 NATURAL POPULATIONS:  Natural atomic orbital occupancies 
                                                          
   NAO  Atom  No  lang   Type(AO)    Occupancy      Energy
 ----------------------------------------------------------
     1    C    1  S      Cor( 1S)     0.99965     -10.12040
     2    C    1  S      Val( 2S)     0.51561      -0.22165
     3    C    1  S      Ryd( 3S)     0.00096       0.46483
     4    C    1  px     Val( 2p)     0.44398      -0.03513
     5    C    1  px     Ryd( 3p)     0.00370       0.42598
     6    C    1  py     Val( 2p)     0.54659      -0.14650
     7    C    1  py     Ryd( 3p)     0.00359       0.48641
     8    C    1  pz     Val( 2p)     0.59169      -0.06628
     9    C    1  pz     Ryd( 3p)     0.00151       0.76550
    10    C    1  dxy    Ryd( 3d)     0.00066       1.96319
    11    C    1  dxz    Ryd( 3d)     0.00032       2.47984
    12    C    1  dyz    Ryd( 3d)     0.00006       1.94757
    13    C    1  dx2y2  Ryd( 3d)     0.00045       2.18969
    14    C    1  dz2    Ryd( 3d)     0.00041       2.35091
 
    15    N    2  S      Cor( 1S)     0.99961     -14.32981
    16    N    2  S      Val( 2S)     0.59303      -0.52598
    17    N    2  S      Ryd( 3S)     0.00238       0.80960
    18    N    2  px     Val( 2p)     0.64727      -0.29069
    19    N    2  px     Ryd( 3p)     0.00341       0.86237
    20    N    2  py     Val( 2p)     0.66009      -0.29101
    21    N    2  py     Ryd( 3p)     0.00050       0.74871
    22    N    2  pz     Val( 2p)     0.61007      -0.26318
    23    N    2  pz     Ryd( 3p)     0.00261       1.06339
    24    N    2  dxy    Ryd( 3d)     0.00124       2.32882
    25    N    2  dxz    Ryd( 3d)     0.00090       2.87847
    26    N    2  dyz    Ryd( 3d)     0.00072       2.32525
    27    N    2  dx2y2  Ryd( 3d)     0.00060       2.70168
    28    N    2  dz2    Ryd( 3d)     0.00126       2.66519
 
    29    H    3  S      Val( 1S)     0.31965       0.03104
    30    H    3  S      Ryd( 2S)     0.00306       0.34696
    31    H    3  px     Ryd( 2p)     0.00030       2.01552
    32    H    3  py     Ryd( 2p)     0.00019       1.62404
    33    H    3  pz     Ryd( 2p)     0.00053       2.19476
 
    34    O    4  S      Cor( 1S)     0.99990     -18.91549
    35    O    4  S      Val( 2S)     0.87459      -0.82408
    36    O    4  S      Ryd( 3S)     0.00194       1.19327
    37    O    4  px     Val( 2p)     0.83591      -0.23586
    38    O    4  px     Ryd( 3p)     0.00134       1.06784
    39    O    4  py     Val( 2p)     0.78110      -0.23425
    40    O    4  py     Ryd( 3p)     0.00144       1.01088
    41    O    4  pz     Val( 2p)     0.73996      -0.22435
    42    O    4  pz     Ryd( 3p)     0.00093       1.06213
    43    O    4  dxy    Ryd( 3d)     0.00034       2.73994
    44    O    4  dxz    Ryd( 3d)     0.00063       3.16083
    45    O    4  dyz    Ryd( 3d)     0.00060       2.79997
    46    O    4  dx2y2  Ryd( 3d)     0.00031       2.78251
    47    O    4  dz2    Ryd( 3d)     0.00071       2.96220
 
    48    H    5  S      Val( 1S)     0.40329       0.02665
    49    H    5  S      Ryd( 2S)     0.00101       0.29641
    50    H    5  px     Ryd( 2p)     0.00012       1.85770
    51    H    5  py     Ryd( 2p)     0.00016       1.61611
    52    H    5  pz     Ryd( 2p)     0.00032       2.19302
 
    53    H    6  S      Val( 1S)     0.39667       0.04559
    54    H    6  S      Ryd( 2S)     0.00160       0.30227
    55    H    6  px     Ryd( 2p)     0.00011       1.91503
    56    H    6  py     Ryd( 2p)     0.00010       1.62762
    57    H    6  pz     Ryd( 2p)     0.00031       2.16759


 Summary of Natural Population Analysis:                  
                                                          
                                       Natural Population 
                Natural  -----------------------------------------------
    Atom  No    Charge         Core      Valence    Rydberg      Total
 -----------------------------------------------------------------------
      C    1   -0.10917      0.99965     2.09787    0.01166     3.10917
      N    2   -0.02369      0.99961     2.51046    0.01362     3.52369
      H    3    0.17628      0.00000     0.31965    0.00408     0.32372
      O    4   -0.23971      0.99990     3.23156    0.00825     4.23971
      H    5    0.09509      0.00000     0.40329    0.00161     0.40491
      H    6    0.10120      0.00000     0.39667    0.00213     0.39880
 =======================================================================
   * Total *    0.00000      2.99916     8.95950    0.04135    12.00000

                                 Natural Population      
 --------------------------------------------------------
   Core                       2.99916 ( 99.9719% of   3)
   Valence                    8.95950 ( 99.5500% of   9)
   Natural Minimal Basis     11.95865 ( 99.6554% of  12)
   Natural Rydberg Basis      0.04135 (  0.3446% of  12)
 --------------------------------------------------------

    Atom  No          Natural Electron Configuration
 ----------------------------------------------------------------------------
      C    1      [core]2S( 0.52)2p( 1.58)3p( 0.01)
      N    2      [core]2S( 0.59)2p( 1.92)3p( 0.01)
      H    3            1S( 0.32)
      O    4      [core]2S( 0.87)2p( 2.36)
      H    5            1S( 0.40)
      H    6            1S( 0.40)


 NBO analysis skipped by request.
 Leave Link  607 at Tue Jan  3 09:04:35 2023, MaxMem=   536870912 cpu:               3.6 elap:               1.8
 (Enter /opt/software/gaussian/g16.c01/l701.exe)
 ... and contract with generalized density number  0.
 Compute integral first derivatives.
 Leave Link  701 at Tue Jan  3 09:04:36 2023, MaxMem=   536870912 cpu:               0.2 elap:               0.1
 (Enter /opt/software/gaussian/g16.c01/l702.exe)
 L702 exits ... SP integral derivatives will be done elsewhere.
 Leave Link  702 at Tue Jan  3 09:04:36 2023, MaxMem=   536870912 cpu:               0.1 elap:               0.1
 (Enter /opt/software/gaussian/g16.c01/l703.exe)
 Integral derivatives from FoFJK, PRISM(SPDF).
 Compute integral first derivatives, UseDBF=F ICtDFT=           0.
 Calling FoFJK, ICntrl=      2127 FMM=F ISym2X=0 I1Cent= 0 IOpClX= 1 NMat=1 NMatS=1 NMatT=0.
 FoFJK:  IHMeth= 1 ICntrl=    2127 DoSepK=F KAlg= 0 I1Cent=           0 FoldK=F
 IRaf=         0 NMat=       1 IRICut=       1 DoRegI=T DoRafI=F ISym2E= 0 IDoP0=0 IntGTp=1.
 FoFCou: FMM=F IPFlag=           0 FMFlag=      100000 FMFlg1=         800
         NFxFlg=           0 DoJE=F BraDBF=F KetDBF=F FulRan=T
         wScrn=  0.000000 ICntrl=      2127 IOpCl=  1 I1Cent=           0 NGrid=           0
         NMat0=    1 NMatS0=      1 NMatT0=    0 NMatD0=    1 NMtDS0=    0 NMtDT0=    0
 Symmetry not used in FoFCou.
 Leave Link  703 at Tue Jan  3 09:04:37 2023, MaxMem=   536870912 cpu:               2.1 elap:               1.1
 (Enter /opt/software/gaussian/g16.c01/l716.exe)
 Dipole        =-6.53182199D-01 2.55981486D-01-1.11000318D+00
 -------------------------------------------------------------------
 Center     Atomic                   Forces (Hartrees/Bohr)
 Number     Number              X              Y              Z
 -------------------------------------------------------------------
      1        6          -0.010833019    0.000894342   -0.003895579
      2        7           0.012437303   -0.002644133    0.011469027
      3        1           0.001009362    0.001487958   -0.006452881
      4        8          -0.000377129    0.000344016   -0.001490539
      5        1          -0.001509544    0.000234101   -0.001008479
      6        1          -0.000726974   -0.000316284    0.001378451
 -------------------------------------------------------------------
 Cartesian Forces:  Max     0.012437303 RMS     0.005162795
 Z-matrix is all fixed cartesians, so copy forces.
 Force constants in Cartesian coordinates: 
                1             2             3             4             5 
      1  0.101329D+01
      2 -0.181037D-02  0.203575D+00
      3  0.786374D-02 -0.124878D+00  0.716256D+00
      4 -0.679882D+00  0.300493D-02 -0.129771D-01  0.122912D+01
      5  0.376763D-02 -0.101951D+00  0.210923D-01 -0.513644D-01  0.222812D+00
      6 -0.162703D-01  0.210924D-01 -0.188542D+00  0.222639D+00 -0.201358D+00
      7 -0.102620D-02 -0.665546D-02  0.288574D-01 -0.181518D+00 -0.289962D-01
      8  0.121571D-03  0.160790D-01  0.116710D-03 -0.287431D-01 -0.726755D-01
      9 -0.525445D-03  0.118691D-03  0.155912D-01  0.124629D+00  0.655904D-01
     10  0.119887D-02  0.777540D-02 -0.337130D-01 -0.367761D+00  0.763242D-01
     11  0.200587D-03  0.190369D-01 -0.153988D-02  0.768689D-01 -0.806506D-01
     12 -0.868461D-03 -0.154186D-02  0.253675D-01 -0.333281D+00  0.114090D+00
     13 -0.158674D+00  0.217720D-01 -0.944370D-01  0.990489D-03  0.642211D-02
     14  0.210005D-01 -0.665152D-01  0.549206D-01  0.108065D-03  0.144495D-01
     15 -0.910994D-01  0.549244D-01 -0.292045D+00 -0.467503D-03  0.139020D-03
     16 -0.174911D+00 -0.240865D-01  0.104406D+00 -0.948593D-03 -0.615334D-02
     17 -0.232800D-01 -0.702247D-01  0.502880D-01  0.125613D-03  0.180161D-01
     18  0.100900D+00  0.502841D-01 -0.276628D+00 -0.542935D-03  0.445850D-03
                6             7             8             9            10 
      6  0.104942D+01
      7  0.125728D+00  0.157894D+00
      8  0.655912D-01  0.315330D-01  0.477677D-01
      9 -0.341942D+00 -0.136727D+00 -0.699667D-01  0.335000D+00
     10 -0.330918D+00  0.246502D-01 -0.291152D-02  0.126236D-01  0.341912D+00
     11  0.114089D+00  0.411862D-02  0.878005D-02  0.424634D-02 -0.811881D-01
     12 -0.549005D+00 -0.178579D-01  0.424651D-02 -0.865234D-02  0.352007D+00
     13 -0.278537D-01  0.000000D+00  0.000000D+00  0.000000D+00  0.000000D+00
     14  0.139979D-03  0.000000D+00 -0.908908D-02 -0.209632D-02  0.000000D+00
     15  0.138797D-01  0.000000D+00 -0.209566D-02 -0.483348D-03  0.000000D+00
     16  0.266748D-01  0.000000D+00  0.000000D+00  0.000000D+00  0.000000D+00
     17  0.444845D-03  0.000000D+00  0.913787D-02  0.210757D-02  0.000000D+00
     18  0.161850D-01  0.000000D+00  0.210791D-02  0.486171D-03  0.000000D+00
               11            12            13            14            15 
     11  0.528801D-01
     12 -0.116784D+00  0.532292D+00
     13  0.000000D+00  0.000000D+00  0.128269D+00
     14  0.864159D-02  0.199298D-02 -0.243128D-01  0.428129D-01
     15  0.199249D-02  0.459521D-03  0.105452D+00 -0.591266D-01  0.285599D+00
     16  0.000000D+00  0.000000D+00  0.294149D-01  0.320416D-02 -0.138848D-01
     17 -0.868798D-02 -0.200368D-02 -0.388133D-02  0.970030D-02  0.416630D-02
     18 -0.200413D-02 -0.462205D-03  0.168390D-01  0.416934D-02 -0.741015D-02
               16            17            18 
     16  0.146445D+00
     17  0.270357D-01  0.420584D-01
     18 -0.117196D+00 -0.550030D-01  0.267829D+00
 Leave Link  716 at Tue Jan  3 09:04:37 2023, MaxMem=   536870912 cpu:               0.1 elap:               0.1
 (Enter /opt/software/gaussian/g16.c01/l103.exe)

 GradGradGradGradGradGradGradGradGradGradGradGradGradGradGradGradGradGrad
 Berny optimization.
 Search for a local minimum.
 Step number   1 out of a maximum of    2
 All quantities printed in internal units (Hartrees-Bohrs-Radians)
 Second derivative matrix not updated -- first step.
 The second derivative matrix:
                          X1        Y1        Z1        X2        Y2
           X1           1.01329
           Y1          -0.00181   0.20358
           Z1           0.00786  -0.12488   0.71626
           X2          -0.67988   0.00300  -0.01298   1.22912
           Y2           0.00377  -0.10195   0.02109  -0.05136   0.22281
           Z2          -0.01627   0.02109  -0.18854   0.22264  -0.20136
           X3          -0.00103  -0.00666   0.02886  -0.18152  -0.02900
           Y3           0.00012   0.01608   0.00012  -0.02874  -0.07268
           Z3          -0.00053   0.00012   0.01559   0.12463   0.06559
           X4           0.00120   0.00778  -0.03371  -0.36776   0.07632
           Y4           0.00020   0.01904  -0.00154   0.07687  -0.08065
           Z4          -0.00087  -0.00154   0.02537  -0.33328   0.11409
           X5          -0.15867   0.02177  -0.09444   0.00099   0.00642
           Y5           0.02100  -0.06652   0.05492   0.00011   0.01445
           Z5          -0.09110   0.05492  -0.29205  -0.00047   0.00014
           X6          -0.17491  -0.02409   0.10441  -0.00095  -0.00615
           Y6          -0.02328  -0.07022   0.05029   0.00013   0.01802
           Z6           0.10090   0.05028  -0.27663  -0.00054   0.00045
                          Z2        X3        Y3        Z3        X4
           Z2           1.04942
           X3           0.12573   0.15789
           Y3           0.06559   0.03153   0.04777
           Z3          -0.34194  -0.13673  -0.06997   0.33500
           X4          -0.33092   0.02465  -0.00291   0.01262   0.34191
           Y4           0.11409   0.00412   0.00878   0.00425  -0.08119
           Z4          -0.54900  -0.01786   0.00425  -0.00865   0.35201
           X5          -0.02785  -0.00000  -0.00000  -0.00000   0.00000
           Y5           0.00014  -0.00000  -0.00909  -0.00210   0.00000
           Z5           0.01388  -0.00000  -0.00210  -0.00048   0.00000
           X6           0.02667   0.00000   0.00000   0.00000  -0.00000
           Y6           0.00044   0.00000   0.00914   0.00211  -0.00000
           Z6           0.01618   0.00000   0.00211   0.00049  -0.00000
                          Y4        Z4        X5        Y5        Z5
           Y4           0.05288
           Z4          -0.11678   0.53229
           X5           0.00000   0.00000   0.12827
           Y5           0.00864   0.00199  -0.02431   0.04281
           Z5           0.00199   0.00046   0.10545  -0.05913   0.28560
           X6          -0.00000  -0.00000   0.02941   0.00320  -0.01388
           Y6          -0.00869  -0.00200  -0.00388   0.00970   0.00417
           Z6          -0.00200  -0.00046   0.01684   0.00417  -0.00741
                          X6        Y6        Z6
           X6           0.14644
           Y6           0.02704   0.04206
           Z6          -0.11720  -0.05500   0.26783
 ITU=  0
     Eigenvalues ---    0.03447   0.04394   0.09385   0.09776   0.15149
     Eigenvalues ---    0.18516   0.28085   0.33564   0.68419   0.94438
     Eigenvalues ---    1.52455   2.16742
 Angle between quadratic step and forces=  53.99 degrees.
 Linear search not attempted -- first point.
 B after Tr=     0.004149   -0.000645    0.002755
         Rot=    1.000000    0.000000    0.000009    0.000001 Ang=   0.00 deg.
 Variable       Old X    -DE/DX   Delta X   Delta X   Delta X     New X
                                 (Linear)    (Quad)   (Total)
    X1        1.76526  -0.01083   0.00000  -0.01060  -0.00645   1.75881
    Y1       -0.09564   0.00089   0.00000   0.00139   0.00074  -0.09490
    Z1        0.10090  -0.00390   0.00000  -0.00611  -0.00332   0.09757
    X2        4.21476   0.01244   0.00000   0.00819   0.01234   4.22710
    Y2       -0.11476  -0.00264   0.00000  -0.00253  -0.00319  -0.11795
    Z2        0.18359   0.01147   0.00000   0.01098   0.01381   0.19740
    X3        5.12197   0.00101   0.00000  -0.00535  -0.00118   5.12079
    Y3        0.27317   0.00149   0.00000   0.00285   0.00220   0.27536
    Z3       -1.49844  -0.00645   0.00000  -0.01236  -0.00952  -1.50796
    X4        5.62552  -0.00038   0.00000   0.01463   0.01875   5.64427
    Y4       -0.54121   0.00034   0.00000  -0.00096  -0.00161  -0.54283
    Z4        2.03258  -0.00149   0.00000   0.00418   0.00703   2.03961
    X5        0.86974  -0.00151   0.00000  -0.01490  -0.01072   0.85902
    Y5        0.31971   0.00023   0.00000   0.00209   0.00144   0.32115
    Z5       -1.70041  -0.00101   0.00000  -0.00896  -0.00619  -1.70661
    X6        0.72441  -0.00073   0.00000  -0.01685  -0.01273   0.71168
    Y6       -0.49386  -0.00032   0.00000   0.00107   0.00042  -0.49344
    Z6        1.82729   0.00138   0.00000  -0.00457  -0.00180   1.82549
         Item               Value     Threshold  Converged?
 Maximum Force            0.012437     0.000450     NO 
 RMS     Force            0.005163     0.000300     NO 
 Maximum Displacement     0.018747     0.001800     NO 
 RMS     Displacement     0.008258     0.001200     NO 
 Predicted change in Energy=-2.392303D-04
 GradGradGradGradGradGradGradGradGradGradGradGradGradGradGradGradGradGrad

 Leave Link  103 at Tue Jan  3 09:04:37 2023, MaxMem=   536870912 cpu:               0.0 elap:               0.0
 (Enter /opt/software/gaussian/g16.c01/l9999.exe)
 Unable to Open any file for archive entry.
 1\1\GINC-GRA630\Force\UB3LYP\Gen\C1H3N1O1\BHAVUK\03-Jan-2023\0\\#p ub3
 lyp/chkbasis force guess=read geom=check scf=(maxcycle=900,verytightli
 neq,xqc) integral=grid=ultrafine symmetry=None density=current pop=(cm
 5,hlygat,mbs,npa) output=wfx\\0002_q000_m01_k00_opt_uwb97xd_def2svpd/0
 002_q000_m01_k00_force_ub3lyp_def2svp stable-force\\0,1\C,0.9341359983
 ,-0.0506101672,0.0533916633\N,2.2303561638,-0.0607282973,0.0971529523\
 H,2.7104299206,0.1445551233,-0.7929401941\O,2.9768985022,-0.2863976361
 ,1.0755945973\H,0.4602474304,0.169181767,-0.8998201368\H,0.383341983,-
 0.2613407898,0.9669611147\\Version=ES64L-G16RevC.01\HF=-169.6698181\S2
 =0.\S2-1=0.\S2A=0.\RMSD=2.033e-09\RMSF=5.163e-03\Dipole=-0.6531822,0.2
 559815,-1.1100032\Quadrupole=-2.99396,1.5238232,1.4701368,1.5695453,-6
 .600233,0.1025274\PG=Unknown\\@
 The archive entry for this job was punched.

 Writing a WFNX file to "0002_q000_m01_k00_force_ub3lyp_def2svp.wfx"


 PENOTUS DIED A HUNDRED YEARS OLD WANTING BUT TWO...
 AND HE USED TO SAY BEFORE HE DIED, HAVING SPENT HIS
 WHOLE LIFE IN VAINLY SEARCHING AFTER THE PHILOSOPHER'S
 STONE, THAT IF HE HAD A MORTAL ENEMY HE DID NOT DARE
 TO ENCOUNTER OPENLY, HE WOULD ADVISE HIM ABOVE ALL
 THINGS TO GIVE HIMSELF UP TO THE STUDY AND PRACTICE
 OF ALCHEMY.  --  NICOLAS LEMERY, M.D.
 "A COURSE OF CHYMISTRY", WALTER KETTILBY, LONDON, 1686
 Job cpu time:       0 days  0 hours  0 minutes 10.3 seconds.
 Elapsed time:       0 days  0 hours  0 minutes  5.0 seconds.
 File lengths (MBytes):  RWF=      6 Int=      0 D2E=      0 Chk=      2 Scr=      1
 Normal termination of Gaussian 16 at Tue Jan  3 09:04:37 2023.
