 Entering Gaussian System, Link 0=g16
 Input=0002_q000_m01_k00_force_uwb97xd_def2svp.com
 Output=0002_q000_m01_k00_force_uwb97xd_def2svp.log
 Initial command:
 /opt/software/gaussian/g16.c01/l1.exe "/localscratch/bhavuk.2151369.0/Gau-1057.inp" -scrdir="/localscratch/bhavuk.2151369.0/"
 Entering Link 1 = /opt/software/gaussian/g16.c01/l1.exe PID=      1059.
  
 Copyright (c) 1988-2019, Gaussian, Inc.  All Rights Reserved.
  
 This is part of the Gaussian(R) 16 program.  It is based on
 the Gaussian(R) 09 system (copyright 2009, Gaussian, Inc.),
 the Gaussian(R) 03 system (copyright 2003, Gaussian, Inc.),
 the Gaussian(R) 98 system (copyright 1998, Gaussian, Inc.),
 the Gaussian(R) 94 system (copyright 1995, Gaussian, Inc.),
 the Gaussian 92(TM) system (copyright 1992, Gaussian, Inc.),
 the Gaussian 90(TM) system (copyright 1990, Gaussian, Inc.),
 the Gaussian 88(TM) system (copyright 1988, Gaussian, Inc.),
 the Gaussian 86(TM) system (copyright 1986, Carnegie Mellon
 University), and the Gaussian 82(TM) system (copyright 1983,
 Carnegie Mellon University). Gaussian is a federally registered
 trademark of Gaussian, Inc.
  
 This software contains proprietary and confidential information,
 including trade secrets, belonging to Gaussian, Inc.
  
 This software is provided under written license and may be
 used, copied, transmitted, or stored only in accord with that
 written license.
  
 The following legend is applicable only to US Government
 contracts under FAR:
  
                    RESTRICTED RIGHTS LEGEND
  
 Use, reproduction and disclosure by the US Government is
 subject to restrictions as set forth in subparagraphs (a)
 and (c) of the Commercial Computer Software - Restricted
 Rights clause in FAR 52.227-19.
  
 Gaussian, Inc.
 340 Quinnipiac St., Bldg. 40, Wallingford CT 06492
  
  
 ---------------------------------------------------------------
 Warning -- This program may not be used in any manner that
 competes with the business of Gaussian, Inc. or will provide
 assistance to any competitor of Gaussian, Inc.  The licensee
 of this program is prohibited from giving any competitor of
 Gaussian, Inc. access to this program.  By using this program,
 the user acknowledges that Gaussian, Inc. is engaged in the
 business of creating and licensing software in the field of
 computational chemistry and represents and warrants to the
 licensee that it is not a competitor of Gaussian, Inc. and that
 it will not use this program in any manner prohibited above.
 ---------------------------------------------------------------
  

 Cite this work as:
 Gaussian 16, Revision C.01,
 M. J. Frisch, G. W. Trucks, H. B. Schlegel, G. E. Scuseria, 
 M. A. Robb, J. R. Cheeseman, G. Scalmani, V. Barone, 
 G. A. Petersson, H. Nakatsuji, X. Li, M. Caricato, A. V. Marenich, 
 J. Bloino, B. G. Janesko, R. Gomperts, B. Mennucci, H. P. Hratchian, 
 J. V. Ortiz, A. F. Izmaylov, J. L. Sonnenberg, D. Williams-Young, 
 F. Ding, F. Lipparini, F. Egidi, J. Goings, B. Peng, A. Petrone, 
 T. Henderson, D. Ranasinghe, V. G. Zakrzewski, J. Gao, N. Rega, 
 G. Zheng, W. Liang, M. Hada, M. Ehara, K. Toyota, R. Fukuda, 
 J. Hasegawa, M. Ishida, T. Nakajima, Y. Honda, O. Kitao, H. Nakai, 
 T. Vreven, K. Throssell, J. A. Montgomery, Jr., J. E. Peralta, 
 F. Ogliaro, M. J. Bearpark, J. J. Heyd, E. N. Brothers, K. N. Kudin, 
 V. N. Staroverov, T. A. Keith, R. Kobayashi, J. Normand, 
 K. Raghavachari, A. P. Rendell, J. C. Burant, S. S. Iyengar, 
 J. Tomasi, M. Cossi, J. M. Millam, M. Klene, C. Adamo, R. Cammi, 
 J. W. Ochterski, R. L. Martin, K. Morokuma, O. Farkas, 
 J. B. Foresman, and D. J. Fox, Gaussian, Inc., Wallingford CT, 2019.
 
 ******************************************
 Gaussian 16:  ES64L-G16RevC.01  3-Jul-2019
                 3-Jan-2023 
 ******************************************
 %chk=0002_q000_m01_k00_force_uwb97xd_def2svp.chk
 %nprocshared=2
 Will use up to    2 processors via shared memory.
 %mem=4GB
 ----------------------------------------------------------------------
 #p uwb97xd/gen stable=opt scf=(maxcycle=900,verytightlineq,xqc) integr
 al=grid=ultrafine symmetry=None density=current iop(99/18=-1) output=w
 fn
 ----------------------------------------------------------------------
 1/38=1,172=1/1;
 2/12=2,15=3,17=6,18=5,40=1/2;
 3/5=7,11=2,25=1,30=1,74=-58,75=-5,116=2/1,2,3;
 4//1;
 5/5=2,7=900,8=3,13=1,17=3,38=5/2,8;
 6/7=2,8=2,9=2,10=2,22=-1,28=1/1;
 8/6=1,10=90,11=11/1;
 9/8=-3,42=1,46=1/14;
 5/5=2,7=900,8=3,17=43,38=5/8(-2);
 6/7=2,8=2,9=2,10=2,22=-1,28=1/1;
 99/5=1,6=100,9=1,18=-1/99;
 Leave Link    1 at Tue Jan  3 09:04:51 2023, MaxMem=   536870912 cpu:               0.1 elap:               0.1
 (Enter /opt/software/gaussian/g16.c01/l101.exe)
 ----------------------------------------------------------------------
 0002_q000_m01_k00_opt_uwb97xd_def2svpd/0002_q000_m01_k00_force_uwb97xd
 _def2svp stable-force
 ----------------------------------------------------------------------
 Symbolic Z-matrix:
 Charge =  0 Multiplicity = 1
 C                     0.93414  -0.05061   0.05339 
 N                     2.23036  -0.06073   0.09715 
 H                     2.71043   0.14456  -0.79294 
 O                     2.9769   -0.2864    1.07559 
 H                     0.46025   0.16918  -0.89982 
 H                     0.38334  -0.26134   0.96696 
 
 ITRead=  0  0  0  0  0  0
 MicOpt= -1 -1 -1 -1 -1 -1
 NAtoms=      6 NQM=        6 NQMF=       0 NMMI=      0 NMMIF=      0
                NMic=       0 NMicF=      0.
                    Isotopes and Nuclear Properties:
 (Nuclear quadrupole moments (NQMom) in fm**2, nuclear magnetic moments (NMagM)
  in nuclear magnetons)

  Atom         1           2           3           4           5           6
 IAtWgt=          12          14           1          16           1           1
 AtmWgt=  12.0000000  14.0030740   1.0078250  15.9949146   1.0078250   1.0078250
 NucSpn=           0           2           1           0           1           1
 AtZEff=  -0.0000000  -0.0000000  -0.0000000  -0.0000000  -0.0000000  -0.0000000
 NQMom=    0.0000000   2.0440000   0.0000000   0.0000000   0.0000000   0.0000000
 NMagM=    0.0000000   0.4037610   2.7928460   0.0000000   2.7928460   2.7928460
 AtZNuc=   6.0000000   7.0000000   1.0000000   8.0000000   1.0000000   1.0000000
 Leave Link  101 at Tue Jan  3 09:04:51 2023, MaxMem=   536870912 cpu:               0.4 elap:               0.2
 (Enter /opt/software/gaussian/g16.c01/l202.exe)
                          Input orientation:                          
 ---------------------------------------------------------------------
 Center     Atomic      Atomic             Coordinates (Angstroms)
 Number     Number       Type             X           Y           Z
 ---------------------------------------------------------------------
      1          6           0        0.934136   -0.050610    0.053392
      2          7           0        2.230356   -0.060728    0.097153
      3          1           0        2.710430    0.144555   -0.792940
      4          8           0        2.976899   -0.286398    1.075595
      5          1           0        0.460247    0.169182   -0.899820
      6          1           0        0.383342   -0.261341    0.966961
 ---------------------------------------------------------------------
                    Distance matrix (angstroms):
                    1          2          3          4          5
     1  C    0.000000
     2  N    1.296998   0.000000
     3  H    1.977268   1.031929   0.000000
     4  O    2.296383   1.251239   1.936013   0.000000
     5  H    1.086964   2.044529   2.252854   3.231617   0.000000
     6  H    1.087378   2.051408   2.945733   2.595952   1.917325
                    6
     6  H    0.000000
 Symmetry turned off by external request.
 Stoichiometry    CH3NO
 Rotational constants (GHZ):          75.8819039          11.9122881          10.2959784
 Leave Link  202 at Tue Jan  3 09:04:51 2023, MaxMem=   536870912 cpu:               0.0 elap:               0.0
 (Enter /opt/software/gaussian/g16.c01/l301.exe)
 General basis read from cards:  (5D, 7F)
 Centers:       3      5      6
 S 3 1.00
     Exponent=  1.3010701000D+01 Coefficients=  1.9682158000D-02
     Exponent=  1.9622572000D+00 Coefficients=  1.3796524000D-01
     Exponent=  4.4453796000D-01 Coefficients=  4.7831935000D-01
 S 1 1.00
     Exponent=  1.2194962000D-01 Coefficients=  1.0000000000D+00
 P 1 1.00
     Exponent=  8.0000000000D-01 Coefficients=  1.0000000000D+00
 ****
 Centers:       1
 S 5 1.00
     Exponent=  1.2384016938D+03 Coefficients=  5.4568832082D-03
     Exponent=  1.8629004992D+02 Coefficients=  4.0638409211D-02
     Exponent=  4.2251176346D+01 Coefficients=  1.8025593888D-01
     Exponent=  1.1676557932D+01 Coefficients=  4.6315121755D-01
     Exponent=  3.5930506482D+00 Coefficients=  4.4087173314D-01
 S 1 1.00
     Exponent=  4.0245147363D-01 Coefficients=  1.0000000000D+00
 S 1 1.00
     Exponent=  1.3090182668D-01 Coefficients=  1.0000000000D+00
 P 3 1.00
     Exponent=  9.4680970621D+00 Coefficients=  3.8387871728D-02
     Exponent=  2.0103545142D+00 Coefficients=  2.1117025112D-01
     Exponent=  5.4771004707D-01 Coefficients=  5.1328172114D-01
 P 1 1.00
     Exponent=  1.5268613795D-01 Coefficients=  1.0000000000D+00
 D 1 1.00
     Exponent=  8.0000000000D-01 Coefficients=  1.0000000000D+00
 ****
 Centers:       2
 S 5 1.00
     Exponent=  1.7128415853D+03 Coefficients= -5.3934125305D-03
     Exponent=  2.5764812677D+02 Coefficients= -4.0221581118D-02
     Exponent=  5.8458245853D+01 Coefficients= -1.7931144990D-01
     Exponent=  1.6198367905D+01 Coefficients= -4.6376317823D-01
     Exponent=  5.0052600809D+00 Coefficients= -4.4171422662D-01
 S 1 1.00
     Exponent=  5.8731856571D-01 Coefficients=  1.0000000000D+00
 S 1 1.00
     Exponent=  1.8764592253D-01 Coefficients=  1.0000000000D+00
 P 3 1.00
     Exponent=  1.3571470233D+01 Coefficients= -4.0072398852D-02
     Exponent=  2.9257372874D+00 Coefficients= -2.1807045028D-01
     Exponent=  7.9927750754D-01 Coefficients= -5.1294466049D-01
 P 1 1.00
     Exponent=  2.1954348034D-01 Coefficients=  1.0000000000D+00
 D 1 1.00
     Exponent=  1.0000000000D+00 Coefficients=  1.0000000000D+00
 ****
 Centers:       4
 S 5 1.00
     Exponent=  2.2661767785D+03 Coefficients= -5.3431809926D-03
     Exponent=  3.4087010191D+02 Coefficients= -3.9890039230D-02
     Exponent=  7.7363135167D+01 Coefficients= -1.7853911985D-01
     Exponent=  2.1479644940D+01 Coefficients= -4.6427684959D-01
     Exponent=  6.6589433124D+00 Coefficients= -4.4309745172D-01
 S 1 1.00
     Exponent=  8.0975975668D-01 Coefficients=  1.0000000000D+00
 S 1 1.00
     Exponent=  2.5530772234D-01 Coefficients=  1.0000000000D+00
 P 3 1.00
     Exponent=  1.7721504317D+01 Coefficients=  4.3394573193D-02
     Exponent=  3.8635505440D+00 Coefficients=  2.3094120765D-01
     Exponent=  1.0480920883D+00 Coefficients=  5.1375311064D-01
 P 1 1.00
     Exponent=  2.7641544411D-01 Coefficients=  1.0000000000D+00
 D 1 1.00
     Exponent=  1.2000000000D+00 Coefficients=  1.0000000000D+00
 ****
 Ernie: Thresh=  0.10000D-02 Tol=  0.10000D-05 Strict=F.
    57 basis functions,    96 primitive gaussians,    60 cartesian basis functions
    12 alpha electrons       12 beta electrons
       nuclear repulsion energy        72.3526514420 Hartrees.
 IExCor= 4639 DFT=T Ex+Corr=wB97XD ExCW=0 ScaHFX=  1.000000
 ScaDFX=  1.000000  1.000000  1.000000  1.000000 ScalE2=  1.000000  1.000000
 IRadAn=      5 IRanWt=     -1 IRanGd=            0 ICorTp=0 IEmpDi=121
 HFx  wShort=  0.000000 wLong=  0.200000 cFull=  0.222036 cShort=  0.000000 cLong=  0.777964
 DFx  wShort=  0.000000 wLong=  0.200000 cFull=  0.000000 cShort=  0.000000 cLong=  1.000000
 NAtoms=    6 NActive=    6 NUniq=    6 SFac= 1.00D+00 NAtFMM=   60 NAOKFM=F Big=F
 Integral buffers will be    131072 words long.
 Raffenetti 2 integral format.
 Two-electron integral symmetry is turned off.
 R6Disp:  Grimme-D2 Dispersion energy=       -0.0008068023 Hartrees.
 Nuclear repulsion after empirical dispersion term =       72.3518446396 Hartrees.
 Leave Link  301 at Tue Jan  3 09:04:51 2023, MaxMem=   536870912 cpu:               0.2 elap:               0.1
 (Enter /opt/software/gaussian/g16.c01/l302.exe)
 NPDir=0 NMtPBC=     1 NCelOv=     1 NCel=       1 NClECP=     1 NCelD=      1
         NCelK=      1 NCelE2=     1 NClLst=     1 CellRange=     0.0.
 One-electron integrals computed using PRISM.
 NBasis=    57 RedAO= T EigKep=  7.17D-03  NBF=    57
 NBsUse=    57 1.00D-06 EigRej= -1.00D+00 NBFU=    57
 Precomputing XC quadrature grid using
 IXCGrd= 4 IRadAn=           5 IRanWt=          -1 IRanGd=           0 AccXCQ= 0.00D+00.
 Generated NRdTot=       0 NPtTot=           0 NUsed=           0 NTot=          32
 NSgBfM=    60    60    60    60    60 MxSgAt=     6 MxSgA2=     6.
 Leave Link  302 at Tue Jan  3 09:04:51 2023, MaxMem=   536870912 cpu:               0.3 elap:               0.2
 (Enter /opt/software/gaussian/g16.c01/l303.exe)
 DipDrv:  MaxL=1.
 Leave Link  303 at Tue Jan  3 09:04:52 2023, MaxMem=   536870912 cpu:               0.1 elap:               0.0
 (Enter /opt/software/gaussian/g16.c01/l401.exe)
 ExpMin= 1.22D-01 ExpMax= 2.27D+03 ExpMxC= 3.41D+02 IAcc=3 IRadAn=         5 AccDes= 0.00D+00
 Harris functional with IExCor= 4639 and IRadAn=       5 diagonalized for initial guess.
 HarFok:  IExCor= 4639 AccDes= 0.00D+00 IRadAn=         5 IDoV= 1 UseB2=F ITyADJ=14
 ICtDFT=  3500011 ScaDFX=  1.000000  1.000000  1.000000  1.000000
 FoFCou: FMM=F IPFlag=           0 FMFlag=      100000 FMFlg1=           0
         NFxFlg=           0 DoJE=T BraDBF=F KetDBF=T FulRan=T
         wScrn=  0.000000 ICntrl=       500 IOpCl=  0 I1Cent=   200000004 NGrid=           0
         NMat0=    1 NMatS0=      1 NMatT0=    0 NMatD0=    1 NMtDS0=    0 NMtDT0=    0
 Symmetry not used in FoFCou.
 Harris En= -162.983165316034    
 JPrj=0 DoOrth=F DoCkMO=F.
 Initial guess <Sx>= 0.0000 <Sy>= 0.0000 <Sz>= 0.0000 <S**2>=-0.0000 S=-0.0000
 Leave Link  401 at Tue Jan  3 09:04:52 2023, MaxMem=   536870912 cpu:               0.9 elap:               0.5
 (Enter /opt/software/gaussian/g16.c01/l502.exe)
 Keep R1 and R2 ints in memory in canonical form, NReq=7336395.
 FoFCou: FMM=F IPFlag=           0 FMFlag=           0 FMFlg1=           0
         NFxFlg=           0 DoJE=F BraDBF=F KetDBF=F FulRan=T
         wScrn=  0.000000 ICntrl=       600 IOpCl=  0 I1Cent=           0 NGrid=           0
         NMat0=    1 NMatS0=   1653 NMatT0=    0 NMatD0=    1 NMtDS0=    0 NMtDT0=    0
 Symmetry not used in FoFCou.
 Two-electron integral symmetry not used.
 UHF open shell SCF:
 Using DIIS extrapolation, IDIIS=  1040.
 NGot=   536870912 LenX=   531394450 LenY=   531390409
 Requested convergence on RMS density matrix=1.00D-08 within 128 cycles.
 Requested convergence on MAX density matrix=1.00D-06.
 Requested convergence on             energy=1.00D-06.
 No special actions if energy rises.
 Integral accuracy reduced to 1.0D-05 until final iterations.

 Cycle   1  Pass 0  IDiag  1:
 E= -169.522143877565    
 DIIS: error= 4.07D-02 at cycle   1 NSaved=   1.
 NSaved= 1 IEnMin= 1 EnMin= -169.522143877565     IErMin= 1 ErrMin= 4.07D-02
 ErrMax= 4.07D-02  0.00D+00 EMaxC= 1.00D-01 BMatC= 5.70D-01 BMatP= 5.70D-01
 IDIUse=3 WtCom= 5.93D-01 WtEn= 4.07D-01
 Coeff-Com:  0.100D+01
 Coeff-En:   0.100D+01
 Coeff:      0.100D+01
 Gap=     0.302 Goal=   None    Shift=    0.000
 Gap=     0.302 Goal=   None    Shift=    0.000
 GapD=    0.302 DampG=1.000 DampE=0.500 DampFc=0.5000 IDamp=-1.
 Damping current iteration by 5.00D-01
 RMSDP=8.44D-03 MaxDP=1.59D-01              OVMax= 2.18D-01

 Cycle   2  Pass 0  IDiag  1:
 E= -169.559070080817     Delta-E=       -0.036926203252 Rises=F Damp=T
 DIIS: error= 1.58D-02 at cycle   2 NSaved=   2.
 NSaved= 2 IEnMin= 2 EnMin= -169.559070080817     IErMin= 2 ErrMin= 1.58D-02
 ErrMax= 1.58D-02  0.00D+00 EMaxC= 1.00D-01 BMatC= 5.86D-02 BMatP= 5.70D-01
 IDIUse=3 WtCom= 8.42D-01 WtEn= 1.58D-01
 Coeff-Com: -0.135D-01 0.101D+01
 Coeff-En:   0.137D+00 0.863D+00
 Coeff:      0.103D-01 0.990D+00
 Gap=     0.329 Goal=   None    Shift=    0.000
 Gap=     0.329 Goal=   None    Shift=    0.000
 RMSDP=2.31D-03 MaxDP=3.08D-02 DE=-3.69D-02 OVMax= 1.54D-01

 Cycle   3  Pass 0  IDiag  1:
 E= -169.605643175512     Delta-E=       -0.046573094694 Rises=F Damp=F
 DIIS: error= 7.10D-03 at cycle   3 NSaved=   3.
 NSaved= 3 IEnMin= 3 EnMin= -169.605643175512     IErMin= 3 ErrMin= 7.10D-03
 ErrMax= 7.10D-03  0.00D+00 EMaxC= 1.00D-01 BMatC= 1.75D-02 BMatP= 5.86D-02
 IDIUse=3 WtCom= 9.29D-01 WtEn= 7.10D-02
 Coeff-Com: -0.104D+00 0.330D+00 0.774D+00
 Coeff-En:   0.000D+00 0.000D+00 0.100D+01
 Coeff:     -0.968D-01 0.307D+00 0.790D+00
 Gap=     0.358 Goal=   None    Shift=    0.000
 Gap=     0.358 Goal=   None    Shift=    0.000
 RMSDP=1.49D-03 MaxDP=2.49D-02 DE=-4.66D-02 OVMax= 5.11D-02

 Cycle   4  Pass 0  IDiag  1:
 E= -169.608074493131     Delta-E=       -0.002431317620 Rises=F Damp=F
 DIIS: error= 6.19D-03 at cycle   4 NSaved=   4.
 NSaved= 4 IEnMin= 4 EnMin= -169.608074493131     IErMin= 4 ErrMin= 6.19D-03
 ErrMax= 6.19D-03  0.00D+00 EMaxC= 1.00D-01 BMatC= 8.74D-03 BMatP= 1.75D-02
 IDIUse=3 WtCom= 9.38D-01 WtEn= 6.19D-02
 Coeff-Com: -0.593D-01 0.128D+00 0.493D+00 0.438D+00
 Coeff-En:   0.000D+00 0.000D+00 0.295D+00 0.705D+00
 Coeff:     -0.556D-01 0.120D+00 0.481D+00 0.455D+00
 Gap=     0.353 Goal=   None    Shift=    0.000
 Gap=     0.353 Goal=   None    Shift=    0.000
 RMSDP=5.99D-04 MaxDP=1.07D-02 DE=-2.43D-03 OVMax= 1.66D-02

 Cycle   5  Pass 0  IDiag  1:
 E= -169.609778354343     Delta-E=       -0.001703861212 Rises=F Damp=F
 DIIS: error= 5.30D-04 at cycle   5 NSaved=   5.
 NSaved= 5 IEnMin= 5 EnMin= -169.609778354343     IErMin= 5 ErrMin= 5.30D-04
 ErrMax= 5.30D-04  0.00D+00 EMaxC= 1.00D-01 BMatC= 8.94D-05 BMatP= 8.74D-03
 IDIUse=3 WtCom= 9.95D-01 WtEn= 5.30D-03
 Coeff-Com: -0.116D-01 0.173D-01 0.128D+00 0.150D+00 0.716D+00
 Coeff-En:   0.000D+00 0.000D+00 0.000D+00 0.000D+00 0.100D+01
 Coeff:     -0.116D-01 0.172D-01 0.128D+00 0.149D+00 0.718D+00
 Gap=     0.354 Goal=   None    Shift=    0.000
 Gap=     0.354 Goal=   None    Shift=    0.000
 RMSDP=8.32D-05 MaxDP=1.23D-03 DE=-1.70D-03 OVMax= 1.10D-03

 Cycle   6  Pass 0  IDiag  1:
 E= -169.609795961335     Delta-E=       -0.000017606992 Rises=F Damp=F
 DIIS: error= 1.42D-04 at cycle   6 NSaved=   6.
 NSaved= 6 IEnMin= 6 EnMin= -169.609795961335     IErMin= 6 ErrMin= 1.42D-04
 ErrMax= 1.42D-04  0.00D+00 EMaxC= 1.00D-01 BMatC= 4.96D-06 BMatP= 8.94D-05
 IDIUse=3 WtCom= 9.99D-01 WtEn= 1.42D-03
 Coeff-Com:  0.413D-02-0.899D-02-0.194D-01-0.223D-01 0.107D+00 0.939D+00
 Coeff-En:   0.000D+00 0.000D+00 0.000D+00 0.000D+00 0.000D+00 0.100D+01
 Coeff:      0.412D-02-0.898D-02-0.193D-01-0.223D-01 0.107D+00 0.940D+00
 Gap=     0.354 Goal=   None    Shift=    0.000
 Gap=     0.354 Goal=   None    Shift=    0.000
 RMSDP=2.74D-05 MaxDP=3.24D-04 DE=-1.76D-05 OVMax= 4.20D-04

 Cycle   7  Pass 0  IDiag  1:
 E= -169.609797244323     Delta-E=       -0.000001282988 Rises=F Damp=F
 DIIS: error= 3.47D-05 at cycle   7 NSaved=   7.
 NSaved= 7 IEnMin= 7 EnMin= -169.609797244323     IErMin= 7 ErrMin= 3.47D-05
 ErrMax= 3.47D-05  0.00D+00 EMaxC= 1.00D-01 BMatC= 3.66D-07 BMatP= 4.96D-06
 IDIUse=1 WtCom= 1.00D+00 WtEn= 0.00D+00
 Coeff-Com:  0.160D-02-0.310D-02-0.912D-02-0.134D-01-0.238D-01 0.129D+00
 Coeff-Com:  0.919D+00
 Coeff:      0.160D-02-0.310D-02-0.912D-02-0.134D-01-0.238D-01 0.129D+00
 Coeff:      0.919D+00
 Gap=     0.354 Goal=   None    Shift=    0.000
 Gap=     0.354 Goal=   None    Shift=    0.000
 RMSDP=7.36D-06 MaxDP=7.39D-05 DE=-1.28D-06 OVMax= 9.65D-05

 Initial convergence to 1.0D-05 achieved.  Increase integral accuracy.
 Cycle   8  Pass 1  IDiag  1:
 E= -169.609802887764     Delta-E=       -0.000005643441 Rises=F Damp=F
 DIIS: error= 1.59D-05 at cycle   1 NSaved=   1.
 NSaved= 1 IEnMin= 1 EnMin= -169.609802887764     IErMin= 1 ErrMin= 1.59D-05
 ErrMax= 1.59D-05  0.00D+00 EMaxC= 1.00D-01 BMatC= 1.33D-07 BMatP= 1.33D-07
 IDIUse=1 WtCom= 1.00D+00 WtEn= 0.00D+00
 Coeff-Com:  0.100D+01
 Coeff:      0.100D+01
 Gap=     0.354 Goal=   None    Shift=    0.000
 Gap=     0.354 Goal=   None    Shift=    0.000
 RMSDP=7.36D-06 MaxDP=7.39D-05 DE=-5.64D-06 OVMax= 5.57D-05

 Cycle   9  Pass 1  IDiag  1:
 E= -169.609802910322     Delta-E=       -0.000000022558 Rises=F Damp=F
 DIIS: error= 1.53D-05 at cycle   2 NSaved=   2.
 NSaved= 2 IEnMin= 2 EnMin= -169.609802910322     IErMin= 2 ErrMin= 1.53D-05
 ErrMax= 1.53D-05  0.00D+00 EMaxC= 1.00D-01 BMatC= 4.76D-08 BMatP= 1.33D-07
 IDIUse=1 WtCom= 1.00D+00 WtEn= 0.00D+00
 Coeff-Com:  0.319D+00 0.681D+00
 Coeff:      0.319D+00 0.681D+00
 Gap=     0.354 Goal=   None    Shift=    0.000
 Gap=     0.354 Goal=   None    Shift=    0.000
 RMSDP=2.68D-06 MaxDP=4.56D-05 DE=-2.26D-08 OVMax= 1.00D-04

 Cycle  10  Pass 1  IDiag  1:
 E= -169.609802915789     Delta-E=       -0.000000005467 Rises=F Damp=F
 DIIS: error= 1.03D-05 at cycle   3 NSaved=   3.
 NSaved= 3 IEnMin= 3 EnMin= -169.609802915789     IErMin= 3 ErrMin= 1.03D-05
 ErrMax= 1.03D-05  0.00D+00 EMaxC= 1.00D-01 BMatC= 3.25D-08 BMatP= 4.76D-08
 IDIUse=1 WtCom= 1.00D+00 WtEn= 0.00D+00
 Coeff-Com: -0.519D-01 0.452D+00 0.599D+00
 Coeff:     -0.519D-01 0.452D+00 0.599D+00
 Gap=     0.354 Goal=   None    Shift=    0.000
 Gap=     0.354 Goal=   None    Shift=    0.000
 RMSDP=1.25D-06 MaxDP=1.79D-05 DE=-5.47D-09 OVMax= 3.05D-05

 Cycle  11  Pass 1  IDiag  1:
 E= -169.609802922407     Delta-E=       -0.000000006618 Rises=F Damp=F
 DIIS: error= 1.50D-06 at cycle   4 NSaved=   4.
 NSaved= 4 IEnMin= 4 EnMin= -169.609802922407     IErMin= 4 ErrMin= 1.50D-06
 ErrMax= 1.50D-06  0.00D+00 EMaxC= 1.00D-01 BMatC= 5.67D-10 BMatP= 3.25D-08
 IDIUse=1 WtCom= 1.00D+00 WtEn= 0.00D+00
 Coeff-Com: -0.332D-01 0.159D+00 0.198D+00 0.677D+00
 Coeff:     -0.332D-01 0.159D+00 0.198D+00 0.677D+00
 Gap=     0.354 Goal=   None    Shift=    0.000
 Gap=     0.354 Goal=   None    Shift=    0.000
 RMSDP=2.16D-07 MaxDP=2.98D-06 DE=-6.62D-09 OVMax= 4.41D-06

 Cycle  12  Pass 1  IDiag  1:
 E= -169.609802922524     Delta-E=       -0.000000000117 Rises=F Damp=F
 DIIS: error= 5.78D-07 at cycle   5 NSaved=   5.
 NSaved= 5 IEnMin= 5 EnMin= -169.609802922524     IErMin= 5 ErrMin= 5.78D-07
 ErrMax= 5.78D-07  0.00D+00 EMaxC= 1.00D-01 BMatC= 1.41D-10 BMatP= 5.67D-10
 IDIUse=1 WtCom= 1.00D+00 WtEn= 0.00D+00
 Coeff-Com: -0.263D-02-0.165D-01-0.559D-01 0.275D+00 0.800D+00
 Coeff:     -0.263D-02-0.165D-01-0.559D-01 0.275D+00 0.800D+00
 Gap=     0.354 Goal=   None    Shift=    0.000
 Gap=     0.354 Goal=   None    Shift=    0.000
 RMSDP=1.33D-07 MaxDP=1.21D-06 DE=-1.17D-10 OVMax= 2.41D-06

 Cycle  13  Pass 1  IDiag  1:
 E= -169.609802922559     Delta-E=       -0.000000000035 Rises=F Damp=F
 DIIS: error= 1.68D-07 at cycle   6 NSaved=   6.
 NSaved= 6 IEnMin= 6 EnMin= -169.609802922559     IErMin= 6 ErrMin= 1.68D-07
 ErrMax= 1.68D-07  0.00D+00 EMaxC= 1.00D-01 BMatC= 1.21D-11 BMatP= 1.41D-10
 IDIUse=1 WtCom= 1.00D+00 WtEn= 0.00D+00
 Coeff-Com:  0.343D-02-0.173D-01-0.418D-01-0.326D-01 0.156D+00 0.932D+00
 Coeff:      0.343D-02-0.173D-01-0.418D-01-0.326D-01 0.156D+00 0.932D+00
 Gap=     0.354 Goal=   None    Shift=    0.000
 Gap=     0.354 Goal=   None    Shift=    0.000
 RMSDP=5.27D-08 MaxDP=4.30D-07 DE=-3.54D-11 OVMax= 8.72D-07

 Cycle  14  Pass 1  IDiag  1:
 E= -169.609802922563     Delta-E=       -0.000000000004 Rises=F Damp=F
 DIIS: error= 3.97D-08 at cycle   7 NSaved=   7.
 NSaved= 7 IEnMin= 7 EnMin= -169.609802922563     IErMin= 7 ErrMin= 3.97D-08
 ErrMax= 3.97D-08  0.00D+00 EMaxC= 1.00D-01 BMatC= 8.92D-13 BMatP= 1.21D-11
 IDIUse=1 WtCom= 1.00D+00 WtEn= 0.00D+00
 Coeff-Com:  0.903D-03-0.179D-02-0.762D-02-0.252D-01-0.226D-01 0.194D+00
 Coeff-Com:  0.863D+00
 Coeff:      0.903D-03-0.179D-02-0.762D-02-0.252D-01-0.226D-01 0.194D+00
 Coeff:      0.863D+00
 Gap=     0.354 Goal=   None    Shift=    0.000
 Gap=     0.354 Goal=   None    Shift=    0.000
 RMSDP=1.40D-08 MaxDP=1.68D-07 DE=-4.04D-12 OVMax= 2.60D-07

 Cycle  15  Pass 1  IDiag  1:
 E= -169.609802922563     Delta-E=       -0.000000000000 Rises=F Damp=F
 DIIS: error= 8.24D-09 at cycle   8 NSaved=   8.
 NSaved= 8 IEnMin= 8 EnMin= -169.609802922563     IErMin= 8 ErrMin= 8.24D-09
 ErrMax= 8.24D-09  0.00D+00 EMaxC= 1.00D-01 BMatC= 4.07D-14 BMatP= 8.92D-13
 IDIUse=1 WtCom= 1.00D+00 WtEn= 0.00D+00
 Coeff-Com: -0.267D-03 0.192D-02 0.344D-02 0.166D-02-0.200D-01-0.801D-01
 Coeff-Com:  0.653D-01 0.103D+01
 Coeff:     -0.267D-03 0.192D-02 0.344D-02 0.166D-02-0.200D-01-0.801D-01
 Coeff:      0.653D-01 0.103D+01
 Gap=     0.354 Goal=   None    Shift=    0.000
 Gap=     0.354 Goal=   None    Shift=    0.000
 RMSDP=5.48D-09 MaxDP=3.44D-08 DE=-2.27D-13 OVMax= 1.56D-07

 SCF Done:  E(UwB97XD) =  -169.609802923     A.U. after   15 cycles
            NFock= 15  Conv=0.55D-08     -V/T= 2.0080
 <Sx>= 0.0000 <Sy>= 0.0000 <Sz>= 0.0000 <S**2>=-0.0000 S=-0.0000
 <L.S>=  0.00000000000    
 KE= 1.682622256438D+02 PE=-5.418664401551D+02 EE= 1.316425669491D+02
 Annihilation of the first spin contaminant:
 S**2 before annihilation    -0.0000,   after     0.0000
 Leave Link  502 at Tue Jan  3 09:04:57 2023, MaxMem=   536870912 cpu:               9.9 elap:               5.0
 (Enter /opt/software/gaussian/g16.c01/l508.exe)
 QCSCF skips out because SCF is already converged.
 Leave Link  508 at Tue Jan  3 09:04:57 2023, MaxMem=   536870912 cpu:               0.0 elap:               0.0
 (Enter /opt/software/gaussian/g16.c01/l601.exe)
 Copying SCF densities to generalized density rwf, IOpCl= 1 IROHF=0.

 **********************************************************************

            Population analysis using the SCF Density.

 **********************************************************************

 Alpha  occ. eigenvalues --  -19.22904 -14.59556 -10.34077  -1.20857  -0.95462
 Alpha  occ. eigenvalues --   -0.75431  -0.63746  -0.56658  -0.54814  -0.50374
 Alpha  occ. eigenvalues --   -0.33803  -0.30900
 Alpha virt. eigenvalues --    0.04511   0.11901   0.17346   0.20989   0.31158
 Alpha virt. eigenvalues --    0.35721   0.49805   0.56586   0.58122   0.64128
 Alpha virt. eigenvalues --    0.69225   0.72564   0.73955   0.82738   0.84865
 Alpha virt. eigenvalues --    1.03417   1.05083   1.10017   1.17269   1.24556
 Alpha virt. eigenvalues --    1.31603   1.35800   1.40740   1.59588   1.60283
 Alpha virt. eigenvalues --    1.72019   1.89696   1.94301   2.00709   2.01734
 Alpha virt. eigenvalues --    2.13807   2.18688   2.39109   2.41871   2.58611
 Alpha virt. eigenvalues --    2.59417   2.71956   2.81841   2.86500   2.93509
 Alpha virt. eigenvalues --    3.07951   3.27810   3.31178   3.57986   3.84552
  Beta  occ. eigenvalues --  -19.22904 -14.59556 -10.34077  -1.20857  -0.95462
  Beta  occ. eigenvalues --   -0.75431  -0.63746  -0.56658  -0.54814  -0.50374
  Beta  occ. eigenvalues --   -0.33803  -0.30900
  Beta virt. eigenvalues --    0.04511   0.11901   0.17346   0.20989   0.31158
  Beta virt. eigenvalues --    0.35721   0.49805   0.56586   0.58122   0.64128
  Beta virt. eigenvalues --    0.69225   0.72564   0.73955   0.82738   0.84865
  Beta virt. eigenvalues --    1.03417   1.05083   1.10017   1.17269   1.24556
  Beta virt. eigenvalues --    1.31603   1.35800   1.40740   1.59588   1.60283
  Beta virt. eigenvalues --    1.72019   1.89696   1.94301   2.00709   2.01734
  Beta virt. eigenvalues --    2.13807   2.18688   2.39109   2.41871   2.58611
  Beta virt. eigenvalues --    2.59417   2.71956   2.81841   2.86500   2.93509
  Beta virt. eigenvalues --    3.07951   3.27810   3.31178   3.57986   3.84552
          Condensed to atoms (all electrons):
               1          2          3          4          5          6
     1  C    4.889424   0.551815  -0.049174  -0.076523   0.377328   0.389854
     2  N    0.551815   5.697380   0.343714   0.253387  -0.018214  -0.014666
     3  H   -0.049174   0.343714   0.591676  -0.040688  -0.002193   0.008311
     4  O   -0.076523   0.253387  -0.040688   8.253701   0.004805   0.005488
     5  H    0.377328  -0.018214  -0.002193   0.004805   0.603268  -0.029092
     6  H    0.389854  -0.014666   0.008311   0.005488  -0.029092   0.556249
          Atomic-Atomic Spin Densities.
               1          2          3          4          5          6
     1  C    0.000000   0.000000   0.000000   0.000000   0.000000   0.000000
     2  N    0.000000   0.000000   0.000000   0.000000   0.000000   0.000000
     3  H    0.000000   0.000000   0.000000   0.000000   0.000000   0.000000
     4  O    0.000000   0.000000   0.000000   0.000000   0.000000   0.000000
     5  H    0.000000   0.000000   0.000000   0.000000   0.000000   0.000000
     6  H    0.000000   0.000000   0.000000   0.000000   0.000000   0.000000
 Mulliken charges and spin densities:
               1          2
     1  C   -0.082723   0.000000
     2  N    0.186585   0.000000
     3  H    0.148354   0.000000
     4  O   -0.400170   0.000000
     5  H    0.064099   0.000000
     6  H    0.083856   0.000000
 Sum of Mulliken charges =  -0.00000   0.00000
 Mulliken charges and spin densities with hydrogens summed into heavy atoms:
               1          2
     1  C    0.065231   0.000000
     2  N    0.334939   0.000000
     4  O   -0.400170   0.000000
 Electronic spatial extent (au):  <R**2>=            514.7652
 Charge=             -0.0000 electrons
 Dipole moment (field-independent basis, Debye):
    X=             -1.8089    Y=              0.6817    Z=             -2.9558  Tot=              3.5318
 Quadrupole moment (field-independent basis, Debye-Ang):
   XX=            -25.0937   YY=            -18.5991   ZZ=            -18.5770
   XY=              2.2111   XZ=             -9.2863   YZ=              0.1207
 Traceless Quadrupole moment (field-independent basis, Debye-Ang):
   XX=             -4.3371   YY=              2.1575   ZZ=              2.1796
   XY=              2.2111   XZ=             -9.2863   YZ=              0.1207
 Octapole moment (field-independent basis, Debye-Ang**2):
  XXX=           -130.5331  YYY=              6.4723  ZZZ=            -22.5265  XYY=            -35.3867
  XXY=              8.8451  XXZ=            -34.1819  XZZ=            -39.8440  YZZ=              3.0477
  YYZ=             -6.4130  XYZ=              1.4824
 Hexadecapole moment (field-independent basis, Debye-Ang**3):
 XXXX=           -604.9980 YYYY=            -19.6533 ZZZZ=            -64.3675 XXXY=             36.5261
 XXXZ=           -136.6818 YYYX=             16.3855 YYYZ=              6.2017 ZZZX=            -64.0478
 ZZZY=              6.4925 XXYY=            -89.3815 XXZZ=           -111.7266 YYZZ=            -13.9859
 XXYZ=              6.9094 YYXZ=            -18.3130 ZZXY=              8.1721
 N-N= 7.235184463964D+01 E-N=-5.418664395560D+02  KE= 1.682622256438D+02
                          Isotropic Fermi Contact Couplings
        Atom                 a.u.       MegaHertz       Gauss      10(-4) cm-1
     1  C(13)              0.00000       0.00000       0.00000       0.00000
     2  N(14)              0.00000       0.00000       0.00000       0.00000
     3  H(1)               0.00000       0.00000       0.00000       0.00000
     4  O(17)              0.00000      -0.00000      -0.00000      -0.00000
     5  H(1)               0.00000       0.00000       0.00000       0.00000
     6  H(1)               0.00000       0.00000       0.00000       0.00000
 --------------------------------------------------------
       Center         ----  Spin Dipole Couplings  ----
                      3XX-RR        3YY-RR        3ZZ-RR
 --------------------------------------------------------
     1   Atom        0.000000      0.000000      0.000000
     2   Atom        0.000000      0.000000      0.000000
     3   Atom        0.000000      0.000000      0.000000
     4   Atom        0.000000      0.000000      0.000000
     5   Atom        0.000000      0.000000      0.000000
     6   Atom        0.000000      0.000000      0.000000
 --------------------------------------------------------
                        XY            XZ            YZ
 --------------------------------------------------------
     1   Atom        0.000000      0.000000      0.000000
     2   Atom        0.000000      0.000000      0.000000
     3   Atom        0.000000      0.000000      0.000000
     4   Atom        0.000000      0.000000      0.000000
     5   Atom        0.000000      0.000000      0.000000
     6   Atom        0.000000      0.000000      0.000000
 --------------------------------------------------------


 ---------------------------------------------------------------------------------
              Anisotropic Spin Dipole Couplings in Principal Axis System
 ---------------------------------------------------------------------------------

       Atom             a.u.   MegaHertz   Gauss  10(-4) cm-1        Axes

              Baa     0.0000     0.000     0.000     0.000  1.0000  0.0000  0.0000
     1 C(13)  Bbb     0.0000     0.000     0.000     0.000 -0.0000  1.0000  0.0000
              Bcc     0.0000     0.000     0.000     0.000  0.0000  0.0000  1.0000
 
              Baa     0.0000     0.000     0.000     0.000  1.0000  0.0000  0.0000
     2 N(14)  Bbb     0.0000     0.000     0.000     0.000 -0.0000  1.0000  0.0000
              Bcc     0.0000     0.000     0.000     0.000  0.0000  0.0000  1.0000
 
              Baa     0.0000     0.000     0.000     0.000  1.0000  0.0000  0.0000
     3 H(1)   Bbb     0.0000     0.000     0.000     0.000 -0.0000  1.0000  0.0000
              Bcc     0.0000     0.000     0.000     0.000  0.0000  0.0000  1.0000
 
              Baa     0.0000    -0.000    -0.000    -0.000  1.0000  0.0000  0.0000
     4 O(17)  Bbb     0.0000    -0.000    -0.000    -0.000 -0.0000  1.0000  0.0000
              Bcc     0.0000    -0.000    -0.000    -0.000  0.0000  0.0000  1.0000
 
              Baa     0.0000     0.000     0.000     0.000  1.0000  0.0000  0.0000
     5 H(1)   Bbb     0.0000     0.000     0.000     0.000 -0.0000  1.0000  0.0000
              Bcc     0.0000     0.000     0.000     0.000  0.0000  0.0000  1.0000
 
              Baa     0.0000     0.000     0.000     0.000  1.0000  0.0000  0.0000
     6 H(1)   Bbb     0.0000     0.000     0.000     0.000 -0.0000  1.0000  0.0000
              Bcc     0.0000     0.000     0.000     0.000  0.0000  0.0000  1.0000
 

 ---------------------------------------------------------------------------------

 No NMR shielding tensors so no spin-rotation constants.
 Leave Link  601 at Tue Jan  3 09:04:57 2023, MaxMem=   536870912 cpu:               0.3 elap:               0.1
 (Enter /opt/software/gaussian/g16.c01/l801.exe)
 DoSCS=F DFT=T ScalE2(SS,OS)=  1.000000  1.000000
 Range of M.O.s used for correlation:     1    57
 NBasis=    57 NAE=    12 NBE=    12 NFC=     0 NFV=     0
 NROrb=     57 NOA=    12 NOB=    12 NVA=    45 NVB=    45
 Leave Link  801 at Tue Jan  3 09:04:57 2023, MaxMem=   536870912 cpu:               0.1 elap:               0.0
 (Enter /opt/software/gaussian/g16.c01/l914.exe)
 UHF ground state
 Doing stability rather than CIS.
 Keep R1 and R2 ints in memory in canonical form, NReq=7877381.
 FoFCou: FMM=F IPFlag=           0 FMFlag=           0 FMFlg1=           0
         NFxFlg=           0 DoJE=F BraDBF=F KetDBF=F FulRan=T
         wScrn=  0.000000 ICntrl=       600 IOpCl=  0 I1Cent=           0 NGrid=           0
         NMat0=    1 NMatS0=   1653 NMatT0=    0 NMatD0=    1 NMtDS0=    0 NMtDT0=    0
 Symmetry not used in FoFCou.
 Two-electron integral symmetry not used.
 MDV=   536870912 DFT=T DoStab=T Mixed=T DoRPA=F DoScal=F NonHer=F
 Making orbital integer symmetry assigments:
    12 initial guesses have been made.
 Convergence on wavefunction:    0.001000000000000
 Davidson Disk Diagonalization:  ConvIn= 1.00D-03 SkipCon=T Conv= 1.00D-03.
 Max sub-space:  2000 roots to seek:    12 dimension of matrix:         1080
 Iteration     1 Dimension    12 NMult     0 NNew     12
 CISAX will form    12 AO SS matrices at one time.
 NMat=    12 NSing=    12 JSym2X= 0.
 New state      1 was old state      2
 Excitation Energies [eV] at current iteration:
 Root      1 :     1.283778568317527
 Root      2 :     3.891066683468072
 Root      3 :     4.711598350232944
 Root      4 :     6.618149197148625
 Root      5 :     6.689381417796993
 Root      6 :     7.180067728904007
 Root      7 :     7.799064279359754
 Root      8 :     8.111203734664192
 Root      9 :     8.703082648972860
 Root     10 :     9.509783971534075
 Root     11 :     9.597884444569900
 Root     12 :    15.378328953716464
 Iteration     2 Dimension    24 NMult    12 NNew     12
 CISAX will form    12 AO SS matrices at one time.
 NMat=    12 NSing=    12 JSym2X= 0.
 Root      1 not converged, maximum delta is    0.056164737230366
 Excitation Energies [eV] at current iteration:
 Root      1 :     0.956680010407344   Change is   -0.327098557910183
 Root      2 :     3.743813484321048   Change is   -0.147253199147024
 Root      3 :     4.667617518163746   Change is   -0.043980832069198
 Root      4 :     6.520905008005453   Change is   -0.097244189143172
 Root      5 :     6.640911961119980   Change is   -0.048469456677013
 Root      6 :     6.931539451045720   Change is   -0.248528277858287
 Root      7 :     7.264170228404404   Change is   -0.534894050955351
 Root      8 :     7.860314770001195   Change is   -0.250888964662997
 Root      9 :     8.515697893605410   Change is   -0.187384755367451
 Root     10 :     8.584104275444707   Change is   -0.925679696089369
 Root     11 :     9.484978209385778   Change is   -0.112906235184121
 Root     12 :    10.046709792482648   Change is   -5.331619161233816
 Iteration     3 Dimension    27 NMult    24 NNew      3
 CISAX will form     3 AO SS matrices at one time.
 NMat=     3 NSing=     3 JSym2X= 0.
 Root      1 not converged, maximum delta is    0.014590340332561
 Excitation Energies [eV] at current iteration:
 Root      1 :     0.943531293485794   Change is   -0.013148716921549
 Root      2 :     3.740694942612160   Change is   -0.003118541708888
 Root      3 :     4.666139011443754   Change is   -0.001478506719993
 Iteration     4 Dimension    30 NMult    27 NNew      3
 CISAX will form     3 AO SS matrices at one time.
 NMat=     3 NSing=     3 JSym2X= 0.
 Root      1 not converged, maximum delta is    0.005718430417636
 Excitation Energies [eV] at current iteration:
 Root      1 :     0.942459547310684   Change is   -0.001071746175110
 Root      2 :     3.740521349874694   Change is   -0.000173592737466
 Root      3 :     4.666026078734001   Change is   -0.000112932709753
 Iteration     5 Dimension    33 NMult    30 NNew      3
 CISAX will form     3 AO SS matrices at one time.
 NMat=     3 NSing=     3 JSym2X= 0.
 Root      1 has converged.
 Excitation Energies [eV] at current iteration:
 Root      1 :     0.942407542594563   Change is   -0.000052004716121
 Root      2 :     3.740510732341458   Change is   -0.000010617533236
 Root      3 :     4.666017722137382   Change is   -0.000008356596618
 Convergence achieved on expansion vectors.
 ***********************************************************************
 Stability analysis using <AA,BB:AA,BB> singles matrix:
 ***********************************************************************
 1PDM for each excited state written to RWF  633
 Ground to excited state transition densities written to RWF  633

 Eigenvectors of the stability matrix:
 
 Excited state symmetry could not be determined.
 Eigenvector   1:  3.000-?Sym  Eigenvalue= 0.0346328  <S**2>=2.000
     12A -> 13A        0.69978
     12B -> 13B       -0.69978
 The wavefunction is stable under the perturbations considered.
 Leave Link  914 at Tue Jan  3 09:05:12 2023, MaxMem=   536870912 cpu:              29.4 elap:              14.7
 (Enter /opt/software/gaussian/g16.c01/l508.exe)
 The wavefunction is already stable.
 Leave Link  508 at Tue Jan  3 09:05:12 2023, MaxMem=   536870912 cpu:               0.0 elap:               0.0
 (Enter /opt/software/gaussian/g16.c01/l601.exe)
 Copying SCF densities to generalized density rwf, IOpCl= 1 IROHF=0.

 **********************************************************************

            Population analysis using the SCF Density.

 **********************************************************************

 Alpha  occ. eigenvalues --  -19.22904 -14.59556 -10.34077  -1.20857  -0.95462
 Alpha  occ. eigenvalues --   -0.75431  -0.63746  -0.56658  -0.54814  -0.50374
 Alpha  occ. eigenvalues --   -0.33803  -0.30900
 Alpha virt. eigenvalues --    0.04511   0.11901   0.17346   0.20989   0.31158
 Alpha virt. eigenvalues --    0.35721   0.49805   0.56586   0.58122   0.64128
 Alpha virt. eigenvalues --    0.69225   0.72564   0.73955   0.82738   0.84865
 Alpha virt. eigenvalues --    1.03417   1.05083   1.10017   1.17269   1.24556
 Alpha virt. eigenvalues --    1.31603   1.35800   1.40740   1.59588   1.60283
 Alpha virt. eigenvalues --    1.72019   1.89696   1.94301   2.00709   2.01734
 Alpha virt. eigenvalues --    2.13807   2.18688   2.39109   2.41871   2.58611
 Alpha virt. eigenvalues --    2.59417   2.71956   2.81841   2.86500   2.93509
 Alpha virt. eigenvalues --    3.07951   3.27810   3.31178   3.57986   3.84552
  Beta  occ. eigenvalues --  -19.22904 -14.59556 -10.34077  -1.20857  -0.95462
  Beta  occ. eigenvalues --   -0.75431  -0.63746  -0.56658  -0.54814  -0.50374
  Beta  occ. eigenvalues --   -0.33803  -0.30900
  Beta virt. eigenvalues --    0.04511   0.11901   0.17346   0.20989   0.31158
  Beta virt. eigenvalues --    0.35721   0.49805   0.56586   0.58122   0.64128
  Beta virt. eigenvalues --    0.69225   0.72564   0.73955   0.82738   0.84865
  Beta virt. eigenvalues --    1.03417   1.05083   1.10017   1.17269   1.24556
  Beta virt. eigenvalues --    1.31603   1.35800   1.40740   1.59588   1.60283
  Beta virt. eigenvalues --    1.72019   1.89696   1.94301   2.00709   2.01734
  Beta virt. eigenvalues --    2.13807   2.18688   2.39109   2.41871   2.58611
  Beta virt. eigenvalues --    2.59417   2.71956   2.81841   2.86500   2.93509
  Beta virt. eigenvalues --    3.07951   3.27810   3.31178   3.57986   3.84552
          Condensed to atoms (all electrons):
               1          2          3          4          5          6
     1  C    4.889424   0.551815  -0.049174  -0.076523   0.377328   0.389854
     2  N    0.551815   5.697380   0.343714   0.253387  -0.018214  -0.014666
     3  H   -0.049174   0.343714   0.591676  -0.040688  -0.002193   0.008311
     4  O   -0.076523   0.253387  -0.040688   8.253701   0.004805   0.005488
     5  H    0.377328  -0.018214  -0.002193   0.004805   0.603268  -0.029092
     6  H    0.389854  -0.014666   0.008311   0.005488  -0.029092   0.556249
          Atomic-Atomic Spin Densities.
               1          2          3          4          5          6
     1  C    0.000000   0.000000   0.000000   0.000000   0.000000   0.000000
     2  N    0.000000   0.000000   0.000000   0.000000   0.000000   0.000000
     3  H    0.000000   0.000000   0.000000   0.000000   0.000000   0.000000
     4  O    0.000000   0.000000   0.000000   0.000000   0.000000   0.000000
     5  H    0.000000   0.000000   0.000000   0.000000   0.000000   0.000000
     6  H    0.000000   0.000000   0.000000   0.000000   0.000000   0.000000
 Mulliken charges and spin densities:
               1          2
     1  C   -0.082723   0.000000
     2  N    0.186585   0.000000
     3  H    0.148354   0.000000
     4  O   -0.400170   0.000000
     5  H    0.064099   0.000000
     6  H    0.083856   0.000000
 Sum of Mulliken charges =  -0.00000   0.00000
 Mulliken charges and spin densities with hydrogens summed into heavy atoms:
               1          2
     1  C    0.065231   0.000000
     2  N    0.334939   0.000000
     4  O   -0.400170   0.000000
 Electronic spatial extent (au):  <R**2>=            514.7652
 Charge=             -0.0000 electrons
 Dipole moment (field-independent basis, Debye):
    X=             -1.8089    Y=              0.6817    Z=             -2.9558  Tot=              3.5318
 Quadrupole moment (field-independent basis, Debye-Ang):
   XX=            -25.0937   YY=            -18.5991   ZZ=            -18.5770
   XY=              2.2111   XZ=             -9.2863   YZ=              0.1207
 Traceless Quadrupole moment (field-independent basis, Debye-Ang):
   XX=             -4.3371   YY=              2.1575   ZZ=              2.1796
   XY=              2.2111   XZ=             -9.2863   YZ=              0.1207
 Octapole moment (field-independent basis, Debye-Ang**2):
  XXX=           -130.5331  YYY=              6.4723  ZZZ=            -22.5265  XYY=            -35.3867
  XXY=              8.8451  XXZ=            -34.1819  XZZ=            -39.8440  YZZ=              3.0477
  YYZ=             -6.4130  XYZ=              1.4824
 Hexadecapole moment (field-independent basis, Debye-Ang**3):
 XXXX=           -604.9980 YYYY=            -19.6533 ZZZZ=            -64.3675 XXXY=             36.5261
 XXXZ=           -136.6818 YYYX=             16.3855 YYYZ=              6.2017 ZZZX=            -64.0478
 ZZZY=              6.4925 XXYY=            -89.3815 XXZZ=           -111.7266 YYZZ=            -13.9859
 XXYZ=              6.9094 YYXZ=            -18.3130 ZZXY=              8.1721
 N-N= 7.235184463964D+01 E-N=-5.418664395560D+02  KE= 1.682622256438D+02
                          Isotropic Fermi Contact Couplings
        Atom                 a.u.       MegaHertz       Gauss      10(-4) cm-1
     1  C(13)              0.00000       0.00000       0.00000       0.00000
     2  N(14)              0.00000       0.00000       0.00000       0.00000
     3  H(1)               0.00000       0.00000       0.00000       0.00000
     4  O(17)              0.00000      -0.00000      -0.00000      -0.00000
     5  H(1)               0.00000       0.00000       0.00000       0.00000
     6  H(1)               0.00000       0.00000       0.00000       0.00000
 --------------------------------------------------------
       Center         ----  Spin Dipole Couplings  ----
                      3XX-RR        3YY-RR        3ZZ-RR
 --------------------------------------------------------
     1   Atom        0.000000      0.000000      0.000000
     2   Atom        0.000000      0.000000      0.000000
     3   Atom        0.000000      0.000000      0.000000
     4   Atom        0.000000      0.000000      0.000000
     5   Atom        0.000000      0.000000      0.000000
     6   Atom        0.000000      0.000000      0.000000
 --------------------------------------------------------
                        XY            XZ            YZ
 --------------------------------------------------------
     1   Atom        0.000000      0.000000      0.000000
     2   Atom        0.000000      0.000000      0.000000
     3   Atom        0.000000      0.000000      0.000000
     4   Atom        0.000000      0.000000      0.000000
     5   Atom        0.000000      0.000000      0.000000
     6   Atom        0.000000      0.000000      0.000000
 --------------------------------------------------------


 ---------------------------------------------------------------------------------
              Anisotropic Spin Dipole Couplings in Principal Axis System
 ---------------------------------------------------------------------------------

       Atom             a.u.   MegaHertz   Gauss  10(-4) cm-1        Axes

              Baa     0.0000     0.000     0.000     0.000  1.0000  0.0000  0.0000
     1 C(13)  Bbb     0.0000     0.000     0.000     0.000 -0.0000  1.0000  0.0000
              Bcc     0.0000     0.000     0.000     0.000  0.0000  0.0000  1.0000
 
              Baa     0.0000     0.000     0.000     0.000  1.0000  0.0000  0.0000
     2 N(14)  Bbb     0.0000     0.000     0.000     0.000 -0.0000  1.0000  0.0000
              Bcc     0.0000     0.000     0.000     0.000  0.0000  0.0000  1.0000
 
              Baa     0.0000     0.000     0.000     0.000  1.0000  0.0000  0.0000
     3 H(1)   Bbb     0.0000     0.000     0.000     0.000 -0.0000  1.0000  0.0000
              Bcc     0.0000     0.000     0.000     0.000  0.0000  0.0000  1.0000
 
              Baa     0.0000    -0.000    -0.000    -0.000  1.0000  0.0000  0.0000
     4 O(17)  Bbb     0.0000    -0.000    -0.000    -0.000 -0.0000  1.0000  0.0000
              Bcc     0.0000    -0.000    -0.000    -0.000  0.0000  0.0000  1.0000
 
              Baa     0.0000     0.000     0.000     0.000  1.0000  0.0000  0.0000
     5 H(1)   Bbb     0.0000     0.000     0.000     0.000 -0.0000  1.0000  0.0000
              Bcc     0.0000     0.000     0.000     0.000  0.0000  0.0000  1.0000
 
              Baa     0.0000     0.000     0.000     0.000  1.0000  0.0000  0.0000
     6 H(1)   Bbb     0.0000     0.000     0.000     0.000 -0.0000  1.0000  0.0000
              Bcc     0.0000     0.000     0.000     0.000  0.0000  0.0000  1.0000
 

 ---------------------------------------------------------------------------------

 No NMR shielding tensors so no spin-rotation constants.
 Leave Link  601 at Tue Jan  3 09:05:12 2023, MaxMem=   536870912 cpu:               0.3 elap:               0.2
 (Enter /opt/software/gaussian/g16.c01/l9999.exe)

 Test job not archived.
 1\1\GINC-GRA634\Stability\UwB97XD\Gen\C1H3N1O1\BHAVUK\03-Jan-2023\0\\#
 p uwb97xd/gen stable=opt scf=(maxcycle=900,verytightlineq,xqc) integra
 l=grid=ultrafine symmetry=None density=current iop(99/18=-1) output=wf
 n\\0002_q000_m01_k00_opt_uwb97xd_def2svpd/0002_q000_m01_k00_force_uwb9
 7xd_def2svp stable-force\\0,1\C,0,0.9341359983,-0.0506101672,0.0533916
 633\N,0,2.2303561638,-0.0607282973,0.0971529523\H,0,2.7104299206,0.144
 5551233,-0.7929401941\O,0,2.9768985022,-0.2863976361,1.0755945973\H,0,
 0.4602474304,0.169181767,-0.8998201368\H,0,0.383341983,-0.2613407898,0
 .9669611147\\Version=ES64L-G16RevC.01\HF=-169.6098029\S2=0.\S2-1=0.\S2
 A=0.\RMSD=5.477e-09\Dipole=-0.7116608,0.268185,-1.1629167\Quadrupole=-
 3.2245413,1.6040498,1.6204915,1.6438701,-6.9041471,0.0897135\PG=Unknow
 n\\@

 Writing a WFN file to "0002_q000_m01_k00_force_uwb97xd_def2svp.wfn"


 ... A MOLECULAR SYSTEM ... (PASSES) ... FROM ONE STATE OF EQUILIBRIUM 
 TO ANOTHER ... BY MEANS OF ALL POSSIBLE INTERMEDIATE PATHS, 
 BUT THE PATH MOST ECONOMICAL OF ENERGY WILL BE THE MORE OFTEN TRAVELED.

                      -- HENRY EYRING, 1945
 Job cpu time:       0 days  0 hours  0 minutes 42.5 seconds.
 Elapsed time:       0 days  0 hours  0 minutes 21.2 seconds.
 File lengths (MBytes):  RWF=     46 Int=      0 D2E=      0 Chk=      2 Scr=      1
 Normal termination of Gaussian 16 at Tue Jan  3 09:05:12 2023.
 Initial command:
 /opt/software/gaussian/g16.c01/l1.exe "/localscratch/bhavuk.2151369.0/Gau-1057.inp" -scrdir="/localscratch/bhavuk.2151369.0/"
 Entering Link 1 = /opt/software/gaussian/g16.c01/l1.exe PID=      1156.
  
 Copyright (c) 1988-2019, Gaussian, Inc.  All Rights Reserved.
  
 This is part of the Gaussian(R) 16 program.  It is based on
 the Gaussian(R) 09 system (copyright 2009, Gaussian, Inc.),
 the Gaussian(R) 03 system (copyright 2003, Gaussian, Inc.),
 the Gaussian(R) 98 system (copyright 1998, Gaussian, Inc.),
 the Gaussian(R) 94 system (copyright 1995, Gaussian, Inc.),
 the Gaussian 92(TM) system (copyright 1992, Gaussian, Inc.),
 the Gaussian 90(TM) system (copyright 1990, Gaussian, Inc.),
 the Gaussian 88(TM) system (copyright 1988, Gaussian, Inc.),
 the Gaussian 86(TM) system (copyright 1986, Carnegie Mellon
 University), and the Gaussian 82(TM) system (copyright 1983,
 Carnegie Mellon University). Gaussian is a federally registered
 trademark of Gaussian, Inc.
  
 This software contains proprietary and confidential information,
 including trade secrets, belonging to Gaussian, Inc.
  
 This software is provided under written license and may be
 used, copied, transmitted, or stored only in accord with that
 written license.
  
 The following legend is applicable only to US Government
 contracts under FAR:
  
                    RESTRICTED RIGHTS LEGEND
  
 Use, reproduction and disclosure by the US Government is
 subject to restrictions as set forth in subparagraphs (a)
 and (c) of the Commercial Computer Software - Restricted
 Rights clause in FAR 52.227-19.
  
 Gaussian, Inc.
 340 Quinnipiac St., Bldg. 40, Wallingford CT 06492
  
  
 ---------------------------------------------------------------
 Warning -- This program may not be used in any manner that
 competes with the business of Gaussian, Inc. or will provide
 assistance to any competitor of Gaussian, Inc.  The licensee
 of this program is prohibited from giving any competitor of
 Gaussian, Inc. access to this program.  By using this program,
 the user acknowledges that Gaussian, Inc. is engaged in the
 business of creating and licensing software in the field of
 computational chemistry and represents and warrants to the
 licensee that it is not a competitor of Gaussian, Inc. and that
 it will not use this program in any manner prohibited above.
 ---------------------------------------------------------------
  

 Cite this work as:
 Gaussian 16, Revision C.01,
 M. J. Frisch, G. W. Trucks, H. B. Schlegel, G. E. Scuseria, 
 M. A. Robb, J. R. Cheeseman, G. Scalmani, V. Barone, 
 G. A. Petersson, H. Nakatsuji, X. Li, M. Caricato, A. V. Marenich, 
 J. Bloino, B. G. Janesko, R. Gomperts, B. Mennucci, H. P. Hratchian, 
 J. V. Ortiz, A. F. Izmaylov, J. L. Sonnenberg, D. Williams-Young, 
 F. Ding, F. Lipparini, F. Egidi, J. Goings, B. Peng, A. Petrone, 
 T. Henderson, D. Ranasinghe, V. G. Zakrzewski, J. Gao, N. Rega, 
 G. Zheng, W. Liang, M. Hada, M. Ehara, K. Toyota, R. Fukuda, 
 J. Hasegawa, M. Ishida, T. Nakajima, Y. Honda, O. Kitao, H. Nakai, 
 T. Vreven, K. Throssell, J. A. Montgomery, Jr., J. E. Peralta, 
 F. Ogliaro, M. J. Bearpark, J. J. Heyd, E. N. Brothers, K. N. Kudin, 
 V. N. Staroverov, T. A. Keith, R. Kobayashi, J. Normand, 
 K. Raghavachari, A. P. Rendell, J. C. Burant, S. S. Iyengar, 
 J. Tomasi, M. Cossi, J. M. Millam, M. Klene, C. Adamo, R. Cammi, 
 J. W. Ochterski, R. L. Martin, K. Morokuma, O. Farkas, 
 J. B. Foresman, and D. J. Fox, Gaussian, Inc., Wallingford CT, 2019.
 
 ******************************************
 Gaussian 16:  ES64L-G16RevC.01  3-Jul-2019
                 3-Jan-2023 
 ******************************************
 %chk=0002_q000_m01_k00_force_uwb97xd_def2svp.chk
 %nprocshared=2
 Will use up to    2 processors via shared memory.
 %mem=4GB
 ----------------------------------------------------------------------
 #p uwb97xd/chkbasis force guess=read geom=check scf=(maxcycle=900,very
 tightlineq,xqc) integral=grid=ultrafine symmetry=None density=current 
 pop=(cm5,hlygat,mbs,npa) output=wfx
 ----------------------------------------------------------------------
 1/10=7,29=2,30=1,38=1/1,3;
 2/12=2,15=3,40=1/2;
 3/5=7,6=2,11=2,14=-4,25=1,30=1,67=1,71=1,74=-58,75=-5,116=2/1,2,3;
 4/5=1/1;
 5/5=2,7=900,8=3,13=1,17=3,38=6/2,8;
 6/7=2,8=2,9=2,10=2,15=8,20=15,22=-1,27=100,28=1,40=-1,79=1/1,2,7;
 7/29=1,30=1/1,2,3,16;
 1/10=7,30=1/3;
 99/6=200/99;
 Leave Link    1 at Tue Jan  3 09:05:12 2023, MaxMem=   536870912 cpu:               0.1 elap:               0.1
 (Enter /opt/software/gaussian/g16.c01/l101.exe)
 ----------------------------------------------------------------------
 0002_q000_m01_k00_opt_uwb97xd_def2svpd/0002_q000_m01_k00_force_uwb97xd
 _def2svp stable-force
 ----------------------------------------------------------------------
 Structure from the checkpoint file:  "0002_q000_m01_k00_force_uwb97xd_def2svp.chk"
 Charge =  0 Multiplicity = 1
 Z-Matrix found in chk file.
 C,0,0.9341359983,-0.0506101672,0.0533916633
 N,0,2.2303561638,-0.0607282973,0.0971529523
 H,0,2.7104299206,0.1445551233,-0.7929401941
 O,0,2.9768985022,-0.2863976361,1.0755945973
 H,0,0.4602474304,0.169181767,-0.8998201368
 H,0,0.383341983,-0.2613407898,0.9669611147
 Recover connectivity data from disk.
 ITRead=  0  0  0  0  0  0
 MicOpt= -1 -1 -1 -1 -1 -1
 NAtoms=      6 NQM=        6 NQMF=       0 NMMI=      0 NMMIF=      0
                NMic=       0 NMicF=      0.
                    Isotopes and Nuclear Properties:
 (Nuclear quadrupole moments (NQMom) in fm**2, nuclear magnetic moments (NMagM)
  in nuclear magnetons)

  Atom         1           2           3           4           5           6
 IAtWgt=          12          14           1          16           1           1
 AtmWgt=  12.0000000  14.0030740   1.0078250  15.9949146   1.0078250   1.0078250
 NucSpn=           0           2           1           0           1           1
 AtZEff=   3.6000000   4.5500000   1.0000000   5.6000000   1.0000000   1.0000000
 NQMom=    0.0000000   2.0440000   0.0000000   0.0000000   0.0000000   0.0000000
 NMagM=    0.0000000   0.4037610   2.7928460   0.0000000   2.7928460   2.7928460
 AtZNuc=   6.0000000   7.0000000   1.0000000   8.0000000   1.0000000   1.0000000
 Leave Link  101 at Tue Jan  3 09:05:13 2023, MaxMem=   536870912 cpu:               0.4 elap:               0.2
 (Enter /opt/software/gaussian/g16.c01/l103.exe)

 GradGradGradGradGradGradGradGradGradGradGradGradGradGradGradGradGradGrad
 Berny optimization.
 Initialization pass.
 Trust Radius=3.00D-01 FncErr=1.00D-07 GrdErr=1.00D-07 EigMax=2.50D+02 EigMin=1.00D-04
 Number of steps in this run=      2 maximum allowed number of steps=      2.
 GradGradGradGradGradGradGradGradGradGradGradGradGradGradGradGradGradGrad

 Leave Link  103 at Tue Jan  3 09:05:13 2023, MaxMem=   536870912 cpu:               0.1 elap:               0.0
 (Enter /opt/software/gaussian/g16.c01/l202.exe)
                          Input orientation:                          
 ---------------------------------------------------------------------
 Center     Atomic      Atomic             Coordinates (Angstroms)
 Number     Number       Type             X           Y           Z
 ---------------------------------------------------------------------
      1          6           0        0.934136   -0.050610    0.053392
      2          7           0        2.230356   -0.060728    0.097153
      3          1           0        2.710430    0.144555   -0.792940
      4          8           0        2.976899   -0.286398    1.075595
      5          1           0        0.460247    0.169182   -0.899820
      6          1           0        0.383342   -0.261341    0.966961
 ---------------------------------------------------------------------
                    Distance matrix (angstroms):
                    1          2          3          4          5
     1  C    0.000000
     2  N    1.296998   0.000000
     3  H    1.977268   1.031929   0.000000
     4  O    2.296383   1.251239   1.936013   0.000000
     5  H    1.086964   2.044529   2.252854   3.231617   0.000000
     6  H    1.087378   2.051408   2.945733   2.595952   1.917325
                    6
     6  H    0.000000
 Symmetry turned off by external request.
 Stoichiometry    CH3NO
 Rotational constants (GHZ):          75.8819039          11.9122881          10.2959784
 Leave Link  202 at Tue Jan  3 09:05:13 2023, MaxMem=   536870912 cpu:               0.0 elap:               0.0
 (Enter /opt/software/gaussian/g16.c01/l301.exe)
 Basis read from chk: "0002_q000_m01_k00_force_uwb97xd_def2svp.chk" (5D, 7F)
 No pseudopotential information found on chk file.
    57 basis functions,    96 primitive gaussians,    60 cartesian basis functions
    12 alpha electrons       12 beta electrons
       nuclear repulsion energy        72.3526514420 Hartrees.
 IExCor= 4639 DFT=T Ex+Corr=wB97XD ExCW=0 ScaHFX=  1.000000
 ScaDFX=  1.000000  1.000000  1.000000  1.000000 ScalE2=  1.000000  1.000000
 IRadAn=      5 IRanWt=     -1 IRanGd=            0 ICorTp=0 IEmpDi=121
 HFx  wShort=  0.000000 wLong=  0.200000 cFull=  0.222036 cShort=  0.000000 cLong=  0.777964
 DFx  wShort=  0.000000 wLong=  0.200000 cFull=  0.000000 cShort=  0.000000 cLong=  1.000000
 NAtoms=    6 NActive=    6 NUniq=    6 SFac= 1.00D+00 NAtFMM=   60 NAOKFM=F Big=F
 Integral buffers will be    131072 words long.
 Raffenetti 2 integral format.
 Two-electron integral symmetry is turned off.
 R6Disp:  Grimme-D2 Dispersion energy=       -0.0008068023 Hartrees.
 Nuclear repulsion after empirical dispersion term =       72.3518446396 Hartrees.
 No density basis found on file  20724.
 Leave Link  301 at Tue Jan  3 09:05:13 2023, MaxMem=   536870912 cpu:               0.1 elap:               0.1
 (Enter /opt/software/gaussian/g16.c01/l302.exe)
 NPDir=0 NMtPBC=     1 NCelOv=     1 NCel=       1 NClECP=     1 NCelD=      1
         NCelK=      1 NCelE2=     1 NClLst=     1 CellRange=     0.0.
 One-electron integrals computed using PRISM.
 NBasis=    57 RedAO= T EigKep=  7.17D-03  NBF=    57
 NBsUse=    57 1.00D-06 EigRej= -1.00D+00 NBFU=    57
 Precomputing XC quadrature grid using
 IXCGrd= 4 IRadAn=           5 IRanWt=          -1 IRanGd=           0 AccXCQ= 0.00D+00.
 Generated NRdTot=       0 NPtTot=           0 NUsed=           0 NTot=          32
 NSgBfM=    60    60    60    60    60 MxSgAt=     6 MxSgA2=     6.
 Leave Link  302 at Tue Jan  3 09:05:13 2023, MaxMem=   536870912 cpu:               0.3 elap:               0.2
 (Enter /opt/software/gaussian/g16.c01/l303.exe)
 DipDrv:  MaxL=1.
 Leave Link  303 at Tue Jan  3 09:05:13 2023, MaxMem=   536870912 cpu:               0.1 elap:               0.1
 (Enter /opt/software/gaussian/g16.c01/l401.exe)
 Initial guess from the checkpoint file:  "0002_q000_m01_k00_force_uwb97xd_def2svp.chk"
 B after Tr=     0.000000    0.000000    0.000000
         Rot=    1.000000    0.000000    0.000000    0.000000 Ang=   0.00 deg.
 Guess basis will be translated and rotated to current coordinates.
 JPrj=2 DoOrth=T DoCkMO=T.
 Initial guess <Sx>= 0.0000 <Sy>= 0.0000 <Sz>= 0.0000 <S**2>=-0.0000 S=-0.0000
 Leave Link  401 at Tue Jan  3 09:05:13 2023, MaxMem=   536870912 cpu:               0.2 elap:               0.1
 (Enter /opt/software/gaussian/g16.c01/l502.exe)
 Keep R1 and R2 ints in memory in canonical form, NReq=7336395.
 FoFCou: FMM=F IPFlag=           0 FMFlag=           0 FMFlg1=           0
         NFxFlg=           0 DoJE=F BraDBF=F KetDBF=F FulRan=T
         wScrn=  0.000000 ICntrl=       600 IOpCl=  0 I1Cent=           0 NGrid=           0
         NMat0=    1 NMatS0=   1653 NMatT0=    0 NMatD0=    1 NMtDS0=    0 NMtDT0=    0
 Symmetry not used in FoFCou.
 Two-electron integral symmetry not used.
 UHF open shell SCF:
 Using DIIS extrapolation, IDIIS=  1040.
 NGot=   536870912 LenX=   531394450 LenY=   531390409
 Requested convergence on RMS density matrix=1.00D-08 within 128 cycles.
 Requested convergence on MAX density matrix=1.00D-06.
 Requested convergence on             energy=1.00D-06.
 No special actions if energy rises.

 Cycle   1  Pass 1  IDiag  1:
 E= -169.609802922563    
 DIIS: error= 2.87D-09 at cycle   1 NSaved=   1.
 NSaved= 1 IEnMin= 1 EnMin= -169.609802922563     IErMin= 1 ErrMin= 2.87D-09
 ErrMax= 2.87D-09  0.00D+00 EMaxC= 1.00D-01 BMatC= 2.35D-15 BMatP= 2.35D-15
 IDIUse=1 WtCom= 1.00D+00 WtEn= 0.00D+00
 Coeff-Com:  0.100D+01
 Coeff:      0.100D+01
 Gap=     0.354 Goal=   None    Shift=    0.000
 Gap=     0.354 Goal=   None    Shift=    0.000
 RMSDP=1.38D-09 MaxDP=1.26D-08              OVMax= 5.27D-08

 SCF Done:  E(UwB97XD) =  -169.609802923     A.U. after    1 cycles
            NFock=  1  Conv=0.14D-08     -V/T= 2.0080
 <Sx>= 0.0000 <Sy>= 0.0000 <Sz>= 0.0000 <S**2>=-0.0000 S=-0.0000
 <L.S>=  0.00000000000    
 KE= 1.682622257343D+02 PE=-5.418664396465D+02 EE= 1.316425663500D+02
 Annihilation of the first spin contaminant:
 S**2 before annihilation    -0.0000,   after    -0.0000
 Leave Link  502 at Tue Jan  3 09:05:14 2023, MaxMem=   536870912 cpu:               1.5 elap:               0.8
 (Enter /opt/software/gaussian/g16.c01/l508.exe)
 QCSCF skips out because SCF is already converged.
 Leave Link  508 at Tue Jan  3 09:05:14 2023, MaxMem=   536870912 cpu:               0.0 elap:               0.0
 (Enter /opt/software/gaussian/g16.c01/l601.exe)
 Copying SCF densities to generalized density rwf, IOpCl= 1 IROHF=0.

 **********************************************************************

            Population analysis using the SCF Density.

 **********************************************************************

 Alpha  occ. eigenvalues --  -19.22904 -14.59556 -10.34077  -1.20857  -0.95462
 Alpha  occ. eigenvalues --   -0.75431  -0.63746  -0.56658  -0.54814  -0.50374
 Alpha  occ. eigenvalues --   -0.33803  -0.30900
 Alpha virt. eigenvalues --    0.04511   0.11901   0.17346   0.20989   0.31158
 Alpha virt. eigenvalues --    0.35721   0.49805   0.56586   0.58122   0.64128
 Alpha virt. eigenvalues --    0.69225   0.72564   0.73955   0.82738   0.84865
 Alpha virt. eigenvalues --    1.03417   1.05083   1.10017   1.17269   1.24556
 Alpha virt. eigenvalues --    1.31603   1.35800   1.40740   1.59588   1.60283
 Alpha virt. eigenvalues --    1.72019   1.89696   1.94301   2.00709   2.01734
 Alpha virt. eigenvalues --    2.13807   2.18688   2.39109   2.41871   2.58611
 Alpha virt. eigenvalues --    2.59417   2.71956   2.81841   2.86500   2.93509
 Alpha virt. eigenvalues --    3.07951   3.27810   3.31178   3.57986   3.84552
  Beta  occ. eigenvalues --  -19.22904 -14.59556 -10.34077  -1.20857  -0.95462
  Beta  occ. eigenvalues --   -0.75431  -0.63746  -0.56658  -0.54814  -0.50374
  Beta  occ. eigenvalues --   -0.33803  -0.30900
  Beta virt. eigenvalues --    0.04511   0.11901   0.17346   0.20989   0.31158
  Beta virt. eigenvalues --    0.35721   0.49805   0.56586   0.58122   0.64128
  Beta virt. eigenvalues --    0.69225   0.72564   0.73955   0.82738   0.84865
  Beta virt. eigenvalues --    1.03417   1.05083   1.10017   1.17269   1.24556
  Beta virt. eigenvalues --    1.31603   1.35800   1.40740   1.59588   1.60283
  Beta virt. eigenvalues --    1.72019   1.89696   1.94301   2.00709   2.01734
  Beta virt. eigenvalues --    2.13807   2.18688   2.39109   2.41871   2.58611
  Beta virt. eigenvalues --    2.59417   2.71956   2.81841   2.86500   2.93509
  Beta virt. eigenvalues --    3.07951   3.27810   3.31178   3.57986   3.84552
          Condensed to atoms (all electrons):
               1          2          3          4          5          6
     1  C    4.889424   0.551815  -0.049174  -0.076523   0.377328   0.389854
     2  N    0.551815   5.697380   0.343714   0.253387  -0.018214  -0.014666
     3  H   -0.049174   0.343714   0.591676  -0.040688  -0.002193   0.008311
     4  O   -0.076523   0.253387  -0.040688   8.253701   0.004805   0.005488
     5  H    0.377328  -0.018214  -0.002193   0.004805   0.603268  -0.029092
     6  H    0.389854  -0.014666   0.008311   0.005488  -0.029092   0.556249
          Atomic-Atomic Spin Densities.
               1          2          3          4          5          6
     1  C    0.000000   0.000000   0.000000   0.000000   0.000000   0.000000
     2  N    0.000000   0.000000   0.000000   0.000000   0.000000   0.000000
     3  H    0.000000   0.000000   0.000000   0.000000   0.000000   0.000000
     4  O    0.000000   0.000000   0.000000   0.000000   0.000000   0.000000
     5  H    0.000000   0.000000   0.000000   0.000000   0.000000   0.000000
     6  H    0.000000   0.000000   0.000000   0.000000   0.000000   0.000000
 Mulliken charges and spin densities:
               1          2
     1  C   -0.082723   0.000000
     2  N    0.186585   0.000000
     3  H    0.148354   0.000000
     4  O   -0.400170   0.000000
     5  H    0.064099   0.000000
     6  H    0.083856   0.000000
 Sum of Mulliken charges =  -0.00000   0.00000
 Mulliken charges and spin densities with hydrogens summed into heavy atoms:
               1          2
     1  C    0.065231   0.000000
     2  N    0.334939   0.000000
     4  O   -0.400170   0.000000
 Electronic spatial extent (au):  <R**2>=            514.7652
 Charge=             -0.0000 electrons
 Dipole moment (field-independent basis, Debye):
    X=             -1.8089    Y=              0.6817    Z=             -2.9558  Tot=              3.5318
 Quadrupole moment (field-independent basis, Debye-Ang):
   XX=            -25.0937   YY=            -18.5991   ZZ=            -18.5770
   XY=              2.2111   XZ=             -9.2863   YZ=              0.1207
 Traceless Quadrupole moment (field-independent basis, Debye-Ang):
   XX=             -4.3371   YY=              2.1575   ZZ=              2.1796
   XY=              2.2111   XZ=             -9.2863   YZ=              0.1207
 Octapole moment (field-independent basis, Debye-Ang**2):
  XXX=           -130.5331  YYY=              6.4723  ZZZ=            -22.5265  XYY=            -35.3867
  XXY=              8.8451  XXZ=            -34.1819  XZZ=            -39.8440  YZZ=              3.0477
  YYZ=             -6.4130  XYZ=              1.4824
 Hexadecapole moment (field-independent basis, Debye-Ang**3):
 XXXX=           -604.9980 YYYY=            -19.6533 ZZZZ=            -64.3675 XXXY=             36.5261
 XXXZ=           -136.6818 YYYX=             16.3855 YYYZ=              6.2017 ZZZX=            -64.0478
 ZZZY=              6.4925 XXYY=            -89.3815 XXZZ=           -111.7266 YYZZ=            -13.9859
 XXYZ=              6.9094 YYXZ=            -18.3130 ZZXY=              8.1721
 N-N= 7.235184463964D+01 E-N=-5.418664397597D+02  KE= 1.682622257343D+02
 There are a total of      132492 grid points.
 ElSum from          density=       24.0000001292
 ElSum from atomic densities=       24.0000001944
 Hirshfeld populations at iteration   1 (CA, CB, DipXYZ):
               1          2          3          4          5
     1  C    3.022253   3.022253  -0.013169   0.000607  -0.002640
     2  N    3.445533   3.445533   0.079083   0.001567  -0.006799
     3  H    0.426849   0.426849   0.092615   0.036881  -0.159921
     4  O    4.159209   4.159209  -0.122522   0.036887  -0.159932
     5  H    0.475089   0.475089  -0.076638   0.033487  -0.145238
     6  H    0.471068   0.471068  -0.094938  -0.032645   0.141522
       Tot  12.000000  12.000000  -0.135569   0.076784  -0.333008

 Dip from Atomic Chgs             -0.576092   0.191404  -0.829907
         Total Dipole             -0.711661   0.268188  -1.162915

 Hirshfeld charges, spin densities, dipoles, and CM5 charges using IRadAn=      5:
              Q-H        S-H        Dx         Dy         Dz        Q-CM5   
     1  C   -0.044506   0.000000  -0.013169   0.000607  -0.002640  -0.060348
     2  N    0.108933   0.000000   0.079083   0.001567  -0.006799  -0.220485
     3  H    0.146302   0.000000   0.092615   0.036881  -0.159921   0.340429
     4  O   -0.318417   0.000000  -0.122522   0.036887  -0.159932  -0.295189
     5  H    0.049822   0.000000  -0.076638   0.033487  -0.145238   0.112763
     6  H    0.057865   0.000000  -0.094938  -0.032645   0.141522   0.122830
       Tot  -0.000000   0.000000  -0.135569   0.076784  -0.333008  -0.000000
 Hirshfeld charges and spin densities with hydrogens summed into heavy atoms:
              Q-H        S-H       Q-CM5   
     1  C    0.063181   0.000000   0.175245
     2  N    0.255236   0.000000   0.119944
     4  O   -0.318417   0.000000  -0.295189
 
 EQQ=  0.00000000000     EQD=  0.00000000000     EDD= 0.562431237483E-03
 EQQ+QD+DD= 0.562431237483E-03
 
          MBS Condensed to atoms (all electrons):
               1          2          3          4          5          6
     1  C    4.955320   0.476777  -0.048751  -0.035776   0.389319   0.386730
     2  N    0.476777   5.878607   0.325350   0.318342  -0.021801  -0.021869
     3  H   -0.048751   0.325350   0.482904  -0.030861  -0.003755   0.002851
     4  O   -0.035776   0.318342  -0.030861   8.195204   0.000904  -0.000223
     5  H    0.389319  -0.021801  -0.003755   0.000904   0.536986  -0.017864
     6  H    0.386730  -0.021869   0.002851  -0.000223  -0.017864   0.512234
          MBS Atomic-Atomic Spin Densities.
               1          2          3          4          5          6
     1  C    0.000000   0.000000   0.000000   0.000000   0.000000   0.000000
     2  N    0.000000   0.000000   0.000000   0.000000   0.000000   0.000000
     3  H    0.000000   0.000000   0.000000   0.000000   0.000000   0.000000
     4  O    0.000000   0.000000   0.000000   0.000000   0.000000   0.000000
     5  H    0.000000   0.000000   0.000000   0.000000   0.000000   0.000000
     6  H    0.000000   0.000000   0.000000   0.000000   0.000000   0.000000
 MBS Mulliken charges and spin densities:
               1          2
     1  C   -0.123620   0.000000
     2  N    0.044595   0.000000
     3  H    0.272262   0.000000
     4  O   -0.447590   0.000000
     5  H    0.116211   0.000000
     6  H    0.138143   0.000000
 Sum of MBS Mulliken charges =  -0.00000   0.00000
 MBS Mulliken charges and spin densities with hydrogens summed into heavy atoms:
               1          2
     1  C    0.130734   0.000000
     2  N    0.316857   0.000000
     4  O   -0.447590   0.000000
 MBS Atomic Valencies and Mayer Atomic Bond Orders:
               1          2          3          4          5          6
     1  C    3.865498   1.527666   0.012462   0.406997   0.962379   0.955993
     2  N    1.527666   3.691140   0.836280   1.321540   0.003026   0.002628
     3  H    0.012462   0.836280   0.925873   0.063875   0.001051   0.012205
     4  O    0.406997   1.321540   0.063875   1.814231   0.015884   0.005935
     5  H    0.962379   0.003026   0.001051   0.015884   0.986495   0.004155
     6  H    0.955993   0.002628   0.012205   0.005935   0.004155   0.980917
 MBS Mayer-style numbers of lone pairs (12.000 valence pairs, 5.868 lone pairs):
               1
     1  C    1.129061
     2  N    1.632133
     3  H   -0.099068
     4  O    3.316679
     5  H   -0.051353
     6  H   -0.059530
 BEBO parameters in MulMin, MxElBE=  0:
 ELP=  0.00000000000     EBEBO=  0.00000000000     Sum=  0.00000000000    
 ELP=  0.00000000000     EBEBO=  0.00000000000     EJK=  0.00000000000      0.00000000000     Sum=  0.00000000000    
 0 EA=  0.00000000000     EB=  0.00000000000     ETot=  0.00000000000    
 1 EA=  0.00000000000     EB=  0.00000000000     ETot=  0.00000000000    
 2 EA=  0.00000000000     EB=  0.00000000000     ETot=  0.00000000000    
 3 EJ=  0.00000000000     EK=  0.00000000000     ETot=  0.00000000000    
 4 EJ=  0.00000000000     EK=  0.00000000000     ETot=  0.00000000000    
 5 EA=  0.00000000000     EB=  0.00000000000     ETot=  0.00000000000    
                          Isotropic Fermi Contact Couplings
        Atom                 a.u.       MegaHertz       Gauss      10(-4) cm-1
     1  C(13)              0.00000       0.00000       0.00000       0.00000
     2  N(14)              0.00000       0.00000       0.00000       0.00000
     3  H(1)               0.00000       0.00000       0.00000       0.00000
     4  O(17)              0.00000      -0.00000      -0.00000      -0.00000
     5  H(1)               0.00000       0.00000       0.00000       0.00000
     6  H(1)               0.00000       0.00000       0.00000       0.00000
 --------------------------------------------------------
       Center         ----  Spin Dipole Couplings  ----
                      3XX-RR        3YY-RR        3ZZ-RR
 --------------------------------------------------------
     1   Atom        0.000000      0.000000      0.000000
     2   Atom        0.000000      0.000000      0.000000
     3   Atom        0.000000      0.000000      0.000000
     4   Atom        0.000000      0.000000      0.000000
     5   Atom        0.000000      0.000000      0.000000
     6   Atom        0.000000      0.000000      0.000000
 --------------------------------------------------------
                        XY            XZ            YZ
 --------------------------------------------------------
     1   Atom        0.000000      0.000000      0.000000
     2   Atom        0.000000      0.000000      0.000000
     3   Atom        0.000000      0.000000      0.000000
     4   Atom        0.000000      0.000000      0.000000
     5   Atom        0.000000      0.000000      0.000000
     6   Atom        0.000000      0.000000      0.000000
 --------------------------------------------------------


 ---------------------------------------------------------------------------------
              Anisotropic Spin Dipole Couplings in Principal Axis System
 ---------------------------------------------------------------------------------

       Atom             a.u.   MegaHertz   Gauss  10(-4) cm-1        Axes

              Baa     0.0000     0.000     0.000     0.000  1.0000  0.0000  0.0000
     1 C(13)  Bbb     0.0000     0.000     0.000     0.000 -0.0000  1.0000  0.0000
              Bcc     0.0000     0.000     0.000     0.000  0.0000  0.0000  1.0000
 
              Baa     0.0000     0.000     0.000     0.000  1.0000  0.0000  0.0000
     2 N(14)  Bbb     0.0000     0.000     0.000     0.000 -0.0000  1.0000  0.0000
              Bcc     0.0000     0.000     0.000     0.000  0.0000  0.0000  1.0000
 
              Baa     0.0000     0.000     0.000     0.000  1.0000  0.0000  0.0000
     3 H(1)   Bbb     0.0000     0.000     0.000     0.000 -0.0000  1.0000  0.0000
              Bcc     0.0000     0.000     0.000     0.000  0.0000  0.0000  1.0000
 
              Baa     0.0000    -0.000    -0.000    -0.000  1.0000  0.0000  0.0000
     4 O(17)  Bbb     0.0000    -0.000    -0.000    -0.000 -0.0000  1.0000  0.0000
              Bcc     0.0000    -0.000    -0.000    -0.000  0.0000  0.0000  1.0000
 
              Baa     0.0000     0.000     0.000     0.000  1.0000  0.0000  0.0000
     5 H(1)   Bbb     0.0000     0.000     0.000     0.000 -0.0000  1.0000  0.0000
              Bcc     0.0000     0.000     0.000     0.000  0.0000  0.0000  1.0000
 
              Baa     0.0000     0.000     0.000     0.000  1.0000  0.0000  0.0000
     6 H(1)   Bbb     0.0000     0.000     0.000     0.000 -0.0000  1.0000  0.0000
              Bcc     0.0000     0.000     0.000     0.000  0.0000  0.0000  1.0000
 

 ---------------------------------------------------------------------------------

 No NMR shielding tensors so no spin-rotation constants.
 Leave Link  601 at Tue Jan  3 09:05:14 2023, MaxMem=   536870912 cpu:               0.7 elap:               0.4
 (Enter /opt/software/gaussian/g16.c01/l602.exe)
 FitSet:  NAtFit=     6 NAtPot=     6 NAtFrz=     0 MDM=    10 TotChg=   0.00000
 Generate Potential Derived Charges using the Hu-Lu-Yang model:
 IRhTyp=1 IRadAn=         2 Sigma=    0.800 Ln(Rho0)=    -9.00 ThrGrd= 1.00D-08 Tiny= 1.00D-08
       6989 gridpoints compressed to      1671.

 **********************************************************************

            Electrostatic Properties Using The SCF Density.

 **********************************************************************

       Atomic Center    1 is at   0.934136 -0.050610  0.053392
       Atomic Center    2 is at   2.230356 -0.060728  0.097153
       Atomic Center    3 is at   2.710430  0.144555 -0.792940
       Atomic Center    4 is at   2.976899 -0.286398  1.075595
       Atomic Center    5 is at   0.460247  0.169182 -0.899820
       Atomic Center    6 is at   0.383342 -0.261341  0.966961
    1671 points will be used for fitting atomic charges
 Fitting point charges to electrostatic potential
 Charges from ESP fit, RMS=   0.00062 RRMS=   0.05150:
 ESP charges:
               1
     1  C   -0.516650
     2  N    0.359871
     3  H    0.209751
     4  O   -0.484954
     5  H    0.188341
     6  H    0.243641
 Sum of ESP charges =  -0.00000
 ESP charges with hydrogens summed into heavy atoms:
               1
     1  C   -0.084668
     2  N    0.569622
     4  O   -0.484954
 Charge=  -0.00000 Dipole=    -1.8014     0.6806    -2.9513 Tot=     3.5240
 -----------------------------------------------------------------

              Electrostatic Properties (Atomic Units)

 -----------------------------------------------------------------
[...]
                Natural  -----------------------------------------------
    Atom  No    Charge         Core      Valence    Rydberg      Total
 -----------------------------------------------------------------------
      C    1   -0.11096      0.99965     2.09964    0.01167     3.11096
      N    2   -0.02172      0.99962     2.50822    0.01388     3.52172
      H    3    0.18116      0.00000     0.31527    0.00357     0.31884
      O    4   -0.24980      0.99990     3.24132    0.00857     4.24980
      H    5    0.09744      0.00000     0.40128    0.00128     0.40256
      H    6    0.10387      0.00000     0.39434    0.00179     0.39613
 =======================================================================
   * Total *    0.00000      2.99917     8.96007    0.04076    12.00000

                                 Natural Population      
 --------------------------------------------------------
   Core                       2.99917 ( 99.9723% of   3)
   Valence                    8.96007 ( 99.5564% of   9)
   Natural Minimal Basis     11.95924 ( 99.6604% of  12)
   Natural Rydberg Basis      0.04076 (  0.3396% of  12)
 --------------------------------------------------------

    Atom  No          Natural Electron Configuration
 ----------------------------------------------------------------------------
      C    1      [core]2S( 0.52)2p( 1.58)3p( 0.01)
      N    2      [core]2S( 0.59)2p( 1.92)3p( 0.01)
      H    3            1S( 0.32)
      O    4      [core]2S( 0.87)2p( 2.37)
      H    5            1S( 0.40)
      H    6            1S( 0.39)


 NBO analysis skipped by request.


 ***************************************************
 *******         Beta  spin orbitals         *******
 ***************************************************


 NATURAL POPULATIONS:  Natural atomic orbital occupancies 
                                                          
   NAO  Atom  No  lang   Type(AO)    Occupancy      Energy
 ----------------------------------------------------------
     1    C    1  S      Cor( 1S)     0.99965     -10.23197
     2    C    1  S      Val( 2S)     0.51627      -0.23074
     3    C    1  S      Ryd( 3S)     0.00104       0.54808
     4    C    1  px     Val( 2p)     0.44502      -0.02682
     5    C    1  px     Ryd( 3p)     0.00375       0.51536
     6    C    1  py     Val( 2p)     0.54482      -0.15444
     7    C    1  py     Ryd( 3p)     0.00338       0.57524
     8    C    1  pz     Val( 2p)     0.59353      -0.07997
     9    C    1  pz     Ryd( 3p)     0.00161       0.85224
    10    C    1  dxy    Ryd( 3d)     0.00073       2.04473
    11    C    1  dxz    Ryd( 3d)     0.00030       2.56570
    12    C    1  dyz    Ryd( 3d)     0.00005       2.02835
    13    C    1  dx2y2  Ryd( 3d)     0.00042       2.27270
    14    C    1  dz2    Ryd( 3d)     0.00039       2.43689
 
    15    N    2  S      Cor( 1S)     0.99962     -14.44993
    16    N    2  S      Val( 2S)     0.59318      -0.55153
    17    N    2  S      Ryd( 3S)     0.00247       0.89535
    18    N    2  px     Val( 2p)     0.64847      -0.31942
    19    N    2  px     Ryd( 3p)     0.00339       0.94990
    20    N    2  py     Val( 2p)     0.65457      -0.31919
    21    N    2  py     Ryd( 3p)     0.00046       0.83994
    22    N    2  pz     Val( 2p)     0.61200      -0.28483
    23    N    2  pz     Ryd( 3p)     0.00259       1.15215
    24    N    2  dxy    Ryd( 3d)     0.00138       2.41199
    25    N    2  dxz    Ryd( 3d)     0.00091       2.96617
    26    N    2  dyz    Ryd( 3d)     0.00078       2.40680
    27    N    2  dx2y2  Ryd( 3d)     0.00061       2.78749
    28    N    2  dz2    Ryd( 3d)     0.00130       2.75067
 
    29    H    3  S      Val( 1S)     0.31527       0.07171
    30    H    3  S      Ryd( 2S)     0.00257       0.43106
    31    H    3  px     Ryd( 2p)     0.00028       2.10119
    32    H    3  py     Ryd( 2p)     0.00018       1.70736
    33    H    3  pz     Ryd( 2p)     0.00052       2.28057
 
    34    O    4  S      Cor( 1S)     0.99990     -19.03488
    35    O    4  S      Val( 2S)     0.87397      -0.89573
    36    O    4  S      Ryd( 3S)     0.00192       1.28294
    37    O    4  px     Val( 2p)     0.83727      -0.29324
    38    O    4  px     Ryd( 3p)     0.00143       1.16464
    39    O    4  py     Val( 2p)     0.78852      -0.28330
    40    O    4  py     Ryd( 3p)     0.00152       1.10741
    41    O    4  pz     Val( 2p)     0.74157      -0.26548
    42    O    4  pz     Ryd( 3p)     0.00099       1.15914
    43    O    4  dxy    Ryd( 3d)     0.00037       2.83035
    44    O    4  dxz    Ryd( 3d)     0.00065       3.25397
    45    O    4  dyz    Ryd( 3d)     0.00064       2.89020
    46    O    4  dx2y2  Ryd( 3d)     0.00032       2.87318
    47    O    4  dz2    Ryd( 3d)     0.00075       3.05289
 
    48    H    5  S      Val( 1S)     0.40128       0.04835
    49    H    5  S      Ryd( 2S)     0.00069       0.37856
    50    H    5  px     Ryd( 2p)     0.00011       1.94447
    51    H    5  py     Ryd( 2p)     0.00016       1.70080
    52    H    5  pz     Ryd( 2p)     0.00031       2.28227
 
    53    H    6  S      Val( 1S)     0.39434       0.06933
    54    H    6  S      Ryd( 2S)     0.00127       0.38537
    55    H    6  px     Ryd( 2p)     0.00010       2.00268
    56    H    6  py     Ryd( 2p)     0.00010       1.71281
    57    H    6  pz     Ryd( 2p)     0.00031       2.25680


 Summary of Natural Population Analysis:                  
                                                          
                                       Natural Population 
                Natural  -----------------------------------------------
    Atom  No    Charge         Core      Valence    Rydberg      Total
 -----------------------------------------------------------------------
      C    1   -0.11096      0.99965     2.09964    0.01167     3.11096
      N    2   -0.02172      0.99962     2.50822    0.01388     3.52172
      H    3    0.18116      0.00000     0.31527    0.00357     0.31884
      O    4   -0.24980      0.99990     3.24132    0.00857     4.24980
      H    5    0.09744      0.00000     0.40128    0.00128     0.40256
      H    6    0.10387      0.00000     0.39434    0.00179     0.39613
 =======================================================================
   * Total *    0.00000      2.99917     8.96007    0.04076    12.00000

                                 Natural Population      
 --------------------------------------------------------
   Core                       2.99917 ( 99.9723% of   3)
   Valence                    8.96007 ( 99.5564% of   9)
   Natural Minimal Basis     11.95924 ( 99.6604% of  12)
   Natural Rydberg Basis      0.04076 (  0.3396% of  12)
 --------------------------------------------------------

    Atom  No          Natural Electron Configuration
 ----------------------------------------------------------------------------
      C    1      [core]2S( 0.52)2p( 1.58)3p( 0.01)
      N    2      [core]2S( 0.59)2p( 1.92)3p( 0.01)
      H    3            1S( 0.32)
      O    4      [core]2S( 0.87)2p( 2.37)
      H    5            1S( 0.40)
      H    6            1S( 0.39)


 NBO analysis skipped by request.
 Leave Link  607 at Tue Jan  3 09:05:16 2023, MaxMem=   536870912 cpu:               3.7 elap:               1.9
 (Enter /opt/software/gaussian/g16.c01/l701.exe)
 ... and contract with generalized density number  0.
 Compute integral first derivatives.
 R6Disp: Adding Grimme-D2 dispersion energy 1st derivatives to the gradient.
 Leave Link  701 at Tue Jan  3 09:05:17 2023, MaxMem=   536870912 cpu:               0.2 elap:               0.1
 (Enter /opt/software/gaussian/g16.c01/l702.exe)
 L702 exits ... SP integral derivatives will be done elsewhere.
 Leave Link  702 at Tue Jan  3 09:05:17 2023, MaxMem=   536870912 cpu:               0.1 elap:               0.1
 (Enter /opt/software/gaussian/g16.c01/l703.exe)
 Integral derivatives from FoFJK, PRISM(SPDF).
 Compute integral first derivatives, UseDBF=F ICtDFT=           0.
 Calling FoFJK, ICntrl=      2127 FMM=F ISym2X=0 I1Cent= 0 IOpClX= 1 NMat=1 NMatS=1 NMatT=0.
 FoFJK:  IHMeth= 1 ICntrl=    2127 DoSepK=T KAlg= 0 I1Cent=           0 FoldK=F
 IRaf=         1 NMat=       1 IRICut=       1 DoRegI=T DoRafI=F ISym2E= 0 IDoP0=0 IntGTp=1.
 FoFCou: FMM=F IPFlag=           0 FMFlag=      100000 FMFlg1=         800
         NFxFlg=           0 DoJE=F BraDBF=F KetDBF=F FulRan=T
         wScrn=  0.000000 ICntrl=      2527 IOpCl=  0 I1Cent=           0 NGrid=           0
         NMat0=    1 NMatS0=      1 NMatT0=    0 NMatD0=    1 NMtDS0=    0 NMtDT0=    0
 Symmetry not used in FoFCou.
 Leave Link  703 at Tue Jan  3 09:05:18 2023, MaxMem=   536870912 cpu:               2.7 elap:               1.4
 (Enter /opt/software/gaussian/g16.c01/l716.exe)
 Dipole        =-7.11660818D-01 2.68185028D-01-1.16291678D+00
 -------------------------------------------------------------------
 Center     Atomic                   Forces (Hartrees/Bohr)
 Number     Number              X              Y              Z
 -------------------------------------------------------------------
      1        6          -0.003444470    0.000634860   -0.002754275
      2        7           0.011287762   -0.003312866    0.014365917
      3        1           0.000094998    0.000833429   -0.003611410
      4        8          -0.006525145    0.001969206   -0.008537593
      5        1          -0.001058179    0.000138209   -0.000601422
      6        1          -0.000354965   -0.000262839    0.001138784
 -------------------------------------------------------------------
 Cartesian Forces:  Max     0.014365917 RMS     0.005274181
 Z-matrix is all fixed cartesians, so copy forces.
 Force constants in Cartesian coordinates: 
                1             2             3             4             5 
      1  0.101329D+01
      2 -0.181037D-02  0.203575D+00
      3  0.786374D-02 -0.124878D+00  0.716256D+00
      4 -0.679882D+00  0.300493D-02 -0.129771D-01  0.122912D+01
      5  0.376763D-02 -0.101951D+00  0.210923D-01 -0.513644D-01  0.222812D+00
      6 -0.162703D-01  0.210924D-01 -0.188542D+00  0.222639D+00 -0.201358D+00
      7 -0.102620D-02 -0.665546D-02  0.288574D-01 -0.181518D+00 -0.289962D-01
      8  0.121571D-03  0.160790D-01  0.116710D-03 -0.287431D-01 -0.726755D-01
      9 -0.525445D-03  0.118691D-03  0.155912D-01  0.124629D+00  0.655904D-01
     10  0.119887D-02  0.777540D-02 -0.337130D-01 -0.367761D+00  0.763242D-01
     11  0.200587D-03  0.190369D-01 -0.153988D-02  0.768689D-01 -0.806506D-01
     12 -0.868461D-03 -0.154186D-02  0.253675D-01 -0.333281D+00  0.114090D+00
     13 -0.158674D+00  0.217720D-01 -0.944370D-01  0.990489D-03  0.642211D-02
     14  0.210005D-01 -0.665152D-01  0.549206D-01  0.108065D-03  0.144495D-01
     15 -0.910994D-01  0.549244D-01 -0.292045D+00 -0.467503D-03  0.139020D-03
     16 -0.174911D+00 -0.240865D-01  0.104406D+00 -0.948593D-03 -0.615334D-02
     17 -0.232800D-01 -0.702247D-01  0.502880D-01  0.125613D-03  0.180161D-01
     18  0.100900D+00  0.502841D-01 -0.276628D+00 -0.542935D-03  0.445850D-03
                6             7             8             9            10 
      6  0.104942D+01
      7  0.125728D+00  0.157894D+00
      8  0.655912D-01  0.315330D-01  0.477677D-01
      9 -0.341942D+00 -0.136727D+00 -0.699667D-01  0.335000D+00
     10 -0.330918D+00  0.246502D-01 -0.291152D-02  0.126236D-01  0.341912D+00
     11  0.114089D+00  0.411862D-02  0.878005D-02  0.424634D-02 -0.811881D-01
     12 -0.549005D+00 -0.178579D-01  0.424651D-02 -0.865234D-02  0.352007D+00
     13 -0.278537D-01  0.000000D+00  0.000000D+00  0.000000D+00  0.000000D+00
     14  0.139979D-03  0.000000D+00 -0.908908D-02 -0.209632D-02  0.000000D+00
     15  0.138797D-01  0.000000D+00 -0.209566D-02 -0.483348D-03  0.000000D+00
     16  0.266748D-01  0.000000D+00  0.000000D+00  0.000000D+00  0.000000D+00
     17  0.444845D-03  0.000000D+00  0.913787D-02  0.210757D-02  0.000000D+00
     18  0.161850D-01  0.000000D+00  0.210791D-02  0.486171D-03  0.000000D+00
               11            12            13            14            15 
     11  0.528801D-01
     12 -0.116784D+00  0.532292D+00
     13  0.000000D+00  0.000000D+00  0.128269D+00
     14  0.864159D-02  0.199298D-02 -0.243128D-01  0.428129D-01
     15  0.199249D-02  0.459521D-03  0.105452D+00 -0.591266D-01  0.285599D+00
     16  0.000000D+00  0.000000D+00  0.294149D-01  0.320416D-02 -0.138848D-01
     17 -0.868798D-02 -0.200368D-02 -0.388133D-02  0.970030D-02  0.416630D-02
     18 -0.200413D-02 -0.462205D-03  0.168390D-01  0.416934D-02 -0.741015D-02
               16            17            18 
     16  0.146445D+00
     17  0.270357D-01  0.420584D-01
     18 -0.117196D+00 -0.550030D-01  0.267829D+00
 Leave Link  716 at Tue Jan  3 09:05:19 2023, MaxMem=   536870912 cpu:               0.1 elap:               0.1
 (Enter /opt/software/gaussian/g16.c01/l103.exe)

 GradGradGradGradGradGradGradGradGradGradGradGradGradGradGradGradGradGrad
 Berny optimization.
 Search for a local minimum.
 Step number   1 out of a maximum of    2
 All quantities printed in internal units (Hartrees-Bohrs-Radians)
 Second derivative matrix not updated -- first step.
 The second derivative matrix:
                          X1        Y1        Z1        X2        Y2
           X1           1.01329
           Y1          -0.00181   0.20358
           Z1           0.00786  -0.12488   0.71626
           X2          -0.67988   0.00300  -0.01298   1.22912
           Y2           0.00377  -0.10195   0.02109  -0.05136   0.22281
           Z2          -0.01627   0.02109  -0.18854   0.22264  -0.20136
           X3          -0.00103  -0.00666   0.02886  -0.18152  -0.02900
           Y3           0.00012   0.01608   0.00012  -0.02874  -0.07268
           Z3          -0.00053   0.00012   0.01559   0.12463   0.06559
           X4           0.00120   0.00778  -0.03371  -0.36776   0.07632
           Y4           0.00020   0.01904  -0.00154   0.07687  -0.08065
           Z4          -0.00087  -0.00154   0.02537  -0.33328   0.11409
           X5          -0.15867   0.02177  -0.09444   0.00099   0.00642
           Y5           0.02100  -0.06652   0.05492   0.00011   0.01445
           Z5          -0.09110   0.05492  -0.29205  -0.00047   0.00014
           X6          -0.17491  -0.02409   0.10441  -0.00095  -0.00615
           Y6          -0.02328  -0.07022   0.05029   0.00013   0.01802
           Z6           0.10090   0.05028  -0.27663  -0.00054   0.00045
                          Z2        X3        Y3        Z3        X4
           Z2           1.04942
           X3           0.12573   0.15789
           Y3           0.06559   0.03153   0.04777
           Z3          -0.34194  -0.13673  -0.06997   0.33500
           X4          -0.33092   0.02465  -0.00291   0.01262   0.34191
           Y4           0.11409   0.00412   0.00878   0.00425  -0.08119
           Z4          -0.54900  -0.01786   0.00425  -0.00865   0.35201
           X5          -0.02785  -0.00000  -0.00000  -0.00000   0.00000
           Y5           0.00014  -0.00000  -0.00909  -0.00210   0.00000
           Z5           0.01388  -0.00000  -0.00210  -0.00048   0.00000
           X6           0.02667   0.00000   0.00000   0.00000  -0.00000
           Y6           0.00044   0.00000   0.00914   0.00211  -0.00000
           Z6           0.01618   0.00000   0.00211   0.00049  -0.00000
                          Y4        Z4        X5        Y5        Z5
           Y4           0.05288
           Z4          -0.11678   0.53229
           X5           0.00000   0.00000   0.12827
           Y5           0.00864   0.00199  -0.02431   0.04281
           Z5           0.00199   0.00046   0.10545  -0.05913   0.28560
           X6          -0.00000  -0.00000   0.02941   0.00320  -0.01388
           Y6          -0.00869  -0.00200  -0.00388   0.00970   0.00417
           Z6          -0.00200  -0.00046   0.01684   0.00417  -0.00741
                          X6        Y6        Z6
           X6           0.14644
           Y6           0.02704   0.04206
           Z6          -0.11720  -0.05500   0.26783
 ITU=  0
     Eigenvalues ---    0.03447   0.04394   0.09385   0.09776   0.15149
     Eigenvalues ---    0.18516   0.28085   0.33564   0.68419   0.94438
     Eigenvalues ---    1.52455   2.16742
 Angle between quadratic step and forces=  38.08 degrees.
 Linear search not attempted -- first point.
 B after Tr=     0.001223    0.000070   -0.000298
         Rot=    1.000000   -0.000000    0.000184    0.000043 Ang=  -0.02 deg.
 Variable       Old X    -DE/DX   Delta X   Delta X   Delta X     New X
                                 (Linear)    (Quad)   (Total)
    X1        1.76526  -0.00344   0.00000  -0.00067   0.00051   1.76577
    Y1       -0.09564   0.00063   0.00000   0.00066   0.00058  -0.09506
    Z1        0.10090  -0.00275   0.00000  -0.00288  -0.00253   0.09837
    X2        4.21476   0.01129   0.00000   0.00619   0.00733   4.22210
    Y2       -0.11476  -0.00331   0.00000  -0.00189  -0.00218  -0.11694
    Z2        0.18359   0.01437   0.00000   0.00822   0.00947   0.19307
    X3        5.12197   0.00009   0.00000  -0.00369  -0.00189   5.12008
    Y3        0.27317   0.00083   0.00000   0.00126   0.00090   0.27407
    Z3       -1.49844  -0.00361   0.00000  -0.00545  -0.00387  -1.50231
    X4        5.62552  -0.00653   0.00000  -0.00125  -0.00082   5.62470
    Y4       -0.54121   0.00197   0.00000   0.00055   0.00014  -0.54107
    Z4        2.03258  -0.00854   0.00000  -0.00241  -0.00064   2.03194
    X5        0.86974  -0.00106   0.00000  -0.00659  -0.00471   0.86503
    Y5        0.31971   0.00014   0.00000   0.00073   0.00073   0.32044
    Z5       -1.70041  -0.00060   0.00000  -0.00322  -0.00320  -1.70361
    X6        0.72441  -0.00035   0.00000  -0.00093  -0.00042   0.72399
    Y6       -0.49386  -0.00026   0.00000  -0.00018  -0.00017  -0.49403
    Z6        1.82729   0.00114   0.00000   0.00080   0.00076   1.82806
         Item               Value     Threshold  Converged?
 Maximum Force            0.014366     0.000450     NO 
 RMS     Force            0.005274     0.000300     NO 
 Maximum Displacement     0.009474     0.001800     NO 
 RMS     Displacement     0.003411     0.001200     NO 
 Predicted change in Energy=-1.327184D-04
 GradGradGradGradGradGradGradGradGradGradGradGradGradGradGradGradGradGrad

 Leave Link  103 at Tue Jan  3 09:05:19 2023, MaxMem=   536870912 cpu:               0.1 elap:               0.0
 (Enter /opt/software/gaussian/g16.c01/l9999.exe)
 Unable to Open any file for archive entry.
 1\1\GINC-GRA634\Force\UwB97XD\Gen\C1H3N1O1\BHAVUK\03-Jan-2023\0\\#p uw
 b97xd/chkbasis force guess=read geom=check scf=(maxcycle=900,verytight
 lineq,xqc) integral=grid=ultrafine symmetry=None density=current pop=(
 cm5,hlygat,mbs,npa) output=wfx\\0002_q000_m01_k00_opt_uwb97xd_def2svpd
 /0002_q000_m01_k00_force_uwb97xd_def2svp stable-force\\0,1\C,0.9341359
 983,-0.0506101672,0.0533916633\N,2.2303561638,-0.0607282973,0.09715295
 23\H,2.7104299206,0.1445551233,-0.7929401941\O,2.9768985022,-0.2863976
 361,1.0755945973\H,0.4602474304,0.169181767,-0.8998201368\H,0.38334198
 3,-0.2613407898,0.9669611147\\Version=ES64L-G16RevC.01\HF=-169.6098029
 \S2=0.\S2-1=0.\S2A=0.\RMSD=1.384e-09\RMSF=5.274e-03\Dipole=-0.7116608,
 0.268185,-1.1629168\Quadrupole=-3.2245415,1.6040499,1.6204915,1.643870
 1,-6.9041472,0.0897135\PG=Unknown\\@
 The archive entry for this job was punched.

 Writing a WFNX file to "0002_q000_m01_k00_force_uwb97xd_def2svp.wfx"


 THERE IS MORE TO LIFE THAN INCREASING ITS SPEED.

                                       -- GANDHI
 Job cpu time:       0 days  0 hours  0 minutes 11.6 seconds.
 Elapsed time:       0 days  0 hours  0 minutes  5.7 seconds.
 File lengths (MBytes):  RWF=      6 Int=      0 D2E=      0 Chk=      2 Scr=      1
 Normal termination of Gaussian 16 at Tue Jan  3 09:05:19 2023.
