 Entering Gaussian System, Link 0=g16
 Input=0002_q000_m01_k00_force_uwb97xd_def2tzvp.com
 Output=0002_q000_m01_k00_force_uwb97xd_def2tzvp.log
 Initial command:
 /opt/software/gaussian/g16.c01/l1.exe "/localscratch/bhavuk.2151371.0/Gau-19233.inp" -scrdir="/localscratch/bhavuk.2151371.0/"
 Entering Link 1 = /opt/software/gaussian/g16.c01/l1.exe PID=     19234.
  
 Copyright (c) 1988-2019, Gaussian, Inc.  All Rights Reserved.
  
 This is part of the Gaussian(R) 16 program.  It is based on
 the Gaussian(R) 09 system (copyright 2009, Gaussian, Inc.),
 the Gaussian(R) 03 system (copyright 2003, Gaussian, Inc.),
 the Gaussian(R) 98 system (copyright 1998, Gaussian, Inc.),
 the Gaussian(R) 94 system (copyright 1995, Gaussian, Inc.),
 the Gaussian 92(TM) system (copyright 1992, Gaussian, Inc.),
 the Gaussian 90(TM) system (copyright 1990, Gaussian, Inc.),
 the Gaussian 88(TM) system (copyright 1988, Gaussian, Inc.),
 the Gaussian 86(TM) system (copyright 1986, Carnegie Mellon
 University), and the Gaussian 82(TM) system (copyright 1983,
 Carnegie Mellon University). Gaussian is a federally registered
 trademark of Gaussian, Inc.
  
 This software contains proprietary and confidential information,
 including trade secrets, belonging to Gaussian, Inc.
  
 This software is provided under written license and may be
 used, copied, transmitted, or stored only in accord with that
 written license.
  
 The following legend is applicable only to US Government
 contracts under FAR:
  
                    RESTRICTED RIGHTS LEGEND
  
 Use, reproduction and disclosure by the US Government is
 subject to restrictions as set forth in subparagraphs (a)
 and (c) of the Commercial Computer Software - Restricted
 Rights clause in FAR 52.227-19.
  
 Gaussian, Inc.
 340 Quinnipiac St., Bldg. 40, Wallingford CT 06492
  
  
 ---------------------------------------------------------------
 Warning -- This program may not be used in any manner that
 competes with the business of Gaussian, Inc. or will provide
 assistance to any competitor of Gaussian, Inc.  The licensee
 of this program is prohibited from giving any competitor of
 Gaussian, Inc. access to this program.  By using this program,
 the user acknowledges that Gaussian, Inc. is engaged in the
 business of creating and licensing software in the field of
 computational chemistry and represents and warrants to the
 licensee that it is not a competitor of Gaussian, Inc. and that
 it will not use this program in any manner prohibited above.
 ---------------------------------------------------------------
  

 Cite this work as:
 Gaussian 16, Revision C.01,
 M. J. Frisch, G. W. Trucks, H. B. Schlegel, G. E. Scuseria, 
 M. A. Robb, J. R. Cheeseman, G. Scalmani, V. Barone, 
 G. A. Petersson, H. Nakatsuji, X. Li, M. Caricato, A. V. Marenich, 
 J. Bloino, B. G. Janesko, R. Gomperts, B. Mennucci, H. P. Hratchian, 
 J. V. Ortiz, A. F. Izmaylov, J. L. Sonnenberg, D. Williams-Young, 
 F. Ding, F. Lipparini, F. Egidi, J. Goings, B. Peng, A. Petrone, 
 T. Henderson, D. Ranasinghe, V. G. Zakrzewski, J. Gao, N. Rega, 
 G. Zheng, W. Liang, M. Hada, M. Ehara, K. Toyota, R. Fukuda, 
 J. Hasegawa, M. Ishida, T. Nakajima, Y. Honda, O. Kitao, H. Nakai, 
 T. Vreven, K. Throssell, J. A. Montgomery, Jr., J. E. Peralta, 
 F. Ogliaro, M. J. Bearpark, J. J. Heyd, E. N. Brothers, K. N. Kudin, 
 V. N. Staroverov, T. A. Keith, R. Kobayashi, J. Normand, 
 K. Raghavachari, A. P. Rendell, J. C. Burant, S. S. Iyengar, 
 J. Tomasi, M. Cossi, J. M. Millam, M. Klene, C. Adamo, R. Cammi, 
 J. W. Ochterski, R. L. Martin, K. Morokuma, O. Farkas, 
 J. B. Foresman, and D. J. Fox, Gaussian, Inc., Wallingford CT, 2019.
 
 ******************************************
 Gaussian 16:  ES64L-G16RevC.01  3-Jul-2019
                 3-Jan-2023 
 ******************************************
 %chk=0002_q000_m01_k00_force_uwb97xd_def2tzvp.chk
 %nprocshared=2
 Will use up to    2 processors via shared memory.
 %mem=4GB
 ----------------------------------------------------------------------
 #p uwb97xd/gen stable=opt scf=(maxcycle=900,verytightlineq,xqc) integr
 al=grid=ultrafine symmetry=None density=current iop(99/18=-1) output=w
 fn
 ----------------------------------------------------------------------
 1/38=1,172=1/1;
 2/12=2,15=3,17=6,18=5,40=1/2;
 3/5=7,11=2,25=1,30=1,74=-58,75=-5,116=2/1,2,3;
 4//1;
 5/5=2,7=900,8=3,13=1,17=3,38=5/2,8;
 6/7=2,8=2,9=2,10=2,22=-1,28=1/1;
 8/6=1,10=90,11=11/1;
 9/8=-3,42=1,46=1/14;
 5/5=2,7=900,8=3,17=43,38=5/8(-2);
 6/7=2,8=2,9=2,10=2,22=-1,28=1/1;
 99/5=1,6=100,9=1,18=-1/99;
 Leave Link    1 at Tue Jan  3 09:04:57 2023, MaxMem=   536870912 cpu:               0.1 elap:               0.1
 (Enter /opt/software/gaussian/g16.c01/l101.exe)
 ----------------------------------------------------------------------
 0002_q000_m01_k00_opt_uwb97xd_def2svpd/0002_q000_m01_k00_force_uwb97xd
 _def2tzvp stable-force
 ----------------------------------------------------------------------
 Symbolic Z-matrix:
 Charge =  0 Multiplicity = 1
 C                     0.93414  -0.05061   0.05339 
 N                     2.23036  -0.06073   0.09715 
 H                     2.71043   0.14456  -0.79294 
 O                     2.9769   -0.2864    1.07559 
 H                     0.46025   0.16918  -0.89982 
 H                     0.38334  -0.26134   0.96696 
 
 ITRead=  0  0  0  0  0  0
 MicOpt= -1 -1 -1 -1 -1 -1
 NAtoms=      6 NQM=        6 NQMF=       0 NMMI=      0 NMMIF=      0
                NMic=       0 NMicF=      0.
                    Isotopes and Nuclear Properties:
 (Nuclear quadrupole moments (NQMom) in fm**2, nuclear magnetic moments (NMagM)
  in nuclear magnetons)

  Atom         1           2           3           4           5           6
 IAtWgt=          12          14           1          16           1           1
 AtmWgt=  12.0000000  14.0030740   1.0078250  15.9949146   1.0078250   1.0078250
 NucSpn=           0           2           1           0           1           1
 AtZEff=  -0.0000000  -0.0000000  -0.0000000  -0.0000000  -0.0000000  -0.0000000
 NQMom=    0.0000000   2.0440000   0.0000000   0.0000000   0.0000000   0.0000000
 NMagM=    0.0000000   0.4037610   2.7928460   0.0000000   2.7928460   2.7928460
 AtZNuc=   6.0000000   7.0000000   1.0000000   8.0000000   1.0000000   1.0000000
 Leave Link  101 at Tue Jan  3 09:04:58 2023, MaxMem=   536870912 cpu:               0.5 elap:               0.3
 (Enter /opt/software/gaussian/g16.c01/l202.exe)
                          Input orientation:                          
 ---------------------------------------------------------------------
 Center     Atomic      Atomic             Coordinates (Angstroms)
 Number     Number       Type             X           Y           Z
 ---------------------------------------------------------------------
      1          6           0        0.934136   -0.050610    0.053392
      2          7           0        2.230356   -0.060728    0.097153
      3          1           0        2.710430    0.144555   -0.792940
      4          8           0        2.976899   -0.286398    1.075595
      5          1           0        0.460247    0.169182   -0.899820
      6          1           0        0.383342   -0.261341    0.966961
 ---------------------------------------------------------------------
                    Distance matrix (angstroms):
                    1          2          3          4          5
     1  C    0.000000
     2  N    1.296998   0.000000
     3  H    1.977268   1.031929   0.000000
     4  O    2.296383   1.251239   1.936013   0.000000
     5  H    1.086964   2.044529   2.252854   3.231617   0.000000
     6  H    1.087378   2.051408   2.945733   2.595952   1.917325
                    6
     6  H    0.000000
 Symmetry turned off by external request.
 Stoichiometry    CH3NO
 Rotational constants (GHZ):          75.8819039          11.9122881          10.2959784
 Leave Link  202 at Tue Jan  3 09:04:58 2023, MaxMem=   536870912 cpu:               0.0 elap:               0.0
 (Enter /opt/software/gaussian/g16.c01/l301.exe)
 General basis read from cards:  (5D, 7F)
 Centers:       3      5      6
 S 3 1.00
     Exponent=  3.4061341000D+01 Coefficients=  6.0251978000D-03
     Exponent=  5.1235746000D+00 Coefficients=  4.5021094000D-02
     Exponent=  1.1646626000D+00 Coefficients=  2.0189726000D-01
 S 1 1.00
     Exponent=  3.2723041000D-01 Coefficients=  1.0000000000D+00
 S 1 1.00
     Exponent=  1.0307241000D-01 Coefficients=  1.0000000000D+00
 P 1 1.00
     Exponent=  8.0000000000D-01 Coefficients=  1.0000000000D+00
 ****
 Centers:       1
 S 6 1.00
     Exponent=  1.3575349682D+04 Coefficients=  2.2245814352D-04
     Exponent=  2.0352333680D+03 Coefficients=  1.7232738252D-03
     Exponent=  4.6322562359D+02 Coefficients=  8.9255715314D-03
     Exponent=  1.3120019598D+02 Coefficients=  3.5727984502D-02
     Exponent=  4.2853015891D+01 Coefficients=  1.1076259931D-01
     Exponent=  1.5584185766D+01 Coefficients=  2.4295627626D-01
 S 2 1.00
     Exponent=  6.2067138508D+00 Coefficients=  4.1440263448D-01
     Exponent=  2.5764896527D+00 Coefficients=  2.3744968655D-01
 S 1 1.00
     Exponent=  5.7696339419D-01 Coefficients=  1.0000000000D+00
 S 1 1.00
     Exponent=  2.2972831358D-01 Coefficients=  1.0000000000D+00
 S 1 1.00
     Exponent=  9.5164440028D-02 Coefficients=  1.0000000000D+00
 P 4 1.00
     Exponent=  3.4697232244D+01 Coefficients=  5.3333657805D-03
     Exponent=  7.9582622826D+00 Coefficients=  3.5864109092D-02
     Exponent=  2.3780826883D+00 Coefficients=  1.4215873329D-01
     Exponent=  8.1433208183D-01 Coefficients=  3.4270471845D-01
 P 1 1.00
     Exponent=  2.8887547253D-01 Coefficients=  4.6445822433D-01
 P 1 1.00
     Exponent=  1.0056823671D-01 Coefficients=  2.4955789874D-01
 D 1 1.00
     Exponent=  1.0970000000D+00 Coefficients=  1.0000000000D+00
 D 1 1.00
     Exponent=  3.1800000000D-01 Coefficients=  1.0000000000D+00
 F 1 1.00
     Exponent=  7.6100000000D-01 Coefficients=  1.0000000000D+00
 ****
 Centers:       2
 S 6 1.00
     Exponent=  1.9730800647D+04 Coefficients=  2.1887984991D-04
     Exponent=  2.9578958745D+03 Coefficients=  1.6960708803D-03
     Exponent=  6.7322133595D+02 Coefficients=  8.7954603538D-03
     Exponent=  1.9068249494D+02 Coefficients=  3.5359382605D-02
     Exponent=  6.2295441898D+01 Coefficients=  1.1095789217D-01
     Exponent=  2.2654161182D+01 Coefficients=  2.4982972552D-01
 S 2 1.00
     Exponent=  8.9791477428D+00 Coefficients=  4.0623896148D-01
     Exponent=  3.6863002370D+00 Coefficients=  2.4338217176D-01
 S 1 1.00
     Exponent=  8.4660076805D-01 Coefficients=  1.0000000000D+00
 S 1 1.00
     Exponent=  3.3647133771D-01 Coefficients=  1.0000000000D+00
 S 1 1.00
     Exponent=  1.3647653675D-01 Coefficients=  1.0000000000D+00
 P 4 1.00
     Exponent=  4.9200380510D+01 Coefficients=  5.5552416751D-03
     Exponent=  1.1346790537D+01 Coefficients=  3.8052379723D-02
     Exponent=  3.4273972411D+00 Coefficients=  1.4953671029D-01
     Exponent=  1.1785525134D+00 Coefficients=  3.4949305230D-01
 P 1 1.00
     Exponent=  4.1642204972D-01 Coefficients=  4.5843153697D-01
 P 1 1.00
     Exponent=  1.4260826011D-01 Coefficients=  2.4428771672D-01
 D 1 1.00
     Exponent=  1.6540000000D+00 Coefficients=  1.0000000000D+00
 D 1 1.00
     Exponent=  4.6900000000D-01 Coefficients=  1.0000000000D+00
 F 1 1.00
     Exponent=  1.0930000000D+00 Coefficients=  1.0000000000D+00
 ****
 Centers:       4
 S 6 1.00
     Exponent=  2.7032382631D+04 Coefficients=  2.1726302465D-04
     Exponent=  4.0523871392D+03 Coefficients=  1.6838662199D-03
     Exponent=  9.2232722710D+02 Coefficients=  8.7395616265D-03
     Exponent=  2.6124070989D+02 Coefficients=  3.5239968808D-02
     Exponent=  8.5354641351D+01 Coefficients=  1.1153519115D-01
     Exponent=  3.1035035245D+01 Coefficients=  2.5588953961D-01
 S 2 1.00
     Exponent=  1.2260860728D+01 Coefficients=  3.9768730901D-01
     Exponent=  4.9987076005D+00 Coefficients=  2.4627849430D-01
 S 1 1.00
     Exponent=  1.1703108158D+00 Coefficients=  1.0000000000D+00
 S 1 1.00
     Exponent=  4.6474740994D-01 Coefficients=  1.0000000000D+00
 S 1 1.00
     Exponent=  1.8504536357D-01 Coefficients=  1.0000000000D+00
 P 4 1.00
     Exponent=  6.3274954801D+01 Coefficients=  6.0685103418D-03
     Exponent=  1.4627049379D+01 Coefficients=  4.1912575824D-02
     Exponent=  4.4501223456D+00 Coefficients=  1.6153841088D-01
     Exponent=  1.5275799647D+00 Coefficients=  3.5706951311D-01
 P 1 1.00
     Exponent=  5.2935117943D-01 Coefficients=  4.4794207502D-01
 P 1 1.00
     Exponent=  1.7478421270D-01 Coefficients=  2.4446069663D-01
 D 1 1.00
     Exponent=  2.3140000000D+00 Coefficients=  1.0000000000D+00
 D 1 1.00
     Exponent=  6.4500000000D-01 Coefficients=  1.0000000000D+00
 F 1 1.00
     Exponent=  1.4280000000D+00 Coefficients=  1.0000000000D+00
 ****
 Ernie: Thresh=  0.10000D-02 Tol=  0.10000D-05 Strict=F.
   111 basis functions,   177 primitive gaussians,   126 cartesian basis functions
    12 alpha electrons       12 beta electrons
       nuclear repulsion energy        72.3526514420 Hartrees.
 IExCor= 4639 DFT=T Ex+Corr=wB97XD ExCW=0 ScaHFX=  1.000000
 ScaDFX=  1.000000  1.000000  1.000000  1.000000 ScalE2=  1.000000  1.000000
 IRadAn=      5 IRanWt=     -1 IRanGd=            0 ICorTp=0 IEmpDi=121
 HFx  wShort=  0.000000 wLong=  0.200000 cFull=  0.222036 cShort=  0.000000 cLong=  0.777964
 DFx  wShort=  0.000000 wLong=  0.200000 cFull=  0.000000 cShort=  0.000000 cLong=  1.000000
 NAtoms=    6 NActive=    6 NUniq=    6 SFac= 1.00D+00 NAtFMM=   60 NAOKFM=F Big=F
 Integral buffers will be    131072 words long.
 Raffenetti 2 integral format.
 Two-electron integral symmetry is turned off.
 R6Disp:  Grimme-D2 Dispersion energy=       -0.0008068023 Hartrees.
 Nuclear repulsion after empirical dispersion term =       72.3518446396 Hartrees.
 Leave Link  301 at Tue Jan  3 09:04:58 2023, MaxMem=   536870912 cpu:               0.2 elap:               0.1
 (Enter /opt/software/gaussian/g16.c01/l302.exe)
 NPDir=0 NMtPBC=     1 NCelOv=     1 NCel=       1 NClECP=     1 NCelD=      1
         NCelK=      1 NCelE2=     1 NClLst=     1 CellRange=     0.0.
 One-electron integrals computed using PRISM.
 NBasis=   111 RedAO= T EigKep=  7.22D-04  NBF=   111
 NBsUse=   111 1.00D-06 EigRej= -1.00D+00 NBFU=   111
 Precomputing XC quadrature grid using
 IXCGrd= 4 IRadAn=           5 IRanWt=          -1 IRanGd=           0 AccXCQ= 0.00D+00.
 Generated NRdTot=       0 NPtTot=           0 NUsed=           0 NTot=          32
 NSgBfM=   126   126   126   126   126 MxSgAt=     6 MxSgA2=     6.
 Leave Link  302 at Tue Jan  3 09:04:58 2023, MaxMem=   536870912 cpu:               0.4 elap:               0.2
 (Enter /opt/software/gaussian/g16.c01/l303.exe)
 DipDrv:  MaxL=1.
 Leave Link  303 at Tue Jan  3 09:04:58 2023, MaxMem=   536870912 cpu:               0.1 elap:               0.0
 (Enter /opt/software/gaussian/g16.c01/l401.exe)
 ExpMin= 9.52D-02 ExpMax= 2.70D+04 ExpMxC= 9.22D+02 IAcc=3 IRadAn=         5 AccDes= 0.00D+00
 Harris functional with IExCor= 4639 and IRadAn=       5 diagonalized for initial guess.
 HarFok:  IExCor= 4639 AccDes= 0.00D+00 IRadAn=         5 IDoV= 1 UseB2=F ITyADJ=14
 ICtDFT=  3500011 ScaDFX=  1.000000  1.000000  1.000000  1.000000
 FoFCou: FMM=F IPFlag=           0 FMFlag=      100000 FMFlg1=           0
         NFxFlg=           0 DoJE=T BraDBF=F KetDBF=T FulRan=T
         wScrn=  0.000000 ICntrl=       500 IOpCl=  0 I1Cent=   200000004 NGrid=           0
         NMat0=    1 NMatS0=      1 NMatT0=    0 NMatD0=    1 NMtDS0=    0 NMtDT0=    0
 Symmetry not used in FoFCou.
 Harris En= -163.187535537291    
 JPrj=0 DoOrth=F DoCkMO=F.
 Initial guess <Sx>= 0.0000 <Sy>= 0.0000 <Sz>= 0.0000 <S**2>= 0.0000 S= 0.0000
 Leave Link  401 at Tue Jan  3 09:04:59 2023, MaxMem=   536870912 cpu:               1.4 elap:               0.7
 (Enter /opt/software/gaussian/g16.c01/l502.exe)
 Keep R1 and R2 ints in memory in canonical form, NReq=79990355.
 FoFCou: FMM=F IPFlag=           0 FMFlag=           0 FMFlg1=           0
         NFxFlg=           0 DoJE=F BraDBF=F KetDBF=F FulRan=T
         wScrn=  0.000000 ICntrl=       600 IOpCl=  0 I1Cent=           0 NGrid=           0
         NMat0=    1 NMatS0=   6216 NMatT0=    0 NMatD0=    1 NMtDS0=    0 NMtDT0=    0
 Symmetry not used in FoFCou.
 Two-electron integral symmetry not used.
 UHF open shell SCF:
 Using DIIS extrapolation, IDIIS=  1040.
 NGot=   536870912 LenX=   459547552 LenY=   459531235
 Requested convergence on RMS density matrix=1.00D-08 within 128 cycles.
 Requested convergence on MAX density matrix=1.00D-06.
 Requested convergence on             energy=1.00D-06.
 No special actions if energy rises.
 Integral accuracy reduced to 1.0D-05 until final iterations.

 Cycle   1  Pass 0  IDiag  1:
 E= -169.709044493893    
 DIIS: error= 8.39D-02 at cycle   1 NSaved=   1.
 NSaved= 1 IEnMin= 1 EnMin= -169.709044493893     IErMin= 1 ErrMin= 8.39D-02
 ErrMax= 8.39D-02  0.00D+00 EMaxC= 1.00D-01 BMatC= 1.77D+00 BMatP= 1.77D+00
 IDIUse=3 WtCom= 1.61D-01 WtEn= 8.39D-01
 Coeff-Com:  0.100D+01
 Coeff-En:   0.100D+01
 Coeff:      0.100D+01
 Gap=     0.308 Goal=   None    Shift=    0.000
 Gap=     0.308 Goal=   None    Shift=    0.000
 GapD=    0.308 DampG=1.000 DampE=0.500 DampFc=0.5000 IDamp=-1.
 Damping current iteration by 5.00D-01
 RMSDP=3.48D-03 MaxDP=8.33D-02              OVMax= 2.40D-01

 Cycle   2  Pass 0  IDiag  1:
 E= -169.751311031899     Delta-E=       -0.042266538006 Rises=F Damp=T
 DIIS: error= 3.91D-02 at cycle   2 NSaved=   2.
 NSaved= 2 IEnMin= 2 EnMin= -169.751311031899     IErMin= 2 ErrMin= 3.91D-02
 ErrMax= 3.91D-02  0.00D+00 EMaxC= 1.00D-01 BMatC= 3.01D-01 BMatP= 1.77D+00
 IDIUse=3 WtCom= 6.09D-01 WtEn= 3.91D-01
 Coeff-Com: -0.299D+00 0.130D+01
 Coeff-En:   0.125D+00 0.875D+00
 Coeff:     -0.133D+00 0.113D+01
 Gap=     0.321 Goal=   None    Shift=    0.000
 Gap=     0.321 Goal=   None    Shift=    0.000
 RMSDP=1.26D-03 MaxDP=2.23D-02 DE=-4.23D-02 OVMax= 1.90D-01

 Cycle   3  Pass 0  IDiag  1:
 E= -169.792746576651     Delta-E=       -0.041435544752 Rises=F Damp=F
 DIIS: error= 1.30D-02 at cycle   3 NSaved=   3.
 NSaved= 3 IEnMin= 3 EnMin= -169.792746576651     IErMin= 3 ErrMin= 1.30D-02
 ErrMax= 1.30D-02  0.00D+00 EMaxC= 1.00D-01 BMatC= 8.75D-02 BMatP= 3.01D-01
 IDIUse=3 WtCom= 8.70D-01 WtEn= 1.30D-01
 Coeff-Com: -0.232D+00 0.545D+00 0.687D+00
 Coeff-En:   0.000D+00 0.000D+00 0.100D+01
 Coeff:     -0.202D+00 0.474D+00 0.728D+00
 Gap=     0.356 Goal=   None    Shift=    0.000
 Gap=     0.356 Goal=   None    Shift=    0.000
 RMSDP=1.04D-03 MaxDP=2.26D-02 DE=-4.14D-02 OVMax= 9.10D-02

 Cycle   4  Pass 0  IDiag  1:
 E= -169.807836384040     Delta-E=       -0.015089807390 Rises=F Damp=F
 DIIS: error= 6.22D-03 at cycle   4 NSaved=   4.
 NSaved= 4 IEnMin= 4 EnMin= -169.807836384040     IErMin= 4 ErrMin= 6.22D-03
 ErrMax= 6.22D-03  0.00D+00 EMaxC= 1.00D-01 BMatC= 1.84D-02 BMatP= 8.75D-02
 IDIUse=3 WtCom= 9.38D-01 WtEn= 6.22D-02
 Coeff-Com: -0.120D+00 0.272D+00 0.451D+00 0.397D+00
 Coeff-En:   0.000D+00 0.000D+00 0.134D+00 0.866D+00
 Coeff:     -0.112D+00 0.256D+00 0.431D+00 0.426D+00
 Gap=     0.349 Goal=   None    Shift=    0.000
 Gap=     0.349 Goal=   None    Shift=    0.000
 RMSDP=3.34D-04 MaxDP=8.71D-03 DE=-1.51D-02 OVMax= 2.64D-02

 Cycle   5  Pass 0  IDiag  1:
 E= -169.811244569047     Delta-E=       -0.003408185007 Rises=F Damp=F
 DIIS: error= 6.60D-04 at cycle   5 NSaved=   5.
 NSaved= 5 IEnMin= 5 EnMin= -169.811244569047     IErMin= 5 ErrMin= 6.60D-04
 ErrMax= 6.60D-04  0.00D+00 EMaxC= 1.00D-01 BMatC= 1.95D-04 BMatP= 1.84D-02
 IDIUse=3 WtCom= 9.93D-01 WtEn= 6.60D-03
 Coeff-Com: -0.176D-01 0.370D-01 0.856D-01 0.139D+00 0.756D+00
 Coeff-En:   0.000D+00 0.000D+00 0.000D+00 0.000D+00 0.100D+01
 Coeff:     -0.175D-01 0.367D-01 0.850D-01 0.138D+00 0.758D+00
 Gap=     0.352 Goal=   None    Shift=    0.000
 Gap=     0.352 Goal=   None    Shift=    0.000
 RMSDP=5.41D-05 MaxDP=9.72D-04 DE=-3.41D-03 OVMax= 1.98D-03

 Cycle   6  Pass 0  IDiag  1:
 E= -169.811279213873     Delta-E=       -0.000034644825 Rises=F Damp=F
 DIIS: error= 2.28D-04 at cycle   6 NSaved=   6.
 NSaved= 6 IEnMin= 6 EnMin= -169.811279213873     IErMin= 6 ErrMin= 2.28D-04
 ErrMax= 2.28D-04  0.00D+00 EMaxC= 1.00D-01 BMatC= 1.38D-05 BMatP= 1.95D-04
 IDIUse=3 WtCom= 9.98D-01 WtEn= 2.28D-03
 Coeff-Com:  0.895D-02-0.202D-01-0.275D-01-0.178D-01 0.186D+00 0.871D+00
 Coeff-En:   0.000D+00 0.000D+00 0.000D+00 0.000D+00 0.000D+00 0.100D+01
 Coeff:      0.892D-02-0.202D-01-0.275D-01-0.178D-01 0.186D+00 0.871D+00
 Gap=     0.352 Goal=   None    Shift=    0.000
 Gap=     0.352 Goal=   None    Shift=    0.000
 RMSDP=2.05D-05 MaxDP=4.34D-04 DE=-3.46D-05 OVMax= 6.37D-04

 Cycle   7  Pass 0  IDiag  1:
 E= -169.811282449501     Delta-E=       -0.000003235628 Rises=F Damp=F
 DIIS: error= 3.72D-05 at cycle   7 NSaved=   7.
 NSaved= 7 IEnMin= 7 EnMin= -169.811282449501     IErMin= 7 ErrMin= 3.72D-05
 ErrMax= 3.72D-05  0.00D+00 EMaxC= 1.00D-01 BMatC= 6.20D-07 BMatP= 1.38D-05
 IDIUse=1 WtCom= 1.00D+00 WtEn= 0.00D+00
 Coeff-Com:  0.224D-02-0.493D-02-0.721D-02-0.108D-01-0.110D-01 0.144D+00
 Coeff-Com:  0.887D+00
 Coeff:      0.224D-02-0.493D-02-0.721D-02-0.108D-01-0.110D-01 0.144D+00
 Coeff:      0.887D+00
 Gap=     0.352 Goal=   None    Shift=    0.000
 Gap=     0.352 Goal=   None    Shift=    0.000
 RMSDP=5.36D-06 MaxDP=7.75D-05 DE=-3.24D-06 OVMax= 1.70D-04

 Initial convergence to 1.0D-05 achieved.  Increase integral accuracy.
 Cycle   8  Pass 1  IDiag  1:
 E= -169.811284241896     Delta-E=       -0.000001792395 Rises=F Damp=F
 DIIS: error= 2.85D-05 at cycle   1 NSaved=   1.
 NSaved= 1 IEnMin= 1 EnMin= -169.811284241896     IErMin= 1 ErrMin= 2.85D-05
 ErrMax= 2.85D-05  0.00D+00 EMaxC= 1.00D-01 BMatC= 5.19D-07 BMatP= 5.19D-07
 IDIUse=1 WtCom= 1.00D+00 WtEn= 0.00D+00
 Coeff-Com:  0.100D+01
 Coeff:      0.100D+01
 Gap=     0.352 Goal=   None    Shift=    0.000
 Gap=     0.352 Goal=   None    Shift=    0.000
 RMSDP=5.36D-06 MaxDP=7.75D-05 DE=-1.79D-06 OVMax= 7.78D-05

 Cycle   9  Pass 1  IDiag  1:
 E= -169.811284314466     Delta-E=       -0.000000072570 Rises=F Damp=F
 DIIS: error= 1.38D-05 at cycle   2 NSaved=   2.
 NSaved= 2 IEnMin= 2 EnMin= -169.811284314466     IErMin= 2 ErrMin= 1.38D-05
 ErrMax= 1.38D-05  0.00D+00 EMaxC= 1.00D-01 BMatC= 9.41D-08 BMatP= 5.19D-07
 IDIUse=1 WtCom= 1.00D+00 WtEn= 0.00D+00
 Coeff-Com:  0.192D+00 0.808D+00
 Coeff:      0.192D+00 0.808D+00
 Gap=     0.352 Goal=   None    Shift=    0.000
 Gap=     0.352 Goal=   None    Shift=    0.000
 RMSDP=1.69D-06 MaxDP=4.16D-05 DE=-7.26D-08 OVMax= 1.65D-04

 Cycle  10  Pass 1  IDiag  1:
 E= -169.811284313477     Delta-E=        0.000000000989 Rises=F Damp=F
 DIIS: error= 1.36D-05 at cycle   3 NSaved=   3.
 NSaved= 3 IEnMin= 2 EnMin= -169.811284314466     IErMin= 3 ErrMin= 1.36D-05
 ErrMax= 1.36D-05  0.00D+00 EMaxC= 1.00D-01 BMatC= 1.29D-07 BMatP= 9.41D-08
 IDIUse=1 WtCom= 1.00D+00 WtEn= 0.00D+00
 Coeff-Com: -0.411D-01 0.551D+00 0.490D+00
 Coeff:     -0.411D-01 0.551D+00 0.490D+00
 Gap=     0.352 Goal=   None    Shift=    0.000
 Gap=     0.352 Goal=   None    Shift=    0.000
 RMSDP=9.39D-07 MaxDP=1.87D-05 DE= 9.89D-10 OVMax= 5.92D-05

 Cycle  11  Pass 1  IDiag  1:
 E= -169.811284338048     Delta-E=       -0.000000024571 Rises=F Damp=F
 DIIS: error= 1.76D-06 at cycle   4 NSaved=   4.
 NSaved= 4 IEnMin= 4 EnMin= -169.811284338048     IErMin= 4 ErrMin= 1.76D-06
 ErrMax= 1.76D-06  0.00D+00 EMaxC= 1.00D-01 BMatC= 1.44D-09 BMatP= 9.41D-08
 IDIUse=1 WtCom= 1.00D+00 WtEn= 0.00D+00
 Coeff-Com: -0.222D-01 0.167D+00 0.129D+00 0.727D+00
 Coeff:     -0.222D-01 0.167D+00 0.129D+00 0.727D+00
 Gap=     0.352 Goal=   None    Shift=    0.000
 Gap=     0.352 Goal=   None    Shift=    0.000
 RMSDP=1.77D-07 MaxDP=2.73D-06 DE=-2.46D-08 OVMax= 7.49D-06

 Cycle  12  Pass 1  IDiag  1:
 E= -169.811284338389     Delta-E=       -0.000000000341 Rises=F Damp=F
 DIIS: error= 8.70D-07 at cycle   5 NSaved=   5.
 NSaved= 5 IEnMin= 5 EnMin= -169.811284338389     IErMin= 5 ErrMin= 8.70D-07
 ErrMax= 8.70D-07  0.00D+00 EMaxC= 1.00D-01 BMatC= 5.37D-10 BMatP= 1.44D-09
 IDIUse=1 WtCom= 1.00D+00 WtEn= 0.00D+00
 Coeff-Com: -0.467D-03-0.407D-01-0.707D-01 0.319D+00 0.792D+00
 Coeff:     -0.467D-03-0.407D-01-0.707D-01 0.319D+00 0.792D+00
 Gap=     0.352 Goal=   None    Shift=    0.000
 Gap=     0.352 Goal=   None    Shift=    0.000
 RMSDP=1.42D-07 MaxDP=1.68D-06 DE=-3.41D-10 OVMax= 6.52D-06

 Cycle  13  Pass 1  IDiag  1:
 E= -169.811284338535     Delta-E=       -0.000000000146 Rises=F Damp=F
 DIIS: error= 3.77D-07 at cycle   6 NSaved=   6.
 NSaved= 6 IEnMin= 6 EnMin= -169.811284338535     IErMin= 6 ErrMin= 3.77D-07
 ErrMax= 3.77D-07  0.00D+00 EMaxC= 1.00D-01 BMatC= 5.57D-11 BMatP= 5.37D-10
 IDIUse=1 WtCom= 1.00D+00 WtEn= 0.00D+00
 Coeff-Com:  0.378D-02-0.348D-01-0.489D-01-0.522D-01 0.202D+00 0.930D+00
 Coeff:      0.378D-02-0.348D-01-0.489D-01-0.522D-01 0.202D+00 0.930D+00
 Gap=     0.352 Goal=   None    Shift=    0.000
 Gap=     0.352 Goal=   None    Shift=    0.000
 RMSDP=6.43D-08 MaxDP=8.24D-07 DE=-1.46D-10 OVMax= 2.84D-06

 Cycle  14  Pass 1  IDiag  1:
 E= -169.811284338557     Delta-E=       -0.000000000021 Rises=F Damp=F
 DIIS: error= 6.41D-08 at cycle   7 NSaved=   7.
 NSaved= 7 IEnMin= 7 EnMin= -169.811284338557     IErMin= 7 ErrMin= 6.41D-08
 ErrMax= 6.41D-08  0.00D+00 EMaxC= 1.00D-01 BMatC= 2.85D-12 BMatP= 5.57D-11
 IDIUse=1 WtCom= 1.00D+00 WtEn= 0.00D+00
 Coeff-Com:  0.617D-03-0.246D-02-0.591D-02-0.259D-01-0.218D-01 0.139D+00
 Coeff-Com:  0.916D+00
 Coeff:      0.617D-03-0.246D-02-0.591D-02-0.259D-01-0.218D-01 0.139D+00
 Coeff:      0.916D+00
 Gap=     0.352 Goal=   None    Shift=    0.000
 Gap=     0.352 Goal=   None    Shift=    0.000
 RMSDP=1.26D-08 MaxDP=2.09D-07 DE=-2.11D-11 OVMax= 5.39D-07

 Cycle  15  Pass 1  IDiag  1:
 E= -169.811284338558     Delta-E=       -0.000000000001 Rises=F Damp=F
 DIIS: error= 1.59D-08 at cycle   8 NSaved=   8.
 NSaved= 8 IEnMin= 8 EnMin= -169.811284338558     IErMin= 8 ErrMin= 1.59D-08
 ErrMax= 1.59D-08  0.00D+00 EMaxC= 1.00D-01 BMatC= 1.43D-13 BMatP= 2.85D-12
 IDIUse=1 WtCom= 1.00D+00 WtEn= 0.00D+00
 Coeff-Com: -0.237D-03 0.313D-02 0.343D-02-0.154D-03-0.248D-01-0.590D-01
 Coeff-Com:  0.202D+00 0.876D+00
 Coeff:     -0.237D-03 0.313D-02 0.343D-02-0.154D-03-0.248D-01-0.590D-01
 Coeff:      0.202D+00 0.876D+00
 Gap=     0.352 Goal=   None    Shift=    0.000
 Gap=     0.352 Goal=   None    Shift=    0.000
 RMSDP=3.79D-09 MaxDP=5.27D-08 DE=-1.19D-12 OVMax= 1.63D-07

 SCF Done:  E(UwB97XD) =  -169.811284339     A.U. after   15 cycles
            NFock= 15  Conv=0.38D-08     -V/T= 2.0043
 <Sx>= 0.0000 <Sy>= 0.0000 <Sz>= 0.0000 <S**2>=-0.0000 S=-0.0000
 <L.S>=  0.00000000000    
 KE= 1.690887070707D+02 PE=-5.429508293522D+02 EE= 1.316989933033D+02
 Annihilation of the first spin contaminant:
 S**2 before annihilation    -0.0000,   after     0.0000
 Leave Link  502 at Tue Jan  3 09:05:10 2023, MaxMem=   536870912 cpu:              22.6 elap:              11.6
 (Enter /opt/software/gaussian/g16.c01/l508.exe)
 QCSCF skips out because SCF is already converged.
 Leave Link  508 at Tue Jan  3 09:05:10 2023, MaxMem=   536870912 cpu:               0.0 elap:               0.0
 (Enter /opt/software/gaussian/g16.c01/l601.exe)
 Copying SCF densities to generalized density rwf, IOpCl= 1 IROHF=0.

 **********************************************************************

            Population analysis using the SCF Density.

 **********************************************************************

 Alpha  occ. eigenvalues --  -19.22995 -14.58781 -10.33263  -1.22313  -0.96658
 Alpha  occ. eigenvalues --   -0.76186  -0.64466  -0.57706  -0.55054  -0.51026
 Alpha  occ. eigenvalues --   -0.34767  -0.31775
 Alpha virt. eigenvalues --    0.03415   0.09736   0.15113   0.18161   0.22436
 Alpha virt. eigenvalues --    0.24747   0.29581   0.29826   0.38423   0.42780
 Alpha virt. eigenvalues --    0.45760   0.49279   0.50327   0.53796   0.55250
 Alpha virt. eigenvalues --    0.57926   0.59769   0.61443   0.65094   0.69354
 Alpha virt. eigenvalues --    0.76684   0.83100   0.84676   1.00110   1.06440
 Alpha virt. eigenvalues --    1.11184   1.12175   1.30059   1.39341   1.43653
 Alpha virt. eigenvalues --    1.50905   1.51445   1.60673   1.62767   1.64482
 Alpha virt. eigenvalues --    1.67257   1.80969   1.83665   1.85198   1.89142
 Alpha virt. eigenvalues --    1.91748   2.02180   2.10603   2.14059   2.23318
 Alpha virt. eigenvalues --    2.25719   2.28262   2.35523   2.48660   2.57033
 Alpha virt. eigenvalues --    2.60144   2.68511   2.72323   2.82784   2.87221
 Alpha virt. eigenvalues --    2.91130   2.96930   2.99925   3.06812   3.09624
 Alpha virt. eigenvalues --    3.11736   3.19641   3.29622   3.36448   3.38404
 Alpha virt. eigenvalues --    3.52280   3.65649   3.73602   3.85630   4.01469
 Alpha virt. eigenvalues --    4.18729   4.19240   4.30515   4.50057   4.67056
 Alpha virt. eigenvalues --    4.77157   4.84149   4.84774   4.95320   5.01528
 Alpha virt. eigenvalues --    5.13493   5.24424   5.29685   5.36559   5.46491
 Alpha virt. eigenvalues --    5.49121   5.68122   5.87076   6.35631   6.40919
 Alpha virt. eigenvalues --    6.44441   6.61491   6.94300   7.08618   7.18486
 Alpha virt. eigenvalues --    7.46253  22.48471  32.12759  43.99955
  Beta  occ. eigenvalues --  -19.22995 -14.58781 -10.33263  -1.22313  -0.96658
  Beta  occ. eigenvalues --   -0.76186  -0.64466  -0.57706  -0.55054  -0.51026
  Beta  occ. eigenvalues --   -0.34767  -0.31775
  Beta virt. eigenvalues --    0.03415   0.09736   0.15113   0.18161   0.22436
  Beta virt. eigenvalues --    0.24747   0.29581   0.29826   0.38423   0.42780
  Beta virt. eigenvalues --    0.45760   0.49279   0.50327   0.53796   0.55250
  Beta virt. eigenvalues --    0.57926   0.59769   0.61443   0.65094   0.69354
  Beta virt. eigenvalues --    0.76684   0.83100   0.84676   1.00110   1.06440
  Beta virt. eigenvalues --    1.11184   1.12175   1.30059   1.39341   1.43653
  Beta virt. eigenvalues --    1.50905   1.51445   1.60673   1.62767   1.64482
  Beta virt. eigenvalues --    1.67257   1.80969   1.83665   1.85198   1.89142
  Beta virt. eigenvalues --    1.91748   2.02180   2.10603   2.14059   2.23318
  Beta virt. eigenvalues --    2.25719   2.28262   2.35523   2.48660   2.57033
  Beta virt. eigenvalues --    2.60144   2.68511   2.72323   2.82784   2.87221
  Beta virt. eigenvalues --    2.91130   2.96930   2.99925   3.06812   3.09624
  Beta virt. eigenvalues --    3.11736   3.19641   3.29622   3.36448   3.38404
  Beta virt. eigenvalues --    3.52280   3.65649   3.73602   3.85630   4.01469
  Beta virt. eigenvalues --    4.18729   4.19240   4.30515   4.50057   4.67056
  Beta virt. eigenvalues --    4.77157   4.84149   4.84774   4.95320   5.01528
  Beta virt. eigenvalues --    5.13493   5.24424   5.29685   5.36559   5.46491
  Beta virt. eigenvalues --    5.49121   5.68122   5.87076   6.35631   6.40919
  Beta virt. eigenvalues --    6.44441   6.61491   6.94300   7.08618   7.18486
  Beta virt. eigenvalues --    7.46253  22.48471  32.12759  43.99955
          Condensed to atoms (all electrons):
               1          2          3          4          5          6
     1  C    5.114317   0.498657  -0.076147  -0.096048   0.385962   0.403222
     2  N    0.498657   5.775847   0.358671   0.270415  -0.029848  -0.025930
     3  H   -0.076147   0.358671   0.520902  -0.049722   0.002966   0.006683
     4  O   -0.096048   0.270415  -0.049722   8.327666   0.006770   0.004143
     5  H    0.385962  -0.029848   0.002966   0.006770   0.510239  -0.019436
     6  H    0.403222  -0.025930   0.006683   0.004143  -0.019436   0.470312
          Atomic-Atomic Spin Densities.
               1          2          3          4          5          6
     1  C    0.000000   0.000000   0.000000   0.000000   0.000000   0.000000
     2  N    0.000000   0.000000   0.000000   0.000000   0.000000   0.000000
     3  H    0.000000   0.000000   0.000000   0.000000   0.000000   0.000000
     4  O    0.000000   0.000000   0.000000   0.000000   0.000000   0.000000
     5  H    0.000000   0.000000   0.000000   0.000000   0.000000   0.000000
     6  H    0.000000   0.000000   0.000000   0.000000   0.000000   0.000000
 Mulliken charges and spin densities:
               1          2
     1  C   -0.229962   0.000000
     2  N    0.152187   0.000000
     3  H    0.236648   0.000000
     4  O   -0.463224   0.000000
     5  H    0.143346   0.000000
     6  H    0.161006   0.000000
 Sum of Mulliken charges =  -0.00000   0.00000
 Mulliken charges and spin densities with hydrogens summed into heavy atoms:
               1          2
     1  C    0.074389   0.000000
     2  N    0.388835   0.000000
     4  O   -0.463224   0.000000
 Electronic spatial extent (au):  <R**2>=            515.9296
 Charge=             -0.0000 electrons
 Dipole moment (field-independent basis, Debye):
    X=             -2.0273    Y=              0.6849    Z=             -2.9699  Tot=              3.6605
 Quadrupole moment (field-independent basis, Debye-Ang):
   XX=            -25.9820   YY=            -19.0676   ZZ=            -18.7863
   XY=              2.2488   XZ=             -9.4136   YZ=              0.0581
 Traceless Quadrupole moment (field-independent basis, Debye-Ang):
   XX=             -4.7033   YY=              2.2110   ZZ=              2.4924
   XY=              2.2488   XZ=             -9.4136   YZ=              0.0581
 Octapole moment (field-independent basis, Debye-Ang**2):
  XXX=           -134.6001  YYY=              6.7032  ZZZ=            -23.3101  XYY=            -36.5283
  XXY=              9.0259  XXZ=            -34.8178  XZZ=            -40.4665  YZZ=              3.1185
  YYZ=             -6.6647  XYZ=              1.3614
 Hexadecapole moment (field-independent basis, Debye-Ang**3):
 XXXX=           -625.6717 YYYY=            -21.9690 ZZZZ=            -67.4910 XXXY=             37.4491
 XXXZ=           -140.0082 YYYX=             17.1623 YYYZ=              6.4188 ZZZX=            -66.1611
 ZZZY=              6.5390 XXYY=            -93.0987 XXZZ=           -113.5730 YYZZ=            -14.9818
 XXYZ=              6.4811 YYXZ=            -19.2111 ZZXY=              8.2469
 N-N= 7.235184463964D+01 E-N=-5.429508277696D+02  KE= 1.690887070707D+02
                          Isotropic Fermi Contact Couplings
        Atom                 a.u.       MegaHertz       Gauss      10(-4) cm-1
     1  C(13)              0.00000       0.00000       0.00000       0.00000
     2  N(14)              0.00000       0.00000       0.00000       0.00000
     3  H(1)               0.00000       0.00000       0.00000       0.00000
     4  O(17)              0.00000      -0.00000      -0.00000      -0.00000
     5  H(1)               0.00000       0.00000       0.00000       0.00000
     6  H(1)               0.00000       0.00000       0.00000       0.00000
 --------------------------------------------------------
       Center         ----  Spin Dipole Couplings  ----
                      3XX-RR        3YY-RR        3ZZ-RR
 --------------------------------------------------------
     1   Atom        0.000000      0.000000      0.000000
     2   Atom        0.000000      0.000000      0.000000
     3   Atom        0.000000      0.000000      0.000000
     4   Atom        0.000000      0.000000      0.000000
     5   Atom        0.000000      0.000000      0.000000
     6   Atom        0.000000      0.000000      0.000000
 --------------------------------------------------------
                        XY            XZ            YZ
 --------------------------------------------------------
     1   Atom        0.000000      0.000000      0.000000
     2   Atom        0.000000      0.000000      0.000000
     3   Atom        0.000000      0.000000      0.000000
     4   Atom        0.000000      0.000000      0.000000
     5   Atom        0.000000      0.000000      0.000000
     6   Atom        0.000000      0.000000      0.000000
 --------------------------------------------------------


 ---------------------------------------------------------------------------------
              Anisotropic Spin Dipole Couplings in Principal Axis System
 ---------------------------------------------------------------------------------

       Atom             a.u.   MegaHertz   Gauss  10(-4) cm-1        Axes

              Baa     0.0000     0.000     0.000     0.000  1.0000  0.0000  0.0000
     1 C(13)  Bbb     0.0000     0.000     0.000     0.000 -0.0000  1.0000  0.0000
              Bcc     0.0000     0.000     0.000     0.000  0.0000  0.0000  1.0000
 
              Baa     0.0000     0.000     0.000     0.000  1.0000  0.0000  0.0000
     2 N(14)  Bbb     0.0000     0.000     0.000     0.000 -0.0000  1.0000  0.0000
              Bcc     0.0000     0.000     0.000     0.000  0.0000  0.0000  1.0000
 
              Baa     0.0000     0.000     0.000     0.000  1.0000  0.0000  0.0000
     3 H(1)   Bbb     0.0000     0.000     0.000     0.000 -0.0000  1.0000  0.0000
              Bcc     0.0000     0.000     0.000     0.000  0.0000  0.0000  1.0000
 
              Baa     0.0000    -0.000    -0.000    -0.000  1.0000  0.0000  0.0000
     4 O(17)  Bbb     0.0000    -0.000    -0.000    -0.000 -0.0000  1.0000  0.0000
              Bcc     0.0000    -0.000    -0.000    -0.000  0.0000  0.0000  1.0000
 
              Baa     0.0000     0.000     0.000     0.000  1.0000  0.0000  0.0000
     5 H(1)   Bbb     0.0000     0.000     0.000     0.000 -0.0000  1.0000  0.0000
              Bcc     0.0000     0.000     0.000     0.000  0.0000  0.0000  1.0000
 
              Baa     0.0000     0.000     0.000     0.000  1.0000  0.0000  0.0000
     6 H(1)   Bbb     0.0000     0.000     0.000     0.000 -0.0000  1.0000  0.0000
              Bcc     0.0000     0.000     0.000     0.000  0.0000  0.0000  1.0000
 

 ---------------------------------------------------------------------------------

 No NMR shielding tensors so no spin-rotation constants.
 Leave Link  601 at Tue Jan  3 09:05:11 2023, MaxMem=   536870912 cpu:               0.4 elap:               0.2
 (Enter /opt/software/gaussian/g16.c01/l801.exe)
 DoSCS=F DFT=T ScalE2(SS,OS)=  1.000000  1.000000
 Range of M.O.s used for correlation:     1   111
 NBasis=   111 NAE=    12 NBE=    12 NFC=     0 NFV=     0
 NROrb=    111 NOA=    12 NOB=    12 NVA=    99 NVB=    99
 Leave Link  801 at Tue Jan  3 09:05:11 2023, MaxMem=   536870912 cpu:               0.1 elap:               0.0
 (Enter /opt/software/gaussian/g16.c01/l914.exe)
 UHF ground state
 Doing stability rather than CIS.
 Keep R1 and R2 ints in memory in canonical form, NReq=82212656.
 FoFCou: FMM=F IPFlag=           0 FMFlag=           0 FMFlg1=           0
         NFxFlg=           0 DoJE=F BraDBF=F KetDBF=F FulRan=T
         wScrn=  0.000000 ICntrl=       600 IOpCl=  0 I1Cent=           0 NGrid=           0
         NMat0=    1 NMatS0=   6216 NMatT0=    0 NMatD0=    1 NMtDS0=    0 NMtDT0=    0
 Symmetry not used in FoFCou.
 Two-electron integral symmetry not used.
 MDV=   536870912 DFT=T DoStab=T Mixed=T DoRPA=F DoScal=F NonHer=F
 Making orbital integer symmetry assigments:
    12 initial guesses have been made.
 Convergence on wavefunction:    0.001000000000000
 Davidson Disk Diagonalization:  ConvIn= 1.00D-03 SkipCon=T Conv= 1.00D-03.
 Max sub-space:  2000 roots to seek:    12 dimension of matrix:         2376
 Iteration     1 Dimension    12 NMult     0 NNew     12
 CISAX will form    12 AO SS matrices at one time.
 NMat=    12 NSing=    12 JSym2X= 0.
 New state      1 was old state      2
 Excitation Energies [eV] at current iteration:
 Root      1 :     1.634681254699763
 Root      2 :     4.088101211999287
 Root      3 :     4.790604258144555
 Root      4 :     6.474915393143114
 Root      5 :     6.510658541561821
 Root      6 :     7.080258100753514
 Root      7 :     7.489336094550611
 Root      8 :     7.962851538664035
 Root      9 :     8.423610013800648
 Root     10 :     9.210286930251725
 Root     11 :     9.378545078363905
 Root     12 :    14.186686660155580
 Iteration     2 Dimension    24 NMult    12 NNew     12
 CISAX will form    12 AO SS matrices at one time.
 NMat=    12 NSing=    12 JSym2X= 0.
 Root      1 not converged, maximum delta is    0.100020823762869
 Excitation Energies [eV] at current iteration:
 Root      1 :     1.117987516541791   Change is   -0.516693738157972
 Root      2 :     3.867394872305671   Change is   -0.220706339693616
 Root      3 :     4.709794424405162   Change is   -0.080809833739392
 Root      4 :     6.341776622452495   Change is   -0.133138770690619
 Root      5 :     6.431516341475464   Change is   -0.079142200086357
 Root      6 :     6.800187972448160   Change is   -0.280070128305354
 Root      7 :     6.861980099746496   Change is   -0.627355994804114
 Root      8 :     7.677642737933377   Change is   -0.285208800730658
 Root      9 :     7.864626471349749   Change is   -6.322060188805831
 Root     10 :     8.258148366494797   Change is   -0.165461647305850
 Root     11 :     9.186709750390900   Change is   -0.191835327973005
 Root     12 :     9.751805740663197   Change is    0.541518810411473
 Iteration     3 Dimension    27 NMult    24 NNew      3
 CISAX will form     3 AO SS matrices at one time.
 NMat=     3 NSing=     3 JSym2X= 0.
 Root      1 not converged, maximum delta is    0.016034874234759
 Excitation Energies [eV] at current iteration:
 Root      1 :     1.100242921357477   Change is   -0.017744595184314
 Root      2 :     3.862631029885724   Change is   -0.004763842419946
 Root      3 :     4.706248777772148   Change is   -0.003545646633014
 Iteration     4 Dimension    30 NMult    27 NNew      3
 CISAX will form     3 AO SS matrices at one time.
 NMat=     3 NSing=     3 JSym2X= 0.
 Root      1 not converged, maximum delta is    0.007129931253020
 Excitation Energies [eV] at current iteration:
 Root      1 :     1.098666949707614   Change is   -0.001575971649863
 Root      2 :     3.862453148965511   Change is   -0.000177880920213
 Root      3 :     4.706025258504570   Change is   -0.000223519267579
 Iteration     5 Dimension    33 NMult    30 NNew      3
 CISAX will form     3 AO SS matrices at one time.
 NMat=     3 NSing=     3 JSym2X= 0.
 Root      1 not converged, maximum delta is    0.001135174580260
 Excitation Energies [eV] at current iteration:
 Root      1 :     1.098578095503228   Change is   -0.000088854204386
 Root      2 :     3.862436256598848   Change is   -0.000016892366664
 Root      3 :     4.706007538303573   Change is   -0.000017720200997
 Iteration     6 Dimension    36 NMult    33 NNew      3
 CISAX will form     3 AO SS matrices at one time.
 NMat=     3 NSing=     3 JSym2X= 0.
 Root      1 has converged.
 Excitation Energies [eV] at current iteration:
 Root      1 :     1.098574087639980   Change is   -0.000004007863248
 Root      2 :     3.862435178016650   Change is   -0.000001078582198
 Root      3 :     4.706006285890670   Change is   -0.000001252412903
 Convergence achieved on expansion vectors.
 ***********************************************************************
 Stability analysis using <AA,BB:AA,BB> singles matrix:
 ***********************************************************************
 1PDM for each excited state written to RWF  633
 Ground to excited state transition densities written to RWF  633

 Eigenvectors of the stability matrix:
 
 Excited state symmetry could not be determined.
 Eigenvector   1:  3.000-?Sym  Eigenvalue= 0.0403719  <S**2>=2.000
     12A -> 13A        0.69120
     12A -> 20A       -0.10683
     12B -> 13B       -0.69120
     12B -> 20B        0.10683
 The wavefunction is stable under the perturbations considered.
 Leave Link  914 at Tue Jan  3 09:06:14 2023, MaxMem=   536870912 cpu:             127.3 elap:              63.7
 (Enter /opt/software/gaussian/g16.c01/l508.exe)
 The wavefunction is already stable.
 Leave Link  508 at Tue Jan  3 09:06:14 2023, MaxMem=   536870912 cpu:               0.0 elap:               0.0
 (Enter /opt/software/gaussian/g16.c01/l601.exe)
 Copying SCF densities to generalized density rwf, IOpCl= 1 IROHF=0.

 **********************************************************************

            Population analysis using the SCF Density.

 **********************************************************************

 Alpha  occ. eigenvalues --  -19.22995 -14.58781 -10.33263  -1.22313  -0.96658
 Alpha  occ. eigenvalues --   -0.76186  -0.64466  -0.57706  -0.55054  -0.51026
 Alpha  occ. eigenvalues --   -0.34767  -0.31775
 Alpha virt. eigenvalues --    0.03415   0.09736   0.15113   0.18161   0.22436
 Alpha virt. eigenvalues --    0.24747   0.29581   0.29826   0.38423   0.42780
 Alpha virt. eigenvalues --    0.45760   0.49279   0.50327   0.53796   0.55250
 Alpha virt. eigenvalues --    0.57926   0.59769   0.61443   0.65094   0.69354
 Alpha virt. eigenvalues --    0.76684   0.83100   0.84676   1.00110   1.06440
 Alpha virt. eigenvalues --    1.11184   1.12175   1.30059   1.39341   1.43653
 Alpha virt. eigenvalues --    1.50905   1.51445   1.60673   1.62767   1.64482
 Alpha virt. eigenvalues --    1.67257   1.80969   1.83665   1.85198   1.89142
 Alpha virt. eigenvalues --    1.91748   2.02180   2.10603   2.14059   2.23318
 Alpha virt. eigenvalues --    2.25719   2.28262   2.35523   2.48660   2.57033
 Alpha virt. eigenvalues --    2.60144   2.68511   2.72323   2.82784   2.87221
 Alpha virt. eigenvalues --    2.91130   2.96930   2.99925   3.06812   3.09624
 Alpha virt. eigenvalues --    3.11736   3.19641   3.29622   3.36448   3.38404
 Alpha virt. eigenvalues --    3.52280   3.65649   3.73602   3.85630   4.01469
 Alpha virt. eigenvalues --    4.18729   4.19240   4.30515   4.50057   4.67056
 Alpha virt. eigenvalues --    4.77157   4.84149   4.84774   4.95320   5.01528
 Alpha virt. eigenvalues --    5.13493   5.24424   5.29685   5.36559   5.46491
 Alpha virt. eigenvalues --    5.49121   5.68122   5.87076   6.35631   6.40919
 Alpha virt. eigenvalues --    6.44441   6.61491   6.94300   7.08618   7.18486
 Alpha virt. eigenvalues --    7.46253  22.48471  32.12759  43.99955
  Beta  occ. eigenvalues --  -19.22995 -14.58781 -10.33263  -1.22313  -0.96658
  Beta  occ. eigenvalues --   -0.76186  -0.64466  -0.57706  -0.55054  -0.51026
  Beta  occ. eigenvalues --   -0.34767  -0.31775
  Beta virt. eigenvalues --    0.03415   0.09736   0.15113   0.18161   0.22436
  Beta virt. eigenvalues --    0.24747   0.29581   0.29826   0.38423   0.42780
  Beta virt. eigenvalues --    0.45760   0.49279   0.50327   0.53796   0.55250
  Beta virt. eigenvalues --    0.57926   0.59769   0.61443   0.65094   0.69354
  Beta virt. eigenvalues --    0.76684   0.83100   0.84676   1.00110   1.06440
  Beta virt. eigenvalues --    1.11184   1.12175   1.30059   1.39341   1.43653
  Beta virt. eigenvalues --    1.50905   1.51445   1.60673   1.62767   1.64482
  Beta virt. eigenvalues --    1.67257   1.80969   1.83665   1.85198   1.89142
  Beta virt. eigenvalues --    1.91748   2.02180   2.10603   2.14059   2.23318
  Beta virt. eigenvalues --    2.25719   2.28262   2.35523   2.48660   2.57033
  Beta virt. eigenvalues --    2.60144   2.68511   2.72323   2.82784   2.87221
  Beta virt. eigenvalues --    2.91130   2.96930   2.99925   3.06812   3.09624
  Beta virt. eigenvalues --    3.11736   3.19641   3.29622   3.36448   3.38404
  Beta virt. eigenvalues --    3.52280   3.65649   3.73602   3.85630   4.01469
  Beta virt. eigenvalues --    4.18729   4.19240   4.30515   4.50057   4.67056
  Beta virt. eigenvalues --    4.77157   4.84149   4.84774   4.95320   5.01528
  Beta virt. eigenvalues --    5.13493   5.24424   5.29685   5.36559   5.46491
  Beta virt. eigenvalues --    5.49121   5.68122   5.87076   6.35631   6.40919
  Beta virt. eigenvalues --    6.44441   6.61491   6.94300   7.08618   7.18486
  Beta virt. eigenvalues --    7.46253  22.48471  32.12759  43.99955
          Condensed to atoms (all electrons):
               1          2          3          4          5          6
     1  C    5.114317   0.498657  -0.076147  -0.096048   0.385962   0.403222
     2  N    0.498657   5.775847   0.358671   0.270415  -0.029848  -0.025930
     3  H   -0.076147   0.358671   0.520902  -0.049722   0.002966   0.006683
     4  O   -0.096048   0.270415  -0.049722   8.327666   0.006770   0.004143
     5  H    0.385962  -0.029848   0.002966   0.006770   0.510239  -0.019436
     6  H    0.403222  -0.025930   0.006683   0.004143  -0.019436   0.470312
          Atomic-Atomic Spin Densities.
               1          2          3          4          5          6
     1  C    0.000000   0.000000   0.000000   0.000000   0.000000   0.000000
     2  N    0.000000   0.000000   0.000000   0.000000   0.000000   0.000000
     3  H    0.000000   0.000000   0.000000   0.000000   0.000000   0.000000
     4  O    0.000000   0.000000   0.000000   0.000000   0.000000   0.000000
     5  H    0.000000   0.000000   0.000000   0.000000   0.000000   0.000000
     6  H    0.000000   0.000000   0.000000   0.000000   0.000000   0.000000
 Mulliken charges and spin densities:
               1          2
     1  C   -0.229962   0.000000
     2  N    0.152187   0.000000
     3  H    0.236648   0.000000
     4  O   -0.463224   0.000000
     5  H    0.143346   0.000000
     6  H    0.161006   0.000000
 Sum of Mulliken charges =  -0.00000   0.00000
 Mulliken charges and spin densities with hydrogens summed into heavy atoms:
               1          2
     1  C    0.074389   0.000000
     2  N    0.388835   0.000000
     4  O   -0.463224   0.000000
 Electronic spatial extent (au):  <R**2>=            515.9296
 Charge=             -0.0000 electrons
 Dipole moment (field-independent basis, Debye):
    X=             -2.0273    Y=              0.6849    Z=             -2.9699  Tot=              3.6605
 Quadrupole moment (field-independent basis, Debye-Ang):
   XX=            -25.9820   YY=            -19.0676   ZZ=            -18.7863
   XY=              2.2488   XZ=             -9.4136   YZ=              0.0581
 Traceless Quadrupole moment (field-independent basis, Debye-Ang):
   XX=             -4.7033   YY=              2.2110   ZZ=              2.4924
   XY=              2.2488   XZ=             -9.4136   YZ=              0.0581
 Octapole moment (field-independent basis, Debye-Ang**2):
  XXX=           -134.6001  YYY=              6.7032  ZZZ=            -23.3101  XYY=            -36.5283
  XXY=              9.0259  XXZ=            -34.8178  XZZ=            -40.4665  YZZ=              3.1185
  YYZ=             -6.6647  XYZ=              1.3614
 Hexadecapole moment (field-independent basis, Debye-Ang**3):
 XXXX=           -625.6717 YYYY=            -21.9690 ZZZZ=            -67.4910 XXXY=             37.4491
 XXXZ=           -140.0082 YYYX=             17.1623 YYYZ=              6.4188 ZZZX=            -66.1611
 ZZZY=              6.5390 XXYY=            -93.0987 XXZZ=           -113.5730 YYZZ=            -14.9818
 XXYZ=              6.4811 YYXZ=            -19.2111 ZZXY=              8.2469
 N-N= 7.235184463964D+01 E-N=-5.429508277696D+02  KE= 1.690887070707D+02
                          Isotropic Fermi Contact Couplings
        Atom                 a.u.       MegaHertz       Gauss      10(-4) cm-1
     1  C(13)              0.00000       0.00000       0.00000       0.00000
     2  N(14)              0.00000       0.00000       0.00000       0.00000
     3  H(1)               0.00000       0.00000       0.00000       0.00000
     4  O(17)              0.00000      -0.00000      -0.00000      -0.00000
     5  H(1)               0.00000       0.00000       0.00000       0.00000
     6  H(1)               0.00000       0.00000       0.00000       0.00000
 --------------------------------------------------------
       Center         ----  Spin Dipole Couplings  ----
                      3XX-RR        3YY-RR        3ZZ-RR
 --------------------------------------------------------
     1   Atom        0.000000      0.000000      0.000000
     2   Atom        0.000000      0.000000      0.000000
     3   Atom        0.000000      0.000000      0.000000
     4   Atom        0.000000      0.000000      0.000000
     5   Atom        0.000000      0.000000      0.000000
     6   Atom        0.000000      0.000000      0.000000
 --------------------------------------------------------
                        XY            XZ            YZ
 --------------------------------------------------------
     1   Atom        0.000000      0.000000      0.000000
     2   Atom        0.000000      0.000000      0.000000
     3   Atom        0.000000      0.000000      0.000000
     4   Atom        0.000000      0.000000      0.000000
     5   Atom        0.000000      0.000000      0.000000
     6   Atom        0.000000      0.000000      0.000000
 --------------------------------------------------------


 ---------------------------------------------------------------------------------
              Anisotropic Spin Dipole Couplings in Principal Axis System
 ---------------------------------------------------------------------------------

       Atom             a.u.   MegaHertz   Gauss  10(-4) cm-1        Axes

              Baa     0.0000     0.000     0.000     0.000  1.0000  0.0000  0.0000
     1 C(13)  Bbb     0.0000     0.000     0.000     0.000 -0.0000  1.0000  0.0000
              Bcc     0.0000     0.000     0.000     0.000  0.0000  0.0000  1.0000
 
              Baa     0.0000     0.000     0.000     0.000  1.0000  0.0000  0.0000
     2 N(14)  Bbb     0.0000     0.000     0.000     0.000 -0.0000  1.0000  0.0000
              Bcc     0.0000     0.000     0.000     0.000  0.0000  0.0000  1.0000
 
              Baa     0.0000     0.000     0.000     0.000  1.0000  0.0000  0.0000
     3 H(1)   Bbb     0.0000     0.000     0.000     0.000 -0.0000  1.0000  0.0000
              Bcc     0.0000     0.000     0.000     0.000  0.0000  0.0000  1.0000
 
              Baa     0.0000    -0.000    -0.000    -0.000  1.0000  0.0000  0.0000
     4 O(17)  Bbb     0.0000    -0.000    -0.000    -0.000 -0.0000  1.0000  0.0000
              Bcc     0.0000    -0.000    -0.000    -0.000  0.0000  0.0000  1.0000
 
              Baa     0.0000     0.000     0.000     0.000  1.0000  0.0000  0.0000
     5 H(1)   Bbb     0.0000     0.000     0.000     0.000 -0.0000  1.0000  0.0000
              Bcc     0.0000     0.000     0.000     0.000  0.0000  0.0000  1.0000
 
              Baa     0.0000     0.000     0.000     0.000  1.0000  0.0000  0.0000
     6 H(1)   Bbb     0.0000     0.000     0.000     0.000 -0.0000  1.0000  0.0000
              Bcc     0.0000     0.000     0.000     0.000  0.0000  0.0000  1.0000
 

 ---------------------------------------------------------------------------------

 No NMR shielding tensors so no spin-rotation constants.
 Leave Link  601 at Tue Jan  3 09:06:15 2023, MaxMem=   536870912 cpu:               0.3 elap:               0.2
 (Enter /opt/software/gaussian/g16.c01/l9999.exe)

 Test job not archived.
 1\1\GINC-GRA738\Stability\UwB97XD\Gen\C1H3N1O1\BHAVUK\03-Jan-2023\0\\#
 p uwb97xd/gen stable=opt scf=(maxcycle=900,verytightlineq,xqc) integra
 l=grid=ultrafine symmetry=None density=current iop(99/18=-1) output=wf
 n\\0002_q000_m01_k00_opt_uwb97xd_def2svpd/0002_q000_m01_k00_force_uwb9
 7xd_def2tzvp stable-force\\0,1\C,0,0.9341359983,-0.0506101672,0.053391
 6633\N,0,2.2303561638,-0.0607282973,0.0971529523\H,0,2.7104299206,0.14
 45551233,-0.7929401941\O,0,2.9768985022,-0.2863976361,1.0755945973\H,0
 ,0.4602474304,0.169181767,-0.8998201368\H,0,0.383341983,-0.2613407898,
 0.9669611147\\Version=ES64L-G16RevC.01\HF=-169.8112843\S2=0.\S2-1=0.\S
 2A=0.\RMSD=3.786e-09\Dipole=-0.7975917,0.2694633,-1.1684585\Quadrupole
 =-3.4968224,1.643806,1.8530163,1.6719119,-6.9987484,0.0432131\PG=Unkno
 wn\\@

 Writing a WFN file to "0002_q000_m01_k00_force_uwb97xd_def2tzvp.wfn"


 SEE YOU NOW,
 YOUR BAIT OF FALSEHOOD TAKES THIS CARP OF TRUTH.
 AND THUS DO WE OF WISDOM AND OF REACH...
 BY INDIRECTIONS FIND DIRECTIONS OUT.    -- HAMLET, II, 1
 Job cpu time:       0 days  0 hours  2 minutes 33.9 seconds.
 Elapsed time:       0 days  0 hours  1 minutes 17.2 seconds.
 File lengths (MBytes):  RWF=     80 Int=      0 D2E=      0 Chk=      3 Scr=      1
 Normal termination of Gaussian 16 at Tue Jan  3 09:06:15 2023.
 Initial command:
 /opt/software/gaussian/g16.c01/l1.exe "/localscratch/bhavuk.2151371.0/Gau-19233.inp" -scrdir="/localscratch/bhavuk.2151371.0/"
 Entering Link 1 = /opt/software/gaussian/g16.c01/l1.exe PID=     22316.
  
 Copyright (c) 1988-2019, Gaussian, Inc.  All Rights Reserved.
  
 This is part of the Gaussian(R) 16 program.  It is based on
 the Gaussian(R) 09 system (copyright 2009, Gaussian, Inc.),
 the Gaussian(R) 03 system (copyright 2003, Gaussian, Inc.),
 the Gaussian(R) 98 system (copyright 1998, Gaussian, Inc.),
 the Gaussian(R) 94 system (copyright 1995, Gaussian, Inc.),
 the Gaussian 92(TM) system (copyright 1992, Gaussian, Inc.),
 the Gaussian 90(TM) system (copyright 1990, Gaussian, Inc.),
 the Gaussian 88(TM) system (copyright 1988, Gaussian, Inc.),
 the Gaussian 86(TM) system (copyright 1986, Carnegie Mellon
 University), and the Gaussian 82(TM) system (copyright 1983,
 Carnegie Mellon University). Gaussian is a federally registered
 trademark of Gaussian, Inc.
  
 This software contains proprietary and confidential information,
 including trade secrets, belonging to Gaussian, Inc.
  
 This software is provided under written license and may be
 used, copied, transmitted, or stored only in accord with that
 written license.
  
 The following legend is applicable only to US Government
 contracts under FAR:
  
                    RESTRICTED RIGHTS LEGEND
  
 Use, reproduction and disclosure by the US Government is
 subject to restrictions as set forth in subparagraphs (a)
 and (c) of the Commercial Computer Software - Restricted
 Rights clause in FAR 52.227-19.
  
 Gaussian, Inc.
 340 Quinnipiac St., Bldg. 40, Wallingford CT 06492
  
  
 ---------------------------------------------------------------
 Warning -- This program may not be used in any manner that
 competes with the business of Gaussian, Inc. or will provide
 assistance to any competitor of Gaussian, Inc.  The licensee
 of this program is prohibited from giving any competitor of
 Gaussian, Inc. access to this program.  By using this program,
 the user acknowledges that Gaussian, Inc. is engaged in the
 business of creating and licensing software in the field of
 computational chemistry and represents and warrants to the
 licensee that it is not a competitor of Gaussian, Inc. and that
 it will not use this program in any manner prohibited above.
 ---------------------------------------------------------------
  

 Cite this work as:
 Gaussian 16, Revision C.01,
 M. J. Frisch, G. W. Trucks, H. B. Schlegel, G. E. Scuseria, 
 M. A. Robb, J. R. Cheeseman, G. Scalmani, V. Barone, 
 G. A. Petersson, H. Nakatsuji, X. Li, M. Caricato, A. V. Marenich, 
 J. Bloino, B. G. Janesko, R. Gomperts, B. Mennucci, H. P. Hratchian, 
 J. V. Ortiz, A. F. Izmaylov, J. L. Sonnenberg, D. Williams-Young, 
 F. Ding, F. Lipparini, F. Egidi, J. Goings, B. Peng, A. Petrone, 
 T. Henderson, D. Ranasinghe, V. G. Zakrzewski, J. Gao, N. Rega, 
 G. Zheng, W. Liang, M. Hada, M. Ehara, K. Toyota, R. Fukuda, 
 J. Hasegawa, M. Ishida, T. Nakajima, Y. Honda, O. Kitao, H. Nakai, 
 T. Vreven, K. Throssell, J. A. Montgomery, Jr., J. E. Peralta, 
 F. Ogliaro, M. J. Bearpark, J. J. Heyd, E. N. Brothers, K. N. Kudin, 
 V. N. Staroverov, T. A. Keith, R. Kobayashi, J. Normand, 
 K. Raghavachari, A. P. Rendell, J. C. Burant, S. S. Iyengar, 
 J. Tomasi, M. Cossi, J. M. Millam, M. Klene, C. Adamo, R. Cammi, 
 J. W. Ochterski, R. L. Martin, K. Morokuma, O. Farkas, 
 J. B. Foresman, and D. J. Fox, Gaussian, Inc., Wallingford CT, 2019.
 
 ******************************************
 Gaussian 16:  ES64L-G16RevC.01  3-Jul-2019
                 3-Jan-2023 
 ******************************************
 %chk=0002_q000_m01_k00_force_uwb97xd_def2tzvp.chk
 %nprocshared=2
 Will use up to    2 processors via shared memory.
 %mem=4GB
 ----------------------------------------------------------------------
 #p uwb97xd/chkbasis force guess=read geom=check scf=(maxcycle=900,very
 tightlineq,xqc) integral=grid=ultrafine symmetry=None density=current 
 pop=(cm5,hlygat,mbs,npa) output=wfx
 ----------------------------------------------------------------------
 1/10=7,29=2,30=1,38=1/1,3;
 2/12=2,15=3,40=1/2;
 3/5=7,6=2,11=2,14=-4,25=1,30=1,67=1,71=1,74=-58,75=-5,116=2/1,2,3;
 4/5=1/1;
 5/5=2,7=900,8=3,13=1,17=3,38=6/2,8;
 6/7=2,8=2,9=2,10=2,15=8,20=15,22=-1,27=100,28=1,40=-1,79=1/1,2,7;
 7/29=1,30=1/1,2,3,16;
 1/10=7,30=1/3;
 99/6=200/99;
 Leave Link    1 at Tue Jan  3 09:06:15 2023, MaxMem=   536870912 cpu:               0.2 elap:               0.1
 (Enter /opt/software/gaussian/g16.c01/l101.exe)
 ----------------------------------------------------------------------
 0002_q000_m01_k00_opt_uwb97xd_def2svpd/0002_q000_m01_k00_force_uwb97xd
 _def2tzvp stable-force
 ----------------------------------------------------------------------
 Structure from the checkpoint file:  "0002_q000_m01_k00_force_uwb97xd_def2tzvp.chk"
 Charge =  0 Multiplicity = 1
 Z-Matrix found in chk file.
 C,0,0.9341359983,-0.0506101672,0.0533916633
 N,0,2.2303561638,-0.0607282973,0.0971529523
 H,0,2.7104299206,0.1445551233,-0.7929401941
 O,0,2.9768985022,-0.2863976361,1.0755945973
 H,0,0.4602474304,0.169181767,-0.8998201368
 H,0,0.383341983,-0.2613407898,0.9669611147
 Recover connectivity data from disk.
 ITRead=  0  0  0  0  0  0
 MicOpt= -1 -1 -1 -1 -1 -1
 NAtoms=      6 NQM=        6 NQMF=       0 NMMI=      0 NMMIF=      0
                NMic=       0 NMicF=      0.
                    Isotopes and Nuclear Properties:
 (Nuclear quadrupole moments (NQMom) in fm**2, nuclear magnetic moments (NMagM)
  in nuclear magnetons)

  Atom         1           2           3           4           5           6
 IAtWgt=          12          14           1          16           1           1
 AtmWgt=  12.0000000  14.0030740   1.0078250  15.9949146   1.0078250   1.0078250
 NucSpn=           0           2           1           0           1           1
 AtZEff=   3.6000000   4.5500000   1.0000000   5.6000000   1.0000000   1.0000000
 NQMom=    0.0000000   2.0440000   0.0000000   0.0000000   0.0000000   0.0000000
 NMagM=    0.0000000   0.4037610   2.7928460   0.0000000   2.7928460   2.7928460
 AtZNuc=   6.0000000   7.0000000   1.0000000   8.0000000   1.0000000   1.0000000
 Leave Link  101 at Tue Jan  3 09:06:15 2023, MaxMem=   536870912 cpu:               0.4 elap:               0.2
 (Enter /opt/software/gaussian/g16.c01/l103.exe)

 GradGradGradGradGradGradGradGradGradGradGradGradGradGradGradGradGradGrad
 Berny optimization.
 Initialization pass.
 Trust Radius=3.00D-01 FncErr=1.00D-07 GrdErr=1.00D-07 EigMax=2.50D+02 EigMin=1.00D-04
 Number of steps in this run=      2 maximum allowed number of steps=      2.
 GradGradGradGradGradGradGradGradGradGradGradGradGradGradGradGradGradGrad

 Leave Link  103 at Tue Jan  3 09:06:15 2023, MaxMem=   536870912 cpu:               0.1 elap:               0.0
 (Enter /opt/software/gaussian/g16.c01/l202.exe)
                          Input orientation:                          
 ---------------------------------------------------------------------
 Center     Atomic      Atomic             Coordinates (Angstroms)
 Number     Number       Type             X           Y           Z
 ---------------------------------------------------------------------
      1          6           0        0.934136   -0.050610    0.053392
      2          7           0        2.230356   -0.060728    0.097153
      3          1           0        2.710430    0.144555   -0.792940
      4          8           0        2.976899   -0.286398    1.075595
      5          1           0        0.460247    0.169182   -0.899820
      6          1           0        0.383342   -0.261341    0.966961
 ---------------------------------------------------------------------
                    Distance matrix (angstroms):
                    1          2          3          4          5
     1  C    0.000000
     2  N    1.296998   0.000000
     3  H    1.977268   1.031929   0.000000
     4  O    2.296383   1.251239   1.936013   0.000000
     5  H    1.086964   2.044529   2.252854   3.231617   0.000000
     6  H    1.087378   2.051408   2.945733   2.595952   1.917325
                    6
     6  H    0.000000
 Symmetry turned off by external request.
 Stoichiometry    CH3NO
 Rotational constants (GHZ):          75.8819039          11.9122881          10.2959784
 Leave Link  202 at Tue Jan  3 09:06:15 2023, MaxMem=   536870912 cpu:               0.0 elap:               0.0
 (Enter /opt/software/gaussian/g16.c01/l301.exe)
 Basis read from chk: "0002_q000_m01_k00_force_uwb97xd_def2tzvp.chk" (5D, 7F)
 No pseudopotential information found on chk file.
   111 basis functions,   177 primitive gaussians,   126 cartesian basis functions
    12 alpha electrons       12 beta electrons
       nuclear repulsion energy        72.3526514420 Hartrees.
 IExCor= 4639 DFT=T Ex+Corr=wB97XD ExCW=0 ScaHFX=  1.000000
 ScaDFX=  1.000000  1.000000  1.000000  1.000000 ScalE2=  1.000000  1.000000
 IRadAn=      5 IRanWt=     -1 IRanGd=            0 ICorTp=0 IEmpDi=121
 HFx  wShort=  0.000000 wLong=  0.200000 cFull=  0.222036 cShort=  0.000000 cLong=  0.777964
 DFx  wShort=  0.000000 wLong=  0.200000 cFull=  0.000000 cShort=  0.000000 cLong=  1.000000
 NAtoms=    6 NActive=    6 NUniq=    6 SFac= 1.00D+00 NAtFMM=   60 NAOKFM=F Big=F
 Integral buffers will be    131072 words long.
 Raffenetti 2 integral format.
 Two-electron integral symmetry is turned off.
 R6Disp:  Grimme-D2 Dispersion energy=       -0.0008068023 Hartrees.
 Nuclear repulsion after empirical dispersion term =       72.3518446396 Hartrees.
 No density basis found on file  20724.
 Leave Link  301 at Tue Jan  3 09:06:15 2023, MaxMem=   536870912 cpu:               0.1 elap:               0.1
 (Enter /opt/software/gaussian/g16.c01/l302.exe)
 NPDir=0 NMtPBC=     1 NCelOv=     1 NCel=       1 NClECP=     1 NCelD=      1
         NCelK=      1 NCelE2=     1 NClLst=     1 CellRange=     0.0.
 One-electron integrals computed using PRISM.
 NBasis=   111 RedAO= T EigKep=  7.22D-04  NBF=   111
 NBsUse=   111 1.00D-06 EigRej= -1.00D+00 NBFU=   111
 Precomputing XC quadrature grid using
 IXCGrd= 4 IRadAn=           5 IRanWt=          -1 IRanGd=           0 AccXCQ= 0.00D+00.
 Generated NRdTot=       0 NPtTot=           0 NUsed=           0 NTot=          32
 NSgBfM=   126   126   126   126   126 MxSgAt=     6 MxSgA2=     6.
 Leave Link  302 at Tue Jan  3 09:06:15 2023, MaxMem=   536870912 cpu:               0.4 elap:               0.2
 (Enter /opt/software/gaussian/g16.c01/l303.exe)
 DipDrv:  MaxL=1.
 Leave Link  303 at Tue Jan  3 09:06:16 2023, MaxMem=   536870912 cpu:               0.1 elap:               0.1
 (Enter /opt/software/gaussian/g16.c01/l401.exe)
 Initial guess from the checkpoint file:  "0002_q000_m01_k00_force_uwb97xd_def2tzvp.chk"
 B after Tr=     0.000000    0.000000    0.000000
         Rot=    1.000000    0.000000    0.000000    0.000000 Ang=   0.00 deg.
 Guess basis will be translated and rotated to current coordinates.
 JPrj=2 DoOrth=T DoCkMO=T.
 Initial guess <Sx>= 0.0000 <Sy>= 0.0000 <Sz>= 0.0000 <S**2>=-0.0000 S=-0.0000
 Leave Link  401 at Tue Jan  3 09:06:16 2023, MaxMem=   536870912 cpu:               0.2 elap:               0.1
 (Enter /opt/software/gaussian/g16.c01/l502.exe)
 Keep R1 and R2 ints in memory in canonical form, NReq=79990355.
 FoFCou: FMM=F IPFlag=           0 FMFlag=           0 FMFlg1=           0
         NFxFlg=           0 DoJE=F BraDBF=F KetDBF=F FulRan=T
         wScrn=  0.000000 ICntrl=       600 IOpCl=  0 I1Cent=           0 NGrid=           0
         NMat0=    1 NMatS0=   6216 NMatT0=    0 NMatD0=    1 NMtDS0=    0 NMtDT0=    0
 Symmetry not used in FoFCou.
 Two-electron integral symmetry not used.
 UHF open shell SCF:
 Using DIIS extrapolation, IDIIS=  1040.
 NGot=   536870912 LenX=   459547552 LenY=   459531235
 Requested convergence on RMS density matrix=1.00D-08 within 128 cycles.
 Requested convergence on MAX density matrix=1.00D-06.
 Requested convergence on             energy=1.00D-06.
 No special actions if energy rises.

 Cycle   1  Pass 1  IDiag  1:
 E= -169.811284338557    
 DIIS: error= 3.40D-09 at cycle   1 NSaved=   1.
 NSaved= 1 IEnMin= 1 EnMin= -169.811284338557     IErMin= 1 ErrMin= 3.40D-09
 ErrMax= 3.40D-09  0.00D+00 EMaxC= 1.00D-01 BMatC= 7.29D-15 BMatP= 7.29D-15
 IDIUse=1 WtCom= 1.00D+00 WtEn= 0.00D+00
 Coeff-Com:  0.100D+01
 Coeff:      0.100D+01
 Gap=     0.352 Goal=   None    Shift=    0.000
 Gap=     0.352 Goal=   None    Shift=    0.000
 RMSDP=1.18D-09 MaxDP=2.25D-08              OVMax= 5.35D-08

 SCF Done:  E(UwB97XD) =  -169.811284339     A.U. after    1 cycles
            NFock=  1  Conv=0.12D-08     -V/T= 2.0043
 <Sx>= 0.0000 <Sy>= 0.0000 <Sz>= 0.0000 <S**2>= 0.0000 S= 0.0000
 <L.S>=  0.00000000000    
 KE= 1.690887073326D+02 PE=-5.429508280316D+02 EE= 1.316989917208D+02
 Annihilation of the first spin contaminant:
 S**2 before annihilation     0.0000,   after    -0.0000
 Leave Link  502 at Tue Jan  3 09:06:18 2023, MaxMem=   536870912 cpu:               5.5 elap:               2.8
 (Enter /opt/software/gaussian/g16.c01/l508.exe)
 QCSCF skips out because SCF is already converged.
 Leave Link  508 at Tue Jan  3 09:06:19 2023, MaxMem=   536870912 cpu:               0.0 elap:               0.0
 (Enter /opt/software/gaussian/g16.c01/l601.exe)
 Copying SCF densities to generalized density rwf, IOpCl= 1 IROHF=0.

 **********************************************************************

            Population analysis using the SCF Density.

 **********************************************************************

 Alpha  occ. eigenvalues --  -19.22995 -14.58781 -10.33263  -1.22313  -0.96658
 Alpha  occ. eigenvalues --   -0.76186  -0.64466  -0.57706  -0.55054  -0.51026
 Alpha  occ. eigenvalues --   -0.34767  -0.31775
 Alpha virt. eigenvalues --    0.03415   0.09736   0.15113   0.18161   0.22436
 Alpha virt. eigenvalues --    0.24747   0.29581   0.29826   0.38423   0.42780
 Alpha virt. eigenvalues --    0.45760   0.49279   0.50327   0.53796   0.55250
 Alpha virt. eigenvalues --    0.57926   0.59769   0.61443   0.65094   0.69354
 Alpha virt. eigenvalues --    0.76684   0.83100   0.84676   1.00110   1.06440
 Alpha virt. eigenvalues --    1.11184   1.12175   1.30059   1.39341   1.43653
 Alpha virt. eigenvalues --    1.50905   1.51445   1.60673   1.62767   1.64482
 Alpha virt. eigenvalues --    1.67257   1.80969   1.83665   1.85198   1.89142
 Alpha virt. eigenvalues --    1.91748   2.02180   2.10603   2.14059   2.23318
 Alpha virt. eigenvalues --    2.25719   2.28262   2.35523   2.48660   2.57033
 Alpha virt. eigenvalues --    2.60144   2.68511   2.72323   2.82784   2.87221
 Alpha virt. eigenvalues --    2.91130   2.96930   2.99925   3.06812   3.09624
 Alpha virt. eigenvalues --    3.11736   3.19641   3.29622   3.36448   3.38404
 Alpha virt. eigenvalues --    3.52280   3.65649   3.73602   3.85630   4.01469
 Alpha virt. eigenvalues --    4.18729   4.19240   4.30515   4.50057   4.67056
 Alpha virt. eigenvalues --    4.77157   4.84149   4.84774   4.95320   5.01528
 Alpha virt. eigenvalues --    5.13493   5.24424   5.29685   5.36559   5.46491
 Alpha virt. eigenvalues --    5.49121   5.68122   5.87076   6.35631   6.40919
 Alpha virt. eigenvalues --    6.44441   6.61491   6.94300   7.08618   7.18486
 Alpha virt. eigenvalues --    7.46253  22.48471  32.12759  43.99955
  Beta  occ. eigenvalues --  -19.22995 -14.58781 -10.33263  -1.22313  -0.96658
  Beta  occ. eigenvalues --   -0.76186  -0.64466  -0.57706  -0.55054  -0.51026
  Beta  occ. eigenvalues --   -0.34767  -0.31775
  Beta virt. eigenvalues --    0.03415   0.09736   0.15113   0.18161   0.22436
  Beta virt. eigenvalues --    0.24747   0.29581   0.29826   0.38423   0.42780
  Beta virt. eigenvalues --    0.45760   0.49279   0.50327   0.53796   0.55250
  Beta virt. eigenvalues --    0.57926   0.59769   0.61443   0.65094   0.69354
  Beta virt. eigenvalues --    0.76684   0.83100   0.84676   1.00110   1.06440
  Beta virt. eigenvalues --    1.11184   1.12175   1.30059   1.39341   1.43653
  Beta virt. eigenvalues --    1.50905   1.51445   1.60673   1.62767   1.64482
  Beta virt. eigenvalues --    1.67257   1.80969   1.83665   1.85198   1.89142
  Beta virt. eigenvalues --    1.91748   2.02180   2.10603   2.14059   2.23318
  Beta virt. eigenvalues --    2.25719   2.28262   2.35523   2.48660   2.57033
  Beta virt. eigenvalues --    2.60144   2.68511   2.72323   2.82784   2.87221
  Beta virt. eigenvalues --    2.91130   2.96930   2.99925   3.06812   3.09624
  Beta virt. eigenvalues --    3.11736   3.19641   3.29622   3.36448   3.38404
  Beta virt. eigenvalues --    3.52280   3.65649   3.73602   3.85630   4.01469
  Beta virt. eigenvalues --    4.18729   4.19240   4.30515   4.50057   4.67056
  Beta virt. eigenvalues --    4.77157   4.84149   4.84774   4.95320   5.01528
  Beta virt. eigenvalues --    5.13493   5.24424   5.29685   5.36559   5.46491
  Beta virt. eigenvalues --    5.49121   5.68122   5.87076   6.35631   6.40919
  Beta virt. eigenvalues --    6.44441   6.61491   6.94300   7.08618   7.18486
  Beta virt. eigenvalues --    7.46253  22.48471  32.12759  43.99955
          Condensed to atoms (all electrons):
               1          2          3          4          5          6
     1  C    5.114317   0.498657  -0.076147  -0.096048   0.385962   0.403221
     2  N    0.498657   5.775847   0.358671   0.270415  -0.029848  -0.025930
     3  H   -0.076147   0.358671   0.520902  -0.049722   0.002966   0.006683
     4  O   -0.096048   0.270415  -0.049722   8.327666   0.006770   0.004143
     5  H    0.385962  -0.029848   0.002966   0.006770   0.510239  -0.019436
     6  H    0.403221  -0.025930   0.006683   0.004143  -0.019436   0.470312
          Atomic-Atomic Spin Densities.
               1          2          3          4          5          6
     1  C    0.000000   0.000000   0.000000   0.000000   0.000000   0.000000
     2  N    0.000000   0.000000   0.000000   0.000000   0.000000   0.000000
     3  H    0.000000   0.000000   0.000000   0.000000   0.000000   0.000000
     4  O    0.000000   0.000000   0.000000   0.000000   0.000000   0.000000
     5  H    0.000000   0.000000   0.000000   0.000000   0.000000   0.000000
     6  H    0.000000   0.000000   0.000000   0.000000   0.000000   0.000000
 Mulliken charges and spin densities:
               1          2
     1  C   -0.229962   0.000000
     2  N    0.152187   0.000000
     3  H    0.236648   0.000000
     4  O   -0.463224   0.000000
     5  H    0.143346   0.000000
     6  H    0.161006   0.000000
 Sum of Mulliken charges =   0.00000   0.00000
 Mulliken charges and spin densities with hydrogens summed into heavy atoms:
               1          2
     1  C    0.074390   0.000000
     2  N    0.388835   0.000000
     4  O   -0.463224   0.000000
 Electronic spatial extent (au):  <R**2>=            515.9296
 Charge=              0.0000 electrons
 Dipole moment (field-independent basis, Debye):
    X=             -2.0273    Y=              0.6849    Z=             -2.9699  Tot=              3.6605
 Quadrupole moment (field-independent basis, Debye-Ang):
   XX=            -25.9820   YY=            -19.0676   ZZ=            -18.7863
   XY=              2.2488   XZ=             -9.4136   YZ=              0.0581
 Traceless Quadrupole moment (field-independent basis, Debye-Ang):
   XX=             -4.7033   YY=              2.2110   ZZ=              2.4924
   XY=              2.2488   XZ=             -9.4136   YZ=              0.0581
 Octapole moment (field-independent basis, Debye-Ang**2):
  XXX=           -134.6001  YYY=              6.7032  ZZZ=            -23.3101  XYY=            -36.5283
  XXY=              9.0259  XXZ=            -34.8178  XZZ=            -40.4665  YZZ=              3.1185
  YYZ=             -6.6647  XYZ=              1.3614
 Hexadecapole moment (field-independent basis, Debye-Ang**3):
 XXXX=           -625.6717 YYYY=            -21.9690 ZZZZ=            -67.4910 XXXY=             37.4491
 XXXZ=           -140.0082 YYYX=             17.1623 YYYZ=              6.4188 ZZZX=            -66.1611
 ZZZY=              6.5390 XXYY=            -93.0987 XXZZ=           -113.5730 YYZZ=            -14.9818
 XXYZ=              6.4811 YYXZ=            -19.2111 ZZXY=              8.2469
 N-N= 7.235184463964D+01 E-N=-5.429508283834D+02  KE= 1.690887073326D+02
 There are a total of      133398 grid points.
 ElSum from          density=       24.0000007254
 ElSum from atomic densities=       24.0000001944
 Hirshfeld populations at iteration   1 (CA, CB, DipXYZ):
               1          2          3          4          5
     1  C    3.020736   3.020736  -0.034277  -0.001913   0.008287
     2  N    3.452966   3.452966   0.070613   0.004016  -0.017419
     3  H    0.425935   0.425935   0.095712   0.038088  -0.165153
     4  O    4.159390   4.159390  -0.129665   0.035330  -0.153176
     5  H    0.472862   0.472862  -0.081747   0.033647  -0.145933
     6  H    0.468112   0.468112  -0.100325  -0.031721   0.137516
       Tot  12.000000  12.000000  -0.179689   0.077446  -0.335878

 Dip from Atomic Chgs             -0.617906   0.192020  -0.832579
         Total Dipole             -0.797594   0.269466  -1.168457

 Hirshfeld charges, spin densities, dipoles, and CM5 charges using IRadAn=      5:
              Q-H        S-H        Dx         Dy         Dz        Q-CM5   
     1  C   -0.041472   0.000000  -0.034277  -0.001913   0.008287  -0.057314
     2  N    0.094069   0.000000   0.070613   0.004016  -0.017419  -0.235350
     3  H    0.148131   0.000000   0.095712   0.038088  -0.165153   0.342257
     4  O   -0.318779   0.000000  -0.129665   0.035330  -0.153176  -0.295552
     5  H    0.054276   0.000000  -0.081747   0.033647  -0.145933   0.117217
     6  H    0.063775   0.000000  -0.100325  -0.031721   0.137516   0.128741
       Tot  -0.000001   0.000000  -0.179689   0.077446  -0.335878  -0.000001
 Hirshfeld charges and spin densities with hydrogens summed into heavy atoms:
              Q-H        S-H       Q-CM5   
     1  C    0.076579   0.000000   0.188643
     2  N    0.242200   0.000000   0.106908
     4  O   -0.318779   0.000000  -0.295552
 
 EQQ=  0.00000000000     EQD=  0.00000000000     EDD= 0.122928315377E-02
 EQQ+QD+DD= 0.122928315377E-02
 
          MBS Condensed to atoms (all electrons):
               1          2          3          4          5          6
     1  C    4.976913   0.472140  -0.049731  -0.036361   0.386962   0.384167
     2  N    0.472140   5.904108   0.322256   0.306615  -0.022307  -0.022787
     3  H   -0.049731   0.322256   0.470963  -0.030855  -0.003441   0.002921
     4  O   -0.036361   0.306615  -0.030855   8.234076   0.000927  -0.000047
     5  H    0.386962  -0.022307  -0.003441   0.000927   0.526558  -0.018852
     6  H    0.384167  -0.022787   0.002921  -0.000047  -0.018852   0.504169
          MBS Atomic-Atomic Spin Densities.
               1          2          3          4          5          6
     1  C    0.000000   0.000000   0.000000   0.000000   0.000000   0.000000
     2  N    0.000000   0.000000   0.000000   0.000000   0.000000   0.000000
     3  H    0.000000   0.000000   0.000000   0.000000   0.000000   0.000000
     4  O    0.000000   0.000000   0.000000   0.000000   0.000000   0.000000
     5  H    0.000000   0.000000   0.000000   0.000000   0.000000   0.000000
     6  H    0.000000   0.000000   0.000000   0.000000   0.000000   0.000000
 MBS Mulliken charges and spin densities:
               1          2
     1  C   -0.134089   0.000000
     2  N    0.039975   0.000000
[...]
    23    C    1  dz2    Ryd( 4d)     0.00039       3.20315
    24    C    1  dz2    Ryd( 3d)     0.00005       1.98798
    25    C    1  f(0)   Ryd( 4f)     0.00003       3.35684
    26    C    1  f(C1)  Ryd( 4f)     0.00007       3.98956
    27    C    1  f(S1)  Ryd( 4f)     0.00005       3.10632
    28    C    1  f(C2)  Ryd( 4f)     0.00006       3.49893
    29    C    1  f(S2)  Ryd( 4f)     0.00001       3.28105
    30    C    1  f(C3)  Ryd( 4f)     0.00003       3.45741
    31    C    1  f(S3)  Ryd( 4f)     0.00004       3.39209
 
    32    N    2  S      Cor( 1S)     0.99969     -14.41641
    33    N    2  S      Val( 2S)     0.60317      -0.62334
    34    N    2  S      Ryd( 4S)     0.00373       1.75982
    35    N    2  S      Ryd( 3S)     0.00002       1.52793
    36    N    2  S      Ryd( 5S)     0.00000      30.97670
    37    N    2  px     Val( 2p)     0.63229      -0.31453
    38    N    2  px     Ryd( 3p)     0.00321       1.08414
    39    N    2  px     Ryd( 4p)     0.00016       2.43813
    40    N    2  py     Val( 2p)     0.64704      -0.32003
    41    N    2  py     Ryd( 3p)     0.00060       0.76578
    42    N    2  py     Ryd( 4p)     0.00018       1.90121
    43    N    2  pz     Val( 2p)     0.60541      -0.29029
    44    N    2  pz     Ryd( 3p)     0.00245       1.23889
    45    N    2  pz     Ryd( 4p)     0.00013       2.20219
    46    N    2  dxy    Ryd( 3d)     0.00132       1.49338
    47    N    2  dxy    Ryd( 4d)     0.00001       4.35485
    48    N    2  dxz    Ryd( 3d)     0.00081       1.98772
    49    N    2  dxz    Ryd( 4d)     0.00020       4.91813
    50    N    2  dyz    Ryd( 3d)     0.00136       1.49009
    51    N    2  dyz    Ryd( 4d)     0.00005       4.28111
    52    N    2  dx2y2  Ryd( 3d)     0.00173       1.95232
    53    N    2  dx2y2  Ryd( 4d)     0.00002       4.70031
    54    N    2  dz2    Ryd( 3d)     0.00246       1.79555
    55    N    2  dz2    Ryd( 4d)     0.00004       4.58964
    56    N    2  f(0)   Ryd( 4f)     0.00005       4.66664
    57    N    2  f(C1)  Ryd( 4f)     0.00015       5.35410
    58    N    2  f(S1)  Ryd( 4f)     0.00006       4.42131
    59    N    2  f(C2)  Ryd( 4f)     0.00012       4.77607
    60    N    2  f(S2)  Ryd( 4f)     0.00006       4.58322
    61    N    2  f(C3)  Ryd( 4f)     0.00010       4.70958
    62    N    2  f(S3)  Ryd( 4f)     0.00016       4.51611
 
    63    H    3  S      Val( 1S)     0.32533       0.01102
    64    H    3  S      Ryd( 2S)     0.00113       0.67821
    65    H    3  S      Ryd( 3S)     0.00007       2.13629
    66    H    3  px     Ryd( 2p)     0.00009       2.63056
    67    H    3  py     Ryd( 2p)     0.00013       2.15354
    68    H    3  pz     Ryd( 2p)     0.00009       2.95232
 
    69    O    4  S      Cor( 1S)     0.99994     -19.03487
    70    O    4  S      Val( 2S)     0.88204      -0.93672
    71    O    4  S      Ryd( 3S)     0.00215       1.32588
    72    O    4  S      Ryd( 4S)     0.00003       5.50013
    73    O    4  S      Ryd( 5S)     0.00000      41.34504
    74    O    4  px     Val( 2p)     0.82922      -0.29832
    75    O    4  px     Ryd( 3p)     0.00180       0.87809
    76    O    4  px     Ryd( 4p)     0.00001       3.15797
    77    O    4  py     Val( 2p)     0.79590      -0.29595
    78    O    4  py     Ryd( 3p)     0.00166       0.73901
    79    O    4  py     Ryd( 4p)     0.00000       2.75993
    80    O    4  pz     Val( 2p)     0.72924      -0.26837
    81    O    4  pz     Ryd( 3p)     0.00151       0.85273
    82    O    4  pz     Ryd( 4p)     0.00002       3.24428
    83    O    4  dxy    Ryd( 3d)     0.00023       2.78532
    84    O    4  dxy    Ryd( 4d)     0.00000       5.75510
    85    O    4  dxz    Ryd( 3d)     0.00065       3.36294
    86    O    4  dxz    Ryd( 4d)     0.00001       6.28145
    87    O    4  dyz    Ryd( 3d)     0.00044       2.90294
    88    O    4  dyz    Ryd( 4d)     0.00001       5.93629
    89    O    4  dx2y2  Ryd( 3d)     0.00024       2.86442
    90    O    4  dx2y2  Ryd( 4d)     0.00001       5.81702
    91    O    4  dz2    Ryd( 3d)     0.00048       3.16610
    92    O    4  dz2    Ryd( 4d)     0.00001       6.27251
    93    O    4  f(0)   Ryd( 4f)     0.00002       5.70440
    94    O    4  f(C1)  Ryd( 4f)     0.00004       5.80220
    95    O    4  f(S1)  Ryd( 4f)     0.00001       5.52707
    96    O    4  f(C2)  Ryd( 4f)     0.00003       5.63678
    97    O    4  f(S2)  Ryd( 4f)     0.00002       5.61490
    98    O    4  f(C3)  Ryd( 4f)     0.00000       5.40013
    99    O    4  f(S3)  Ryd( 4f)     0.00000       5.38830
 
   100    H    5  S      Val( 1S)     0.40196      -0.01711
   101    H    5  S      Ryd( 2S)     0.00026       0.93298
   102    H    5  S      Ryd( 3S)     0.00006       1.55694
   103    H    5  px     Ryd( 2p)     0.00012       2.43094
   104    H    5  py     Ryd( 2p)     0.00012       2.03444
   105    H    5  pz     Ryd( 2p)     0.00026       2.72580
 
   106    H    6  S      Val( 1S)     0.39452       0.00228
   107    H    6  S      Ryd( 2S)     0.00057       0.90817
   108    H    6  S      Ryd( 3S)     0.00004       1.55709
   109    H    6  px     Ryd( 2p)     0.00011       2.48809
   110    H    6  py     Ryd( 2p)     0.00006       2.04150
   111    H    6  pz     Ryd( 2p)     0.00026       2.67535

 WARNING:  Population inversion found on atom  C    1
           Population inversion found on atom  N    2


 Summary of Natural Population Analysis:                  
                                                          
                                       Natural Population 
                Natural  -----------------------------------------------
    Atom  No    Charge         Core      Valence    Rydberg      Total
 -----------------------------------------------------------------------
      C    1   -0.12230      0.99971     2.11170    0.01089     3.12230
      N    2   -0.00680      0.99969     2.48792    0.01919     3.50680
      H    3    0.17317      0.00000     0.32533    0.00150     0.32683
      O    4   -0.24572      0.99994     3.23639    0.00939     4.24572
      H    5    0.09722      0.00000     0.40196    0.00082     0.40278
      H    6    0.10443      0.00000     0.39452    0.00105     0.39557
 =======================================================================
   * Total *   -0.00000      2.99933     8.95782    0.04285    12.00000

                                 Natural Population      
 --------------------------------------------------------
   Core                       2.99933 ( 99.9778% of   3)
   Valence                    8.95782 ( 99.5313% of   9)
   Natural Minimal Basis     11.95715 ( 99.6430% of  12)
   Natural Rydberg Basis      0.04285 (  0.3570% of  12)
 --------------------------------------------------------

    Atom  No          Natural Electron Configuration
 ----------------------------------------------------------------------------
      C    1      [core]2S( 0.53)2p( 1.58)3p( 0.01)
      N    2      [core]2S( 0.60)2p( 1.88)3p( 0.01)3d( 0.01)
      H    3            1S( 0.33)
      O    4      [core]2S( 0.88)2p( 2.35)
      H    5            1S( 0.40)
      H    6            1S( 0.39)


 NBO analysis skipped by request.
 Leave Link  607 at Tue Jan  3 09:06:21 2023, MaxMem=   536870912 cpu:               3.6 elap:               1.8
 (Enter /opt/software/gaussian/g16.c01/l701.exe)
 ... and contract with generalized density number  0.
 Compute integral first derivatives.
 R6Disp: Adding Grimme-D2 dispersion energy 1st derivatives to the gradient.
 Leave Link  701 at Tue Jan  3 09:06:22 2023, MaxMem=   536870912 cpu:               0.3 elap:               0.2
 (Enter /opt/software/gaussian/g16.c01/l702.exe)
 L702 exits ... SP integral derivatives will be done elsewhere.
 Leave Link  702 at Tue Jan  3 09:06:22 2023, MaxMem=   536870912 cpu:               0.1 elap:               0.0
 (Enter /opt/software/gaussian/g16.c01/l703.exe)
 Integral derivatives from FoFJK, PRISM(SPDF).
 Compute integral first derivatives, UseDBF=F ICtDFT=           0.
 Calling FoFJK, ICntrl=      2127 FMM=F ISym2X=0 I1Cent= 0 IOpClX= 1 NMat=1 NMatS=1 NMatT=0.
 FoFJK:  IHMeth= 1 ICntrl=    2127 DoSepK=T KAlg= 0 I1Cent=           0 FoldK=F
 IRaf=         1 NMat=       1 IRICut=       1 DoRegI=T DoRafI=F ISym2E= 0 IDoP0=0 IntGTp=1.
 FoFCou: FMM=F IPFlag=           0 FMFlag=      100000 FMFlg1=         800
         NFxFlg=           0 DoJE=F BraDBF=F KetDBF=F FulRan=T
         wScrn=  0.000000 ICntrl=      2527 IOpCl=  0 I1Cent=           0 NGrid=           0
         NMat0=    1 NMatS0=      1 NMatT0=    0 NMatD0=    1 NMtDS0=    0 NMtDT0=    0
 Symmetry not used in FoFCou.
 Leave Link  703 at Tue Jan  3 09:06:28 2023, MaxMem=   536870912 cpu:              11.7 elap:               5.9
 (Enter /opt/software/gaussian/g16.c01/l716.exe)
 Dipole        =-7.97591763D-01 2.69463356D-01-1.16845860D+00
 -------------------------------------------------------------------
 Center     Atomic                   Forces (Hartrees/Bohr)
 Number     Number              X              Y              Z
 -------------------------------------------------------------------
      1        6          -0.000301947    0.000125269   -0.000541482
      2        7          -0.001472748    0.000219252   -0.000951519
      3        1          -0.002181493   -0.000696843    0.003027882
      4        8          -0.001672000    0.000434215   -0.001883784
      5        1           0.002512157   -0.001258755    0.005455384
      6        1           0.003116031    0.001176863   -0.005106480
 -------------------------------------------------------------------
 Cartesian Forces:  Max     0.005455384 RMS     0.002348702
 Z-matrix is all fixed cartesians, so copy forces.
 Force constants in Cartesian coordinates: 
                1             2             3             4             5 
      1  0.101329D+01
      2 -0.181037D-02  0.203575D+00
      3  0.786374D-02 -0.124878D+00  0.716256D+00
      4 -0.679882D+00  0.300493D-02 -0.129771D-01  0.122912D+01
      5  0.376763D-02 -0.101951D+00  0.210923D-01 -0.513644D-01  0.222812D+00
      6 -0.162703D-01  0.210924D-01 -0.188542D+00  0.222639D+00 -0.201358D+00
      7 -0.102620D-02 -0.665546D-02  0.288574D-01 -0.181518D+00 -0.289962D-01
      8  0.121571D-03  0.160790D-01  0.116710D-03 -0.287431D-01 -0.726755D-01
      9 -0.525445D-03  0.118691D-03  0.155912D-01  0.124629D+00  0.655904D-01
     10  0.119887D-02  0.777540D-02 -0.337130D-01 -0.367761D+00  0.763242D-01
     11  0.200587D-03  0.190369D-01 -0.153988D-02  0.768689D-01 -0.806506D-01
     12 -0.868461D-03 -0.154186D-02  0.253675D-01 -0.333281D+00  0.114090D+00
     13 -0.158674D+00  0.217720D-01 -0.944370D-01  0.990489D-03  0.642211D-02
     14  0.210005D-01 -0.665152D-01  0.549206D-01  0.108065D-03  0.144495D-01
     15 -0.910994D-01  0.549244D-01 -0.292045D+00 -0.467503D-03  0.139020D-03
     16 -0.174911D+00 -0.240865D-01  0.104406D+00 -0.948593D-03 -0.615334D-02
     17 -0.232800D-01 -0.702247D-01  0.502880D-01  0.125613D-03  0.180161D-01
     18  0.100900D+00  0.502841D-01 -0.276628D+00 -0.542935D-03  0.445850D-03
                6             7             8             9            10 
      6  0.104942D+01
      7  0.125728D+00  0.157894D+00
      8  0.655912D-01  0.315330D-01  0.477677D-01
      9 -0.341942D+00 -0.136727D+00 -0.699667D-01  0.335000D+00
     10 -0.330918D+00  0.246502D-01 -0.291152D-02  0.126236D-01  0.341912D+00
     11  0.114089D+00  0.411862D-02  0.878005D-02  0.424634D-02 -0.811881D-01
     12 -0.549005D+00 -0.178579D-01  0.424651D-02 -0.865234D-02  0.352007D+00
     13 -0.278537D-01  0.000000D+00  0.000000D+00  0.000000D+00  0.000000D+00
     14  0.139979D-03  0.000000D+00 -0.908908D-02 -0.209632D-02  0.000000D+00
     15  0.138797D-01  0.000000D+00 -0.209566D-02 -0.483348D-03  0.000000D+00
     16  0.266748D-01  0.000000D+00  0.000000D+00  0.000000D+00  0.000000D+00
     17  0.444845D-03  0.000000D+00  0.913787D-02  0.210757D-02  0.000000D+00
     18  0.161850D-01  0.000000D+00  0.210791D-02  0.486171D-03  0.000000D+00
               11            12            13            14            15 
     11  0.528801D-01
     12 -0.116784D+00  0.532292D+00
     13  0.000000D+00  0.000000D+00  0.128269D+00
     14  0.864159D-02  0.199298D-02 -0.243128D-01  0.428129D-01
     15  0.199249D-02  0.459521D-03  0.105452D+00 -0.591266D-01  0.285599D+00
     16  0.000000D+00  0.000000D+00  0.294149D-01  0.320416D-02 -0.138848D-01
     17 -0.868798D-02 -0.200368D-02 -0.388133D-02  0.970030D-02  0.416630D-02
     18 -0.200413D-02 -0.462205D-03  0.168390D-01  0.416934D-02 -0.741015D-02
               16            17            18 
     16  0.146445D+00
     17  0.270357D-01  0.420584D-01
     18 -0.117196D+00 -0.550030D-01  0.267829D+00
 Leave Link  716 at Tue Jan  3 09:06:28 2023, MaxMem=   536870912 cpu:               0.1 elap:               0.0
 (Enter /opt/software/gaussian/g16.c01/l103.exe)

 GradGradGradGradGradGradGradGradGradGradGradGradGradGradGradGradGradGrad
 Berny optimization.
 Search for a local minimum.
 Step number   1 out of a maximum of    2
 All quantities printed in internal units (Hartrees-Bohrs-Radians)
 Second derivative matrix not updated -- first step.
 The second derivative matrix:
                          X1        Y1        Z1        X2        Y2
           X1           1.01329
           Y1          -0.00181   0.20358
           Z1           0.00786  -0.12488   0.71626
           X2          -0.67988   0.00300  -0.01298   1.22912
           Y2           0.00377  -0.10195   0.02109  -0.05136   0.22281
           Z2          -0.01627   0.02109  -0.18854   0.22264  -0.20136
           X3          -0.00103  -0.00666   0.02886  -0.18152  -0.02900
           Y3           0.00012   0.01608   0.00012  -0.02874  -0.07268
           Z3          -0.00053   0.00012   0.01559   0.12463   0.06559
           X4           0.00120   0.00778  -0.03371  -0.36776   0.07632
           Y4           0.00020   0.01904  -0.00154   0.07687  -0.08065
           Z4          -0.00087  -0.00154   0.02537  -0.33328   0.11409
           X5          -0.15867   0.02177  -0.09444   0.00099   0.00642
           Y5           0.02100  -0.06652   0.05492   0.00011   0.01445
           Z5          -0.09110   0.05492  -0.29205  -0.00047   0.00014
           X6          -0.17491  -0.02409   0.10441  -0.00095  -0.00615
           Y6          -0.02328  -0.07022   0.05029   0.00013   0.01802
           Z6           0.10090   0.05028  -0.27663  -0.00054   0.00045
                          Z2        X3        Y3        Z3        X4
           Z2           1.04942
           X3           0.12573   0.15789
           Y3           0.06559   0.03153   0.04777
           Z3          -0.34194  -0.13673  -0.06997   0.33500
           X4          -0.33092   0.02465  -0.00291   0.01262   0.34191
           Y4           0.11409   0.00412   0.00878   0.00425  -0.08119
           Z4          -0.54900  -0.01786   0.00425  -0.00865   0.35201
           X5          -0.02785  -0.00000  -0.00000  -0.00000   0.00000
           Y5           0.00014  -0.00000  -0.00909  -0.00210   0.00000
           Z5           0.01388  -0.00000  -0.00210  -0.00048   0.00000
           X6           0.02667   0.00000   0.00000   0.00000  -0.00000
           Y6           0.00044   0.00000   0.00914   0.00211  -0.00000
           Z6           0.01618   0.00000   0.00211   0.00049  -0.00000
                          Y4        Z4        X5        Y5        Z5
           Y4           0.05288
           Z4          -0.11678   0.53229
           X5           0.00000   0.00000   0.12827
           Y5           0.00864   0.00199  -0.02431   0.04281
           Z5           0.00199   0.00046   0.10545  -0.05913   0.28560
           X6          -0.00000  -0.00000   0.02941   0.00320  -0.01388
           Y6          -0.00869  -0.00200  -0.00388   0.00970   0.00417
           Z6          -0.00200  -0.00046   0.01684   0.00417  -0.00741
                          X6        Y6        Z6
           X6           0.14644
           Y6           0.02704   0.04206
           Z6          -0.11720  -0.05500   0.26783
 ITU=  0
     Eigenvalues ---    0.03447   0.04394   0.09385   0.09776   0.15149
     Eigenvalues ---    0.18516   0.28085   0.33564   0.68419   0.94438
     Eigenvalues ---    1.52455   2.16742
 Angle between quadratic step and forces=  21.18 degrees.
 Linear search not attempted -- first point.
 B after Tr=    -0.001369    0.000376   -0.001614
         Rot=    1.000000   -0.000001    0.000144    0.000034 Ang=  -0.02 deg.
 Variable       Old X    -DE/DX   Delta X   Delta X   Delta X     New X
                                 (Linear)    (Quad)   (Total)
    X1        1.76526  -0.00030   0.00000   0.00465   0.00325   1.76851
    Y1       -0.09564   0.00013   0.00000   0.00012   0.00037  -0.09526
    Z1        0.10090  -0.00054   0.00000  -0.00049  -0.00160   0.09930
    X2        4.21476  -0.00147   0.00000  -0.00319  -0.00462   4.21015
    Y2       -0.11476   0.00022   0.00000  -0.00000   0.00009  -0.11467
    Z2        0.18359  -0.00095   0.00000   0.00002  -0.00038   0.18321
    X3        5.12197  -0.00218   0.00000  -0.01192  -0.01284   5.10913
    Y3        0.27317  -0.00070   0.00000  -0.00121  -0.00118   0.27199
    Z3       -1.49844   0.00303   0.00000   0.00531   0.00516  -1.49328
    X4        5.62552  -0.00167   0.00000  -0.00549  -0.00748   5.61805
    Y4       -0.54121   0.00043   0.00000   0.00047   0.00046  -0.54075
    Z4        2.03258  -0.00188   0.00000  -0.00205  -0.00205   2.03053
    X5        0.86974   0.00251   0.00000   0.00976   0.00889   0.87864
    Y5        0.31971  -0.00126   0.00000  -0.00370  -0.00339   0.31632
    Z5       -1.70041   0.00546   0.00000   0.01598   0.01462  -1.68580
    X6        0.72441   0.00312   0.00000   0.01472   0.01280   0.73721
    Y6       -0.49386   0.00118   0.00000   0.00332   0.00364  -0.49022
    Z6        1.82729  -0.00511   0.00000  -0.01435  -0.01575   1.81154
         Item               Value     Threshold  Converged?
 Maximum Force            0.005455     0.000450     NO 
 RMS     Force            0.002349     0.000300     NO 
 Maximum Displacement     0.015751     0.001800     NO 
 RMS     Displacement     0.007518     0.001200     NO 
 Predicted change in Energy=-1.495420D-04
 GradGradGradGradGradGradGradGradGradGradGradGradGradGradGradGradGradGrad

 Leave Link  103 at Tue Jan  3 09:06:28 2023, MaxMem=   536870912 cpu:               0.0 elap:               0.0
 (Enter /opt/software/gaussian/g16.c01/l9999.exe)
 Unable to Open any file for archive entry.
 1\1\GINC-GRA738\Force\UwB97XD\Gen\C1H3N1O1\BHAVUK\03-Jan-2023\0\\#p uw
 b97xd/chkbasis force guess=read geom=check scf=(maxcycle=900,verytight
 lineq,xqc) integral=grid=ultrafine symmetry=None density=current pop=(
 cm5,hlygat,mbs,npa) output=wfx\\0002_q000_m01_k00_opt_uwb97xd_def2svpd
 /0002_q000_m01_k00_force_uwb97xd_def2tzvp stable-force\\0,1\C,0.934135
 9983,-0.0506101672,0.0533916633\N,2.2303561638,-0.0607282973,0.0971529
 523\H,2.7104299206,0.1445551233,-0.7929401941\O,2.9768985022,-0.286397
 6361,1.0755945973\H,0.4602474304,0.169181767,-0.8998201368\H,0.3833419
 83,-0.2613407898,0.9669611147\\Version=ES64L-G16RevC.01\HF=-169.811284
 3\S2=0.\S2-1=0.\S2A=0.\RMSD=1.178e-09\RMSF=2.349e-03\Dipole=-0.7975918
 ,0.2694634,-1.1684586\Quadrupole=-3.4968223,1.6438061,1.8530162,1.6719
 12,-6.9987486,0.0432131\PG=Unknown\\@
 The archive entry for this job was punched.

 Writing a WFNX file to "0002_q000_m01_k00_force_uwb97xd_def2tzvp.wfx"


 IN THE WOODS WE RETURN TO REASON AND FAITH.

                                 -- EMERSON
 Job cpu time:       0 days  0 hours  0 minutes 25.0 seconds.
 Elapsed time:       0 days  0 hours  0 minutes 12.2 seconds.
 File lengths (MBytes):  RWF=     10 Int=      0 D2E=      0 Chk=      3 Scr=      1
 Normal termination of Gaussian 16 at Tue Jan  3 09:06:28 2023.
