 Entering Gaussian System, Link 0=g16
 Input=0002_q000_m01_k00_force_uhf_def2svp.com
 Output=0002_q000_m01_k00_force_uhf_def2svp.log
 Initial command:
 /opt/software/gaussian/g16.c01/l1.exe "/localscratch/bhavuk.2151360.0/Gau-717.inp" -scrdir="/localscratch/bhavuk.2151360.0/"
 Entering Link 1 = /opt/software/gaussian/g16.c01/l1.exe PID=       719.
  
 Copyright (c) 1988-2019, Gaussian, Inc.  All Rights Reserved.
  
 This is part of the Gaussian(R) 16 program.  It is based on
 the Gaussian(R) 09 system (copyright 2009, Gaussian, Inc.),
 the Gaussian(R) 03 system (copyright 2003, Gaussian, Inc.),
 the Gaussian(R) 98 system (copyright 1998, Gaussian, Inc.),
 the Gaussian(R) 94 system (copyright 1995, Gaussian, Inc.),
 the Gaussian 92(TM) system (copyright 1992, Gaussian, Inc.),
 the Gaussian 90(TM) system (copyright 1990, Gaussian, Inc.),
 the Gaussian 88(TM) system (copyright 1988, Gaussian, Inc.),
 the Gaussian 86(TM) system (copyright 1986, Carnegie Mellon
 University), and the Gaussian 82(TM) system (copyright 1983,
 Carnegie Mellon University). Gaussian is a federally registered
 trademark of Gaussian, Inc.
  
 This software contains proprietary and confidential information,
 including trade secrets, belonging to Gaussian, Inc.
  
 This software is provided under written license and may be
 used, copied, transmitted, or stored only in accord with that
 written license.
  
 The following legend is applicable only to US Government
 contracts under FAR:
  
                    RESTRICTED RIGHTS LEGEND
  
 Use, reproduction and disclosure by the US Government is
 subject to restrictions as set forth in subparagraphs (a)
 and (c) of the Commercial Computer Software - Restricted
 Rights clause in FAR 52.227-19.
  
 Gaussian, Inc.
 340 Quinnipiac St., Bldg. 40, Wallingford CT 06492
  
  
 ---------------------------------------------------------------
 Warning -- This program may not be used in any manner that
 competes with the business of Gaussian, Inc. or will provide
 assistance to any competitor of Gaussian, Inc.  The licensee
 of this program is prohibited from giving any competitor of
 Gaussian, Inc. access to this program.  By using this program,
 the user acknowledges that Gaussian, Inc. is engaged in the
 business of creating and licensing software in the field of
 computational chemistry and represents and warrants to the
 licensee that it is not a competitor of Gaussian, Inc. and that
 it will not use this program in any manner prohibited above.
 ---------------------------------------------------------------
  

 Cite this work as:
 Gaussian 16, Revision C.01,
 M. J. Frisch, G. W. Trucks, H. B. Schlegel, G. E. Scuseria, 
 M. A. Robb, J. R. Cheeseman, G. Scalmani, V. Barone, 
 G. A. Petersson, H. Nakatsuji, X. Li, M. Caricato, A. V. Marenich, 
 J. Bloino, B. G. Janesko, R. Gomperts, B. Mennucci, H. P. Hratchian, 
 J. V. Ortiz, A. F. Izmaylov, J. L. Sonnenberg, D. Williams-Young, 
 F. Ding, F. Lipparini, F. Egidi, J. Goings, B. Peng, A. Petrone, 
 T. Henderson, D. Ranasinghe, V. G. Zakrzewski, J. Gao, N. Rega, 
 G. Zheng, W. Liang, M. Hada, M. Ehara, K. Toyota, R. Fukuda, 
 J. Hasegawa, M. Ishida, T. Nakajima, Y. Honda, O. Kitao, H. Nakai, 
 T. Vreven, K. Throssell, J. A. Montgomery, Jr., J. E. Peralta, 
 F. Ogliaro, M. J. Bearpark, J. J. Heyd, E. N. Brothers, K. N. Kudin, 
 V. N. Staroverov, T. A. Keith, R. Kobayashi, J. Normand, 
 K. Raghavachari, A. P. Rendell, J. C. Burant, S. S. Iyengar, 
 J. Tomasi, M. Cossi, J. M. Millam, M. Klene, C. Adamo, R. Cammi, 
 J. W. Ochterski, R. L. Martin, K. Morokuma, O. Farkas, 
 J. B. Foresman, and D. J. Fox, Gaussian, Inc., Wallingford CT, 2019.
 
 ******************************************
 Gaussian 16:  ES64L-G16RevC.01  3-Jul-2019
                 3-Jan-2023 
 ******************************************
 %chk=0002_q000_m01_k00_force_uhf_def2svp.chk
 %nprocshared=2
 Will use up to    2 processors via shared memory.
 %mem=4GB
 ----------------------------------------------------------------------
 #p uhf/gen stable=opt scf=(maxcycle=900,verytightlineq,xqc) integral=g
 rid=ultrafine symmetry=None density=current iop(99/18=-1) output=wfn
 ----------------------------------------------------------------------
 1/38=1,172=1/1;
 2/12=2,15=3,17=6,18=5,40=1/2;
 3/5=7,11=2,25=1,30=1,75=-5,116=2/1,2,3;
 4//1;
 5/5=2,7=900,8=3,13=1,17=3,38=5/2,8;
 6/7=2,8=2,9=2,10=2,22=-1,28=1/1;
 8/6=1,10=90,11=11/1;
 9/8=-3,42=1,46=1/14;
 5/5=2,7=900,8=3,17=43,38=5/8(-2);
 6/7=2,8=2,9=2,10=2,22=-1,28=1/1;
 99/5=1,6=100,9=1,18=-1/99;
 Leave Link    1 at Tue Jan  3 09:04:31 2023, MaxMem=   536870912 cpu:               0.4 elap:               0.3
 (Enter /opt/software/gaussian/g16.c01/l101.exe)
 ----------------------------------------------------------------------
 0002_q000_m01_k00_opt_uwb97xd_def2svpd/0002_q000_m01_k00_force_uhf_def
 2svp stable-force
 ----------------------------------------------------------------------
 Symbolic Z-matrix:
 Charge =  0 Multiplicity = 1
 C                     0.93414  -0.05061   0.05339 
 N                     2.23036  -0.06073   0.09715 
 H                     2.71043   0.14456  -0.79294 
 O                     2.9769   -0.2864    1.07559 
 H                     0.46025   0.16918  -0.89982 
 H                     0.38334  -0.26134   0.96696 
 
 ITRead=  0  0  0  0  0  0
 MicOpt= -1 -1 -1 -1 -1 -1
 NAtoms=      6 NQM=        6 NQMF=       0 NMMI=      0 NMMIF=      0
                NMic=       0 NMicF=      0.
                    Isotopes and Nuclear Properties:
 (Nuclear quadrupole moments (NQMom) in fm**2, nuclear magnetic moments (NMagM)
  in nuclear magnetons)

  Atom         1           2           3           4           5           6
 IAtWgt=          12          14           1          16           1           1
 AtmWgt=  12.0000000  14.0030740   1.0078250  15.9949146   1.0078250   1.0078250
 NucSpn=           0           2           1           0           1           1
 AtZEff=  -0.0000000  -0.0000000  -0.0000000  -0.0000000  -0.0000000  -0.0000000
 NQMom=    0.0000000   2.0440000   0.0000000   0.0000000   0.0000000   0.0000000
 NMagM=    0.0000000   0.4037610   2.7928460   0.0000000   2.7928460   2.7928460
 AtZNuc=   6.0000000   7.0000000   1.0000000   8.0000000   1.0000000   1.0000000
 Leave Link  101 at Tue Jan  3 09:04:31 2023, MaxMem=   536870912 cpu:               0.3 elap:               0.2
 (Enter /opt/software/gaussian/g16.c01/l202.exe)
                          Input orientation:                          
 ---------------------------------------------------------------------
 Center     Atomic      Atomic             Coordinates (Angstroms)
 Number     Number       Type             X           Y           Z
 ---------------------------------------------------------------------
      1          6           0        0.934136   -0.050610    0.053392
      2          7           0        2.230356   -0.060728    0.097153
      3          1           0        2.710430    0.144555   -0.792940
      4          8           0        2.976899   -0.286398    1.075595
      5          1           0        0.460247    0.169182   -0.899820
      6          1           0        0.383342   -0.261341    0.966961
 ---------------------------------------------------------------------
                    Distance matrix (angstroms):
                    1          2          3          4          5
     1  C    0.000000
     2  N    1.296998   0.000000
     3  H    1.977268   1.031929   0.000000
     4  O    2.296383   1.251239   1.936013   0.000000
     5  H    1.086964   2.044529   2.252854   3.231617   0.000000
     6  H    1.087378   2.051408   2.945733   2.595952   1.917325
                    6
     6  H    0.000000
 Symmetry turned off by external request.
 Stoichiometry    CH3NO
 Rotational constants (GHZ):          75.8819039          11.9122881          10.2959784
 Leave Link  202 at Tue Jan  3 09:04:31 2023, MaxMem=   536870912 cpu:               0.0 elap:               0.0
 (Enter /opt/software/gaussian/g16.c01/l301.exe)
 General basis read from cards:  (5D, 7F)
 Centers:       3      5      6
 S 3 1.00
     Exponent=  1.3010701000D+01 Coefficients=  1.9682158000D-02
     Exponent=  1.9622572000D+00 Coefficients=  1.3796524000D-01
     Exponent=  4.4453796000D-01 Coefficients=  4.7831935000D-01
 S 1 1.00
     Exponent=  1.2194962000D-01 Coefficients=  1.0000000000D+00
 P 1 1.00
     Exponent=  8.0000000000D-01 Coefficients=  1.0000000000D+00
 ****
 Centers:       1
 S 5 1.00
     Exponent=  1.2384016938D+03 Coefficients=  5.4568832082D-03
     Exponent=  1.8629004992D+02 Coefficients=  4.0638409211D-02
     Exponent=  4.2251176346D+01 Coefficients=  1.8025593888D-01
     Exponent=  1.1676557932D+01 Coefficients=  4.6315121755D-01
     Exponent=  3.5930506482D+00 Coefficients=  4.4087173314D-01
 S 1 1.00
     Exponent=  4.0245147363D-01 Coefficients=  1.0000000000D+00
 S 1 1.00
     Exponent=  1.3090182668D-01 Coefficients=  1.0000000000D+00
 P 3 1.00
     Exponent=  9.4680970621D+00 Coefficients=  3.8387871728D-02
     Exponent=  2.0103545142D+00 Coefficients=  2.1117025112D-01
     Exponent=  5.4771004707D-01 Coefficients=  5.1328172114D-01
 P 1 1.00
     Exponent=  1.5268613795D-01 Coefficients=  1.0000000000D+00
 D 1 1.00
     Exponent=  8.0000000000D-01 Coefficients=  1.0000000000D+00
 ****
 Centers:       2
 S 5 1.00
     Exponent=  1.7128415853D+03 Coefficients= -5.3934125305D-03
     Exponent=  2.5764812677D+02 Coefficients= -4.0221581118D-02
     Exponent=  5.8458245853D+01 Coefficients= -1.7931144990D-01
     Exponent=  1.6198367905D+01 Coefficients= -4.6376317823D-01
     Exponent=  5.0052600809D+00 Coefficients= -4.4171422662D-01
 S 1 1.00
     Exponent=  5.8731856571D-01 Coefficients=  1.0000000000D+00
 S 1 1.00
     Exponent=  1.8764592253D-01 Coefficients=  1.0000000000D+00
 P 3 1.00
     Exponent=  1.3571470233D+01 Coefficients= -4.0072398852D-02
     Exponent=  2.9257372874D+00 Coefficients= -2.1807045028D-01
     Exponent=  7.9927750754D-01 Coefficients= -5.1294466049D-01
 P 1 1.00
     Exponent=  2.1954348034D-01 Coefficients=  1.0000000000D+00
 D 1 1.00
     Exponent=  1.0000000000D+00 Coefficients=  1.0000000000D+00
 ****
 Centers:       4
 S 5 1.00
     Exponent=  2.2661767785D+03 Coefficients= -5.3431809926D-03
     Exponent=  3.4087010191D+02 Coefficients= -3.9890039230D-02
     Exponent=  7.7363135167D+01 Coefficients= -1.7853911985D-01
     Exponent=  2.1479644940D+01 Coefficients= -4.6427684959D-01
     Exponent=  6.6589433124D+00 Coefficients= -4.4309745172D-01
 S 1 1.00
     Exponent=  8.0975975668D-01 Coefficients=  1.0000000000D+00
 S 1 1.00
     Exponent=  2.5530772234D-01 Coefficients=  1.0000000000D+00
 P 3 1.00
     Exponent=  1.7721504317D+01 Coefficients=  4.3394573193D-02
     Exponent=  3.8635505440D+00 Coefficients=  2.3094120765D-01
     Exponent=  1.0480920883D+00 Coefficients=  5.1375311064D-01
 P 1 1.00
     Exponent=  2.7641544411D-01 Coefficients=  1.0000000000D+00
 D 1 1.00
     Exponent=  1.2000000000D+00 Coefficients=  1.0000000000D+00
 ****
 Ernie: Thresh=  0.10000D-02 Tol=  0.10000D-05 Strict=F.
    57 basis functions,    96 primitive gaussians,    60 cartesian basis functions
    12 alpha electrons       12 beta electrons
       nuclear repulsion energy        72.3526514420 Hartrees.
 IExCor=    0 DFT=F Ex=HF Corr=None ExCW=0 ScaHFX=  1.000000
 ScaDFX=  1.000000  1.000000  1.000000  1.000000 ScalE2=  1.000000  1.000000
 IRadAn=      5 IRanWt=     -1 IRanGd=            0 ICorTp=0 IEmpDi=  4
 NAtoms=    6 NActive=    6 NUniq=    6 SFac= 1.00D+00 NAtFMM=   60 NAOKFM=F Big=F
 Integral buffers will be    131072 words long.
 Raffenetti 2 integral format.
 Two-electron integral symmetry is turned off.
 Leave Link  301 at Tue Jan  3 09:04:31 2023, MaxMem=   536870912 cpu:               0.2 elap:               0.1
 (Enter /opt/software/gaussian/g16.c01/l302.exe)
 NPDir=0 NMtPBC=     1 NCelOv=     1 NCel=       1 NClECP=     1 NCelD=      1
         NCelK=      1 NCelE2=     1 NClLst=     1 CellRange=     0.0.
 One-electron integrals computed using PRISM.
 NBasis=    57 RedAO= T EigKep=  7.17D-03  NBF=    57
 NBsUse=    57 1.00D-06 EigRej= -1.00D+00 NBFU=    57
 Leave Link  302 at Tue Jan  3 09:04:32 2023, MaxMem=   536870912 cpu:               0.3 elap:               0.2
 (Enter /opt/software/gaussian/g16.c01/l303.exe)
 DipDrv:  MaxL=1.
 Leave Link  303 at Tue Jan  3 09:04:32 2023, MaxMem=   536870912 cpu:               0.1 elap:               0.1
 (Enter /opt/software/gaussian/g16.c01/l401.exe)
 ExpMin= 1.22D-01 ExpMax= 2.27D+03 ExpMxC= 3.41D+02 IAcc=3 IRadAn=         5 AccDes= 0.00D+00
 Harris functional with IExCor=  205 and IRadAn=       5 diagonalized for initial guess.
 HarFok:  IExCor=  205 AccDes= 0.00D+00 IRadAn=         5 IDoV= 1 UseB2=F ITyADJ=14
 ICtDFT=  3500011 ScaDFX=  1.000000  1.000000  1.000000  1.000000
 FoFCou: FMM=F IPFlag=           0 FMFlag=      100000 FMFlg1=           0
         NFxFlg=           0 DoJE=T BraDBF=F KetDBF=T FulRan=T
         wScrn=  0.000000 ICntrl=       500 IOpCl=  0 I1Cent=   200000004 NGrid=           0
         NMat0=    1 NMatS0=      1 NMatT0=    0 NMatD0=    1 NMtDS0=    0 NMtDT0=    0
 Symmetry not used in FoFCou.
 Harris En= -168.869742507636    
 JPrj=0 DoOrth=F DoCkMO=F.
 Initial guess <Sx>= 0.0000 <Sy>= 0.0000 <Sz>= 0.0000 <S**2>=-0.0000 S=-0.0000
 Leave Link  401 at Tue Jan  3 09:04:32 2023, MaxMem=   536870912 cpu:               0.6 elap:               0.3
 (Enter /opt/software/gaussian/g16.c01/l502.exe)
 Keep R1 and R2 ints in memory in canonical form, NReq=3579370.
 FoFCou: FMM=F IPFlag=           0 FMFlag=           0 FMFlg1=           0
         NFxFlg=           0 DoJE=F BraDBF=F KetDBF=F FulRan=T
         wScrn=  0.000000 ICntrl=       600 IOpCl=  0 I1Cent=           0 NGrid=           0
         NMat0=    1 NMatS0=   1653 NMatT0=    0 NMatD0=    1 NMtDS0=    0 NMtDT0=    0
 Symmetry not used in FoFCou.
 Two-electron integral symmetry not used.
 UHF open shell SCF:
 Using DIIS extrapolation, IDIIS=  1040.
 NGot=   536870912 LenX=   534128512 LenY=   534124471
 Requested convergence on RMS density matrix=1.00D-08 within 128 cycles.
 Requested convergence on MAX density matrix=1.00D-06.
 Requested convergence on             energy=1.00D-06.
 No special actions if energy rises.

 Cycle   1  Pass 1  IDiag  1:
 E= -168.573228082171    
 DIIS: error= 5.14D-02 at cycle   1 NSaved=   1.
 NSaved= 1 IEnMin= 1 EnMin= -168.573228082171     IErMin= 1 ErrMin= 5.14D-02
 ErrMax= 5.14D-02  0.00D+00 EMaxC= 1.00D-01 BMatC= 6.36D-01 BMatP= 6.36D-01
 IDIUse=3 WtCom= 4.86D-01 WtEn= 5.14D-01
 Coeff-Com:  0.100D+01
 Coeff-En:   0.100D+01
 Coeff:      0.100D+01
 Gap=     0.433 Goal=   None    Shift=    0.000
 Gap=     0.433 Goal=   None    Shift=    0.000
 GapD=    0.433 DampG=2.000 DampE=0.500 DampFc=1.0000 IDamp=-1.
 RMSDP=7.06D-03 MaxDP=9.95D-02              OVMax= 9.99D-02

 Cycle   2  Pass 1  IDiag  1:
 E= -168.657500862620     Delta-E=       -0.084272780448 Rises=F Damp=F
 DIIS: error= 1.87D-02 at cycle   2 NSaved=   2.
 NSaved= 2 IEnMin= 2 EnMin= -168.657500862620     IErMin= 2 ErrMin= 1.87D-02
 ErrMax= 1.87D-02  0.00D+00 EMaxC= 1.00D-01 BMatC= 1.18D-01 BMatP= 6.36D-01
 IDIUse=3 WtCom= 8.13D-01 WtEn= 1.87D-01
 Coeff-Com:  0.257D+00 0.743D+00
 Coeff-En:   0.000D+00 0.100D+01
 Coeff:      0.209D+00 0.791D+00
 Gap=     0.516 Goal=   None    Shift=    0.000
 Gap=     0.516 Goal=   None    Shift=    0.000
 RMSDP=2.84D-03 MaxDP=5.65D-02 DE=-8.43D-02 OVMax= 5.29D-02

 Cycle   3  Pass 1  IDiag  1:
 E= -168.677085824914     Delta-E=       -0.019584962294 Rises=F Damp=F
 DIIS: error= 6.71D-03 at cycle   3 NSaved=   3.
 NSaved= 3 IEnMin= 3 EnMin= -168.677085824914     IErMin= 3 ErrMin= 6.71D-03
 ErrMax= 6.71D-03  0.00D+00 EMaxC= 1.00D-01 BMatC= 1.50D-02 BMatP= 1.18D-01
 IDIUse=3 WtCom= 9.33D-01 WtEn= 6.71D-02
 Coeff-Com: -0.722D-02 0.237D+00 0.770D+00
 Coeff-En:   0.000D+00 0.000D+00 0.100D+01
 Coeff:     -0.674D-02 0.221D+00 0.786D+00
 Gap=     0.460 Goal=   None    Shift=    0.000
 Gap=     0.460 Goal=   None    Shift=    0.000
 RMSDP=8.49D-04 MaxDP=1.47D-02 DE=-1.96D-02 OVMax= 1.25D-02

 Cycle   4  Pass 1  IDiag  1:
 E= -168.679686670497     Delta-E=       -0.002600845583 Rises=F Damp=F
 DIIS: error= 2.06D-03 at cycle   4 NSaved=   4.
 NSaved= 4 IEnMin= 4 EnMin= -168.679686670497     IErMin= 4 ErrMin= 2.06D-03
 ErrMax= 2.06D-03  0.00D+00 EMaxC= 1.00D-01 BMatC= 6.66D-04 BMatP= 1.50D-02
 IDIUse=3 WtCom= 9.79D-01 WtEn= 2.06D-02
 Coeff-Com: -0.126D-01 0.148D-01 0.195D+00 0.803D+00
 Coeff-En:   0.000D+00 0.000D+00 0.000D+00 0.100D+01
 Coeff:     -0.123D-01 0.145D-01 0.191D+00 0.807D+00
 Gap=     0.463 Goal=   None    Shift=    0.000
 Gap=     0.463 Goal=   None    Shift=    0.000
 RMSDP=2.58D-04 MaxDP=3.78D-03 DE=-2.60D-03 OVMax= 8.14D-03

 Cycle   5  Pass 1  IDiag  1:
 E= -168.679904292303     Delta-E=       -0.000217621806 Rises=F Damp=F
 DIIS: error= 6.70D-04 at cycle   5 NSaved=   5.
 NSaved= 5 IEnMin= 5 EnMin= -168.679904292303     IErMin= 5 ErrMin= 6.70D-04
 ErrMax= 6.70D-04  0.00D+00 EMaxC= 1.00D-01 BMatC= 1.07D-04 BMatP= 6.66D-04
 IDIUse=3 WtCom= 9.93D-01 WtEn= 6.70D-03
 Coeff-Com:  0.763D-03-0.198D-01-0.850D-01 0.666D-01 0.104D+01
 Coeff-En:   0.000D+00 0.000D+00 0.000D+00 0.000D+00 0.100D+01
 Coeff:      0.757D-03-0.197D-01-0.844D-01 0.662D-01 0.104D+01
 Gap=     0.464 Goal=   None    Shift=    0.000
 Gap=     0.464 Goal=   None    Shift=    0.000
 RMSDP=1.36D-04 MaxDP=1.73D-03 DE=-2.18D-04 OVMax= 2.23D-03

 Cycle   6  Pass 1  IDiag  1:
 E= -168.679949296774     Delta-E=       -0.000045004471 Rises=F Damp=F
 DIIS: error= 2.79D-04 at cycle   6 NSaved=   6.
 NSaved= 6 IEnMin= 6 EnMin= -168.679949296774     IErMin= 6 ErrMin= 2.79D-04
 ErrMax= 2.79D-04  0.00D+00 EMaxC= 1.00D-01 BMatC= 1.68D-05 BMatP= 1.07D-04
 IDIUse=3 WtCom= 9.97D-01 WtEn= 2.79D-03
 Coeff-Com:  0.242D-02-0.900D-02-0.661D-01-0.105D+00 0.202D+00 0.975D+00
 Coeff-En:   0.000D+00 0.000D+00 0.000D+00 0.000D+00 0.000D+00 0.100D+01
 Coeff:      0.241D-02-0.897D-02-0.659D-01-0.104D+00 0.202D+00 0.975D+00
 Gap=     0.464 Goal=   None    Shift=    0.000
 Gap=     0.464 Goal=   None    Shift=    0.000
 RMSDP=7.85D-05 MaxDP=9.92D-04 DE=-4.50D-05 OVMax= 2.39D-03

 Cycle   7  Pass 1  IDiag  1:
 E= -168.679961252902     Delta-E=       -0.000011956128 Rises=F Damp=F
 DIIS: error= 1.07D-04 at cycle   7 NSaved=   7.
 NSaved= 7 IEnMin= 7 EnMin= -168.679961252902     IErMin= 7 ErrMin= 1.07D-04
 ErrMax= 1.07D-04  0.00D+00 EMaxC= 1.00D-01 BMatC= 3.47D-06 BMatP= 1.68D-05
 IDIUse=3 WtCom= 9.99D-01 WtEn= 1.07D-03
 Coeff-Com: -0.632D-03 0.566D-02 0.289D-01 0.332D-01-0.312D+00-0.107D+00
 Coeff-Com:  0.135D+01
 Coeff-En:   0.000D+00 0.000D+00 0.000D+00 0.000D+00 0.000D+00 0.000D+00
 Coeff-En:   0.100D+01
 Coeff:     -0.631D-03 0.566D-02 0.289D-01 0.331D-01-0.312D+00-0.106D+00
 Coeff:      0.135D+01
 Gap=     0.464 Goal=   None    Shift=    0.000
 Gap=     0.464 Goal=   None    Shift=    0.000
 RMSDP=4.65D-05 MaxDP=6.14D-04 DE=-1.20D-05 OVMax= 1.16D-03

 Cycle   8  Pass 1  IDiag  1:
 E= -168.679963784847     Delta-E=       -0.000002531945 Rises=F Damp=F
 DIIS: error= 2.44D-05 at cycle   8 NSaved=   8.
 NSaved= 8 IEnMin= 8 EnMin= -168.679963784847     IErMin= 8 ErrMin= 2.44D-05
 ErrMax= 2.44D-05  0.00D+00 EMaxC= 1.00D-01 BMatC= 1.97D-07 BMatP= 3.47D-06
 IDIUse=1 WtCom= 1.00D+00 WtEn= 0.00D+00
 Coeff-Com: -0.120D-03-0.125D-03 0.995D-03 0.911D-02 0.117D-01-0.167D-01
 Coeff-Com: -0.282D+00 0.128D+01
 Coeff:     -0.120D-03-0.125D-03 0.995D-03 0.911D-02 0.117D-01-0.167D-01
 Coeff:     -0.282D+00 0.128D+01
 Gap=     0.464 Goal=   None    Shift=    0.000
 Gap=     0.464 Goal=   None    Shift=    0.000
 RMSDP=1.14D-05 MaxDP=1.36D-04 DE=-2.53D-06 OVMax= 3.28D-04

 Cycle   9  Pass 1  IDiag  1:
 E= -168.679963944749     Delta-E=       -0.000000159903 Rises=F Damp=F
 DIIS: error= 8.23D-06 at cycle   9 NSaved=   9.
 NSaved= 9 IEnMin= 9 EnMin= -168.679963944749     IErMin= 9 ErrMin= 8.23D-06
 ErrMax= 8.23D-06  0.00D+00 EMaxC= 1.00D-01 BMatC= 2.06D-08 BMatP= 1.97D-07
 IDIUse=1 WtCom= 1.00D+00 WtEn= 0.00D+00
 Coeff-Com:  0.832D-04-0.416D-03-0.242D-02-0.410D-02 0.870D-02 0.321D-01
 Coeff-Com:  0.212D-02-0.559D+00 0.152D+01
 Coeff:      0.832D-04-0.416D-03-0.242D-02-0.410D-02 0.870D-02 0.321D-01
 Coeff:      0.212D-02-0.559D+00 0.152D+01
 Gap=     0.464 Goal=   None    Shift=    0.000
 Gap=     0.464 Goal=   None    Shift=    0.000
 RMSDP=3.76D-06 MaxDP=3.45D-05 DE=-1.60D-07 OVMax= 1.06D-04

 Cycle  10  Pass 1  IDiag  1:
 E= -168.679963960725     Delta-E=       -0.000000015976 Rises=F Damp=F
 DIIS: error= 1.67D-06 at cycle  10 NSaved=  10.
 NSaved=10 IEnMin=10 EnMin= -168.679963960725     IErMin=10 ErrMin= 1.67D-06
 ErrMax= 1.67D-06  0.00D+00 EMaxC= 1.00D-01 BMatC= 9.33D-10 BMatP= 2.06D-08
 IDIUse=1 WtCom= 1.00D+00 WtEn= 0.00D+00
 Coeff-Com: -0.162D-04 0.101D-03 0.675D-03 0.822D-03-0.537D-02-0.356D-02
 Coeff-Com:  0.167D-01 0.522D-01-0.368D+00 0.131D+01
 Coeff:     -0.162D-04 0.101D-03 0.675D-03 0.822D-03-0.537D-02-0.356D-02
 Coeff:      0.167D-01 0.522D-01-0.368D+00 0.131D+01
 Gap=     0.464 Goal=   None    Shift=    0.000
 Gap=     0.464 Goal=   None    Shift=    0.000
 RMSDP=6.60D-07 MaxDP=7.75D-06 DE=-1.60D-08 OVMax= 1.87D-05

 Cycle  11  Pass 1  IDiag  1:
 E= -168.679963961359     Delta-E=       -0.000000000634 Rises=F Damp=F
 DIIS: error= 3.74D-07 at cycle  11 NSaved=  11.
 NSaved=11 IEnMin=11 EnMin= -168.679963961359     IErMin=11 ErrMin= 3.74D-07
 ErrMax= 3.74D-07  0.00D+00 EMaxC= 1.00D-01 BMatC= 5.25D-11 BMatP= 9.33D-10
 IDIUse=1 WtCom= 1.00D+00 WtEn= 0.00D+00
 Coeff-Com: -0.633D-06-0.448D-05-0.157D-04 0.608D-04 0.492D-03-0.286D-04
 Coeff-Com: -0.540D-02 0.206D-01 0.542D-02-0.366D+00 0.134D+01
 Coeff:     -0.633D-06-0.448D-05-0.157D-04 0.608D-04 0.492D-03-0.286D-04
 Coeff:     -0.540D-02 0.206D-01 0.542D-02-0.366D+00 0.134D+01
 Gap=     0.464 Goal=   None    Shift=    0.000
 Gap=     0.464 Goal=   None    Shift=    0.000
 RMSDP=1.25D-07 MaxDP=1.95D-06 DE=-6.34D-10 OVMax= 3.14D-06

 Cycle  12  Pass 1  IDiag  1:
 E= -168.679963961391     Delta-E=       -0.000000000032 Rises=F Damp=F
 DIIS: error= 7.13D-08 at cycle  12 NSaved=  12.
 NSaved=12 IEnMin=12 EnMin= -168.679963961391     IErMin=12 ErrMin= 7.13D-08
 ErrMax= 7.13D-08  0.00D+00 EMaxC= 1.00D-01 BMatC= 1.84D-12 BMatP= 5.25D-11
 IDIUse=1 WtCom= 1.00D+00 WtEn= 0.00D+00
 Coeff-Com:  0.107D-05-0.504D-05-0.305D-04-0.711D-04 0.117D-03 0.381D-03
 Coeff-Com:  0.605D-03-0.998D-02 0.212D-01 0.389D-01-0.411D+00 0.136D+01
 Coeff:      0.107D-05-0.504D-05-0.305D-04-0.711D-04 0.117D-03 0.381D-03
 Coeff:      0.605D-03-0.998D-02 0.212D-01 0.389D-01-0.411D+00 0.136D+01
 Gap=     0.464 Goal=   None    Shift=    0.000
 Gap=     0.464 Goal=   None    Shift=    0.000
 RMSDP=2.74D-08 MaxDP=3.53D-07 DE=-3.19D-11 OVMax= 6.48D-07

 Cycle  13  Pass 1  IDiag  1:
 E= -168.679963961392     Delta-E=       -0.000000000001 Rises=F Damp=F
 DIIS: error= 8.97D-09 at cycle  13 NSaved=  13.
 NSaved=13 IEnMin=13 EnMin= -168.679963961392     IErMin=13 ErrMin= 8.97D-09
 ErrMax= 8.97D-09  0.00D+00 EMaxC= 1.00D-01 BMatC= 2.74D-14 BMatP= 1.84D-12
 IDIUse=1 WtCom= 1.00D+00 WtEn= 0.00D+00
 Coeff-Com: -0.229D-06 0.124D-05 0.764D-05 0.138D-04-0.401D-04-0.838D-04
 Coeff-Com:  0.167D-04 0.169D-02-0.489D-02 0.115D-02 0.531D-01-0.290D+00
 Coeff-Com:  0.124D+01
 Coeff:     -0.229D-06 0.124D-05 0.764D-05 0.138D-04-0.401D-04-0.838D-04
 Coeff:      0.167D-04 0.169D-02-0.489D-02 0.115D-02 0.531D-01-0.290D+00
 Coeff:      0.124D+01
 Gap=     0.464 Goal=   None    Shift=    0.000
 Gap=     0.464 Goal=   None    Shift=    0.000
 RMSDP=4.52D-09 MaxDP=4.75D-08 DE=-1.31D-12 OVMax= 7.19D-08

 SCF Done:  E(UHF) =  -168.679963961     A.U. after   13 cycles
            NFock= 13  Conv=0.45D-08     -V/T= 2.0035
 <Sx>= 0.0000 <Sy>= 0.0000 <Sz>= 0.0000 <S**2>=-0.0000 S=-0.0000
 <L.S>=  0.00000000000    
 KE= 1.680894902844D+02 PE=-5.413220480708D+02 EE= 1.321999423831D+02
 Annihilation of the first spin contaminant:
 S**2 before annihilation    -0.0000,   after     0.0000
 Leave Link  502 at Tue Jan  3 09:04:32 2023, MaxMem=   536870912 cpu:               0.5 elap:               0.2
 (Enter /opt/software/gaussian/g16.c01/l508.exe)
 QCSCF skips out because SCF is already converged.
 Leave Link  508 at Tue Jan  3 09:04:32 2023, MaxMem=   536870912 cpu:               0.0 elap:               0.0
 (Enter /opt/software/gaussian/g16.c01/l601.exe)
 Copying SCF densities to generalized density rwf, IOpCl= 1 IROHF=0.

 **********************************************************************

            Population analysis using the SCF Density.

 **********************************************************************

 Alpha  occ. eigenvalues --  -20.50746 -15.73554 -11.29768  -1.44395  -1.14544
 Alpha  occ. eigenvalues --   -0.88867  -0.75025  -0.66674  -0.62285  -0.58760
 Alpha  occ. eigenvalues --   -0.42649  -0.34366
 Alpha virt. eigenvalues --    0.12061   0.15643   0.20778   0.24649   0.37125
 Alpha virt. eigenvalues --    0.47970   0.58408   0.68421   0.71038   0.78597
 Alpha virt. eigenvalues --    0.83230   0.86600   0.90706   0.98335   0.99633
 Alpha virt. eigenvalues --    1.19962   1.23509   1.31184   1.36662   1.40497
 Alpha virt. eigenvalues --    1.48378   1.52551   1.60067   1.77004   1.77762
 Alpha virt. eigenvalues --    1.89928   2.09158   2.14880   2.19277   2.22070
 Alpha virt. eigenvalues --    2.36344   2.39921   2.62531   2.64731   2.84509
 Alpha virt. eigenvalues --    2.85793   3.00008   3.10242   3.15200   3.19122
 Alpha virt. eigenvalues --    3.34651   3.59717   3.60203   3.89900   4.18160
  Beta  occ. eigenvalues --  -20.50746 -15.73554 -11.29768  -1.44395  -1.14544
  Beta  occ. eigenvalues --   -0.88867  -0.75025  -0.66674  -0.62285  -0.58760
  Beta  occ. eigenvalues --   -0.42649  -0.34366
  Beta virt. eigenvalues --    0.12061   0.15643   0.20778   0.24649   0.37125
  Beta virt. eigenvalues --    0.47970   0.58408   0.68421   0.71038   0.78597
  Beta virt. eigenvalues --    0.83230   0.86600   0.90706   0.98335   0.99633
  Beta virt. eigenvalues --    1.19962   1.23509   1.31184   1.36662   1.40497
  Beta virt. eigenvalues --    1.48378   1.52551   1.60067   1.77004   1.77762
  Beta virt. eigenvalues --    1.89928   2.09158   2.14880   2.19277   2.22070
  Beta virt. eigenvalues --    2.36344   2.39921   2.62531   2.64731   2.84509
  Beta virt. eigenvalues --    2.85793   3.00008   3.10242   3.15200   3.19122
  Beta virt. eigenvalues --    3.34651   3.59717   3.60203   3.89900   4.18160
          Condensed to atoms (all electrons):
               1          2          3          4          5          6
     1  C    4.761241   0.559514  -0.042995  -0.075178   0.402516   0.406901
     2  N    0.559514   5.735433   0.365127   0.183245  -0.024387  -0.017588
     3  H   -0.042995   0.365127   0.541935  -0.035699  -0.002922   0.006342
     4  O   -0.075178   0.183245  -0.035699   8.448904   0.003479   0.005509
     5  H    0.402516  -0.024387  -0.002922   0.003479   0.569882  -0.024772
     6  H    0.406901  -0.017588   0.006342   0.005509  -0.024772   0.524420
          Atomic-Atomic Spin Densities.
               1          2          3          4          5          6
     1  C    0.000000   0.000000   0.000000   0.000000   0.000000   0.000000
     2  N    0.000000   0.000000   0.000000   0.000000   0.000000   0.000000
     3  H    0.000000   0.000000   0.000000   0.000000   0.000000   0.000000
     4  O    0.000000   0.000000   0.000000   0.000000   0.000000   0.000000
     5  H    0.000000   0.000000   0.000000   0.000000   0.000000   0.000000
     6  H    0.000000   0.000000   0.000000   0.000000   0.000000   0.000000
 Mulliken charges and spin densities:
               1          2
     1  C   -0.011999   0.000000
     2  N    0.198656   0.000000
     3  H    0.168211   0.000000
     4  O   -0.530260   0.000000
     5  H    0.076203   0.000000
     6  H    0.099188   0.000000
 Sum of Mulliken charges =  -0.00000   0.00000
 Mulliken charges and spin densities with hydrogens summed into heavy atoms:
               1          2
     1  C    0.163392   0.000000
     2  N    0.366867   0.000000
     4  O   -0.530260   0.000000
 Electronic spatial extent (au):  <R**2>=            517.7656
 Charge=             -0.0000 electrons
 Dipole moment (field-independent basis, Debye):
    X=             -2.5559    Y=              0.8093    Z=             -3.5091  Tot=              4.4161
 Quadrupole moment (field-independent basis, Debye-Ang):
   XX=            -28.1614   YY=            -18.9482   ZZ=            -19.1958
   XY=              2.6504   XZ=            -11.0669   YZ=              0.2099
 Traceless Quadrupole moment (field-independent basis, Debye-Ang):
   XX=             -6.0596   YY=              3.1536   ZZ=              2.9060
   XY=              2.6504   XZ=            -11.0669   YZ=              0.2099
 Octapole moment (field-independent basis, Debye-Ang**2):
  XXX=           -141.8457  YYY=              6.7637  ZZZ=            -23.9448  XYY=            -36.5268
  XXY=             10.2706  XXZ=            -39.8525  XZZ=            -41.9750  YZZ=              3.2334
  YYZ=             -6.7952  XYZ=              1.7999
 Hexadecapole moment (field-independent basis, Debye-Ang**3):
 XXXX=           -645.8384 YYYY=            -20.3578 ZZZZ=            -65.9297 XXXY=             41.2156
 XXXZ=           -155.1350 YYYX=             17.3001 YYYZ=              6.4356 ZZZX=            -68.3250
 ZZZY=              6.5755 XXYY=            -92.7868 XXZZ=           -118.1746 YYZZ=            -14.4544
 XXYZ=              7.8934 YYXZ=            -19.5026 ZZXY=              8.7241
 N-N= 7.235265144198D+01 E-N=-5.413220481856D+02  KE= 1.680894902844D+02
                          Isotropic Fermi Contact Couplings
        Atom                 a.u.       MegaHertz       Gauss      10(-4) cm-1
     1  C(13)              0.00000       0.00000       0.00000       0.00000
     2  N(14)              0.00000       0.00000       0.00000       0.00000
     3  H(1)               0.00000       0.00000       0.00000       0.00000
     4  O(17)              0.00000      -0.00000      -0.00000      -0.00000
     5  H(1)               0.00000       0.00000       0.00000       0.00000
     6  H(1)               0.00000       0.00000       0.00000       0.00000
 --------------------------------------------------------
       Center         ----  Spin Dipole Couplings  ----
                      3XX-RR        3YY-RR        3ZZ-RR
 --------------------------------------------------------
     1   Atom        0.000000      0.000000      0.000000
     2   Atom        0.000000      0.000000      0.000000
     3   Atom        0.000000      0.000000      0.000000
     4   Atom        0.000000      0.000000      0.000000
     5   Atom        0.000000      0.000000      0.000000
     6   Atom        0.000000      0.000000      0.000000
 --------------------------------------------------------
                        XY            XZ            YZ
 --------------------------------------------------------
     1   Atom        0.000000      0.000000      0.000000
     2   Atom        0.000000      0.000000      0.000000
     3   Atom        0.000000      0.000000      0.000000
     4   Atom        0.000000      0.000000      0.000000
     5   Atom        0.000000      0.000000      0.000000
     6   Atom        0.000000      0.000000      0.000000
 --------------------------------------------------------


 ---------------------------------------------------------------------------------
              Anisotropic Spin Dipole Couplings in Principal Axis System
 ---------------------------------------------------------------------------------

       Atom             a.u.   MegaHertz   Gauss  10(-4) cm-1        Axes

              Baa     0.0000     0.000     0.000     0.000  1.0000  0.0000  0.0000
     1 C(13)  Bbb     0.0000     0.000     0.000     0.000 -0.0000  1.0000  0.0000
              Bcc     0.0000     0.000     0.000     0.000  0.0000  0.0000  1.0000
 
              Baa     0.0000     0.000     0.000     0.000  1.0000  0.0000  0.0000
     2 N(14)  Bbb     0.0000     0.000     0.000     0.000 -0.0000  1.0000  0.0000
              Bcc     0.0000     0.000     0.000     0.000  0.0000  0.0000  1.0000
 
              Baa     0.0000     0.000     0.000     0.000  1.0000  0.0000  0.0000
     3 H(1)   Bbb     0.0000     0.000     0.000     0.000 -0.0000  1.0000  0.0000
              Bcc     0.0000     0.000     0.000     0.000  0.0000  0.0000  1.0000
 
              Baa     0.0000    -0.000    -0.000    -0.000  1.0000  0.0000  0.0000
     4 O(17)  Bbb     0.0000    -0.000    -0.000    -0.000 -0.0000  1.0000  0.0000
              Bcc     0.0000    -0.000    -0.000    -0.000  0.0000  0.0000  1.0000
 
              Baa     0.0000     0.000     0.000     0.000  1.0000  0.0000  0.0000
     5 H(1)   Bbb     0.0000     0.000     0.000     0.000 -0.0000  1.0000  0.0000
              Bcc     0.0000     0.000     0.000     0.000  0.0000  0.0000  1.0000
 
              Baa     0.0000     0.000     0.000     0.000  1.0000  0.0000  0.0000
     6 H(1)   Bbb     0.0000     0.000     0.000     0.000 -0.0000  1.0000  0.0000
              Bcc     0.0000     0.000     0.000     0.000  0.0000  0.0000  1.0000
 

 ---------------------------------------------------------------------------------

 No NMR shielding tensors so no spin-rotation constants.
 Leave Link  601 at Tue Jan  3 09:04:33 2023, MaxMem=   536870912 cpu:               0.3 elap:               0.2
 (Enter /opt/software/gaussian/g16.c01/l801.exe)
 Range of M.O.s used for correlation:     1    57
 NBasis=    57 NAE=    12 NBE=    12 NFC=     0 NFV=     0
 NROrb=     57 NOA=    12 NOB=    12 NVA=    45 NVB=    45
 Leave Link  801 at Tue Jan  3 09:04:33 2023, MaxMem=   536870912 cpu:               0.1 elap:               0.1
 (Enter /opt/software/gaussian/g16.c01/l914.exe)
 UHF ground state
 Doing stability rather than CIS.
 Keep R1 and R2 ints in memory in canonical form, NReq=3579710.
 FoFCou: FMM=F IPFlag=           0 FMFlag=           0 FMFlg1=           0
         NFxFlg=           0 DoJE=F BraDBF=F KetDBF=F FulRan=T
         wScrn=  0.000000 ICntrl=       600 IOpCl=  0 I1Cent=           0 NGrid=           0
         NMat0=    1 NMatS0=   1653 NMatT0=    0 NMatD0=    1 NMtDS0=    0 NMtDT0=    0
 Symmetry not used in FoFCou.
 Two-electron integral symmetry not used.
 MDV=   536870912 DFT=F DoStab=T Mixed=F DoRPA=F DoScal=F NonHer=F
 Making orbital integer symmetry assigments:
    12 initial guesses have been made.
 Convergence on wavefunction:    0.001000000000000
 Davidson Disk Diagonalization:  ConvIn= 1.00D-03 SkipCon=T Conv= 1.00D-03.
 Max sub-space:  2000 roots to seek:    12 dimension of matrix:         1080
 Iteration     1 Dimension    12 NMult     0 NNew     12
 CISAX will form    12 AO SS matrices at one time.
 NMat=    12 NSing=    12 JSym2X= 0.
 Excitation Energies [eV] at current iteration:
 Root      1 :    -0.690804918329798
 Root      2 :     5.292122599212497
 Root      3 :     6.087526322615763
 Root      4 :     7.375292323978081
 Root      5 :     7.575890101765356
 Root      6 :     8.831931873475318
 Root      7 :     9.106794514046092
 Root      8 :     9.387889603643705
 Root      9 :     9.446972520850803
 Root     10 :     9.474980153951162
 Root     11 :    10.711067342207313
 Root     12 :    12.535730503242107
 Iteration     2 Dimension    24 NMult    12 NNew     12
 CISAX will form    12 AO SS matrices at one time.
 NMat=    12 NSing=    12 JSym2X= 0.
 Root      1 not converged, maximum delta is    0.080379608550865
 Excitation Energies [eV] at current iteration:
 Root      1 :    -1.645391365283336   Change is   -0.954586446953538
 Root      2 :     4.623655929365921   Change is   -0.668466669846576
 Root      3 :     5.770911582535824   Change is   -0.316614740079940
 Root      4 :     6.845378651267390   Change is   -2.629601502683771
 Root      5 :     7.003500238760431   Change is   -0.371792085217650
 Root      6 :     7.429686618609889   Change is   -0.146203483155468
 Root      7 :     8.184806182518345   Change is   -0.921988331527747
 Root      8 :     8.295666047811478   Change is   -0.536265825663840
 Root      9 :     8.412547781983095   Change is   -0.975341821660610
 Root     10 :     9.228929630543652   Change is   -0.218042890307152
 Root     11 :    10.061171688663865   Change is   -0.649895653543447
 Root     12 :    10.382558749343831   Change is   -2.153171753898276
 Iteration     3 Dimension    27 NMult    24 NNew      3
 CISAX will form     3 AO SS matrices at one time.
 NMat=     3 NSing=     3 JSym2X= 0.
 Root      1 not converged, maximum delta is    0.047547591242084
 Excitation Energies [eV] at current iteration:
 Root      1 :    -1.750648288497370   Change is   -0.105256923214034
 Root      2 :     4.566343231090314   Change is   -0.057312698275607
 Root      3 :     5.755318076751735   Change is   -0.015593505784089
 Iteration     4 Dimension    30 NMult    27 NNew      3
 CISAX will form     3 AO SS matrices at one time.
 NMat=     3 NSing=     3 JSym2X= 0.
 Root      1 not converged, maximum delta is    0.014899044199840
 Excitation Energies [eV] at current iteration:
 Root      1 :    -1.764657150847424   Change is   -0.014008862350054
 Root      2 :     4.552329165501885   Change is   -0.014014065588429
 Root      3 :     5.753454237892933   Change is   -0.001863838858801
 Iteration     5 Dimension    33 NMult    30 NNew      3
 CISAX will form     3 AO SS matrices at one time.
 NMat=     3 NSing=     3 JSym2X= 0.
 Root      1 not converged, maximum delta is    0.002380132661692
 Excitation Energies [eV] at current iteration:
 Root      1 :    -1.765656434637844   Change is   -0.000999283790420
 Root      2 :     4.550472187839955   Change is   -0.001856977661930
 Root      3 :     5.753093128072437   Change is   -0.000361109820496
 Cease iterating as an instability has been found.
 ***********************************************************************
 Stability analysis using <AA,BB:AA,BB> singles matrix:
 ***********************************************************************
 1PDM for each excited state written to RWF  633
 Ground to excited state transition densities written to RWF  633

 Eigenvectors of the stability matrix:
 
 Excited state symmetry could not be determined.
 Eigenvector   1:  3.000-?Sym  Eigenvalue=-0.0648867  <S**2>=2.000
      9A -> 13A        0.14521
     12A -> 13A        0.67271
     12A -> 20A       -0.10397
      9B -> 13B       -0.14521
     12B -> 13B       -0.67271
     12B -> 20B        0.10397
 
 Excited state symmetry could not be determined.
 Eigenvector   2:  3.000-?Sym  Eigenvalue= 0.1672268  <S**2>=2.000
     11A -> 13A        0.67187
     12A -> 14A        0.11401
     11B -> 13B       -0.67187
     12B -> 14B       -0.11401
 
 Excited state symmetry could not be determined.
 Eigenvector   3:  1.000-?Sym  Eigenvalue= 0.2114223  <S**2>=0.000
     11A -> 13A        0.68898
     12A -> 14A        0.11205
     11B -> 13B        0.68898
     12B -> 14B        0.11205
 The wavefunction has an internal instability.
 Leave Link  914 at Tue Jan  3 09:04:33 2023, MaxMem=   536870912 cpu:               0.6 elap:               0.3
 (Enter /opt/software/gaussian/g16.c01/l508.exe)
 Keep R1 and R2 ints in memory in canonical form, NReq=3579770.
 FoFCou: FMM=F IPFlag=           0 FMFlag=           0 FMFlg1=           0
         NFxFlg=           0 DoJE=F BraDBF=F KetDBF=F FulRan=T
         wScrn=  0.000000 ICntrl=       600 IOpCl=  0 I1Cent=           0 NGrid=           0
         NMat0=    1 NMatS0=   1653 NMatT0=    0 NMatD0=    1 NMtDS0=    0 NMtDT0=    0
 Symmetry not used in FoFCou.
 Two-electron integral symmetry not used.
 Very tight linear equation convergence will be used.
 UHF wavefunction.
 Quadratic Convergence SCF Method.
 Line search only if initial step raises energy.
 Perform preliminary linear searches along instability eigenvector.
     ILin= 1 X=0.000D+00 Y=-1.686799639614D+02 DE= 0.00D+00
     ILin= 2 X=1.000D-01 Y=-1.686805974354D+02 DE=-6.33D-04
     ILin= 3 X=1.414D-01 Y=-1.686812003499D+02 DE=-1.24D-03
     ILin= 4 X=2.000D-01 Y=-1.686823155739D+02 DE=-2.35D-03
     ILin= 5 X=2.828D-01 Y=-1.686841910206D+02 DE=-4.23D-03
     ILin= 6 X=4.000D-01 Y=-1.686865800257D+02 DE=-6.62D-03
     ILin= 7 X=5.657D-01 Y=-1.686863558105D+02 DE=-6.39D-03
     An  expanding polynomial of degree  7 produced  0.4830
 Iteration F X= 4.830D-01 EE=-1.686872656325430D+02
     ILin= 1 X=0.000D+00 Y=-1.686799639614D+02 DE= 0.00D+00
     ILin= 2 X=1.000D-01 Y=-1.686805974329D+02 DE=-6.33D-04
     ILin= 3 X=1.414D-01 Y=-1.686812003429D+02 DE=-1.24D-03
 The two search directions are symmetric.
 Iteration B X= 4.830D-01 EE=-1.686872656325430D+02
 Take forward step, X= 4.830D-01 Step= 4.830D-01
 Iteration   1 EE= -168.687265940171                                    Grad=3.888D-02 Max rot=    0.6425 deg.
 Gradient too large for Newton-Raphson -- use scaled steepest descent instead.
 Alpha Gap=     0.513 HL deriv= 6.63D-03
  Beta Gap=     0.545 HL deriv= 4.25D-03
     ILin= 1 X=0.000D+00 Y=-1.686872659402D+02 DE= 0.00D+00 F= -2.05D-03
     ILin= 2 X=3.000D-01 Y=-1.686878116462D+02 DE=-5.46D-04 F= -1.59D-03 OKLS=F
     ILin= 3 X=6.000D-01 Y=-1.686882211177D+02 DE=-9.55D-04 F= -1.14D-03
     ILin= 4 X=1.200D+00 Y=-1.686886324932D+02 DE=-1.37D-03 F= -2.34D-04
     ILin= 5 X=2.400D+00 Y=-1.686878329899D+02 DE=-5.67D-04 F=  1.56D-03
     An  expanding polynomial of degree  5 produced  1.3555
 Iteration   2 EE= -168.688650657619     Delta-E=       -0.001384717448 Grad=2.007D-02 Max rot=    0.5207 deg.
 Gradient too large for Newton-Raphson -- use scaled steepest descent instead.
 Alpha Gap=     0.510 HL deriv= 1.39D-02
  Beta Gap=     0.539 HL deriv= 1.97D-03
     ILin= 1 X=0.000D+00 Y=-1.686886506576D+02 DE= 0.00D+00 F= -7.23D-04
     ILin= 2 X=6.000D-01 Y=-1.686889360172D+02 DE=-2.85D-04 F= -2.28D-04 OKLS=F
     ILin= 3 X=1.300D+00 Y=-1.686888931387D+02 DE=-2.42D-04 F=  3.51D-04
     An  expanding polynomial of degree  3 produced  0.8758
 Iteration   3 EE= -168.688967507372     Delta-E=       -0.000316849753 Grad=1.483D-02 Max rot=    0.2140 deg.
 Gradient too large for Newton-Raphson -- use scaled steepest descent instead.
 Alpha Gap=     0.511 HL deriv= 7.30D-03
  Beta Gap=     0.548 HL deriv= 4.28D-03
     ILin= 1 X=0.000D+00 Y=-1.686889675074D+02 DE= 0.00D+00 F= -3.18D-04
     ILin= 2 X=1.100D+00 Y=-1.686891718615D+02 DE=-2.04D-04 F= -5.38D-05 OKLS=T
     Reject lnstep IMin12=  1  2 Big=T Turn=F Min= 1.248D+00 FVal=-1.686891755275D+02 Lims=  0.00D+00  1.10D+00
     ILin= 3 X=2.200D+00 Y=-1.686890863437D+02 DE=-1.19D-04 F=  2.09D-04
     An  expanding polynomial of degree  3 produced  1.3255
 Iteration   4 EE= -168.689177909744     Delta-E=       -0.000210402372 Grad=1.339D-02 Max rot=    0.3372 deg.
 Gradient too large for Newton-Raphson -- use scaled steepest descent instead.
 Alpha Gap=     0.511 HL deriv= 1.09D-02
  Beta Gap=     0.547 HL deriv= 1.82D-03
     ILin= 1 X=0.000D+00 Y=-1.686891779097D+02 DE= 0.00D+00 F= -3.46D-04
     ILin= 2 X=1.100D+00 Y=-1.686893233803D+02 DE=-1.45D-04 F=  8.22D-05 OKLS=T
     Accept linear search using points  1 and  2.
     An  expanding polynomial of degree  2 produced  0.9180
 Iteration   5 EE= -168.689331877502     Delta-E=       -0.000153967758 Grad=1.140D-02 Max rot=    0.1666 deg.
 Gradient too large for Newton-Raphson -- use scaled steepest descent instead.
 Alpha Gap=     0.512 HL deriv= 5.43D-03
  Beta Gap=     0.554 HL deriv= 3.81D-03
     ILin= 1 X=0.000D+00 Y=-1.686893318775D+02 DE= 0.00D+00 F= -1.86D-04
     ILin= 2 X=1.100D+00 Y=-1.686894440542D+02 DE=-1.12D-04 F= -1.83D-05 OKLS=T
     Reject lnstep IMin12=  1  2 Big=T Turn=F Min= 1.185D+00 FVal=-1.686894447663D+02 Lims=  0.00D+00  1.10D+00
     ILin= 3 X=2.200D+00 Y=-1.686893723493D+02 DE=-4.05D-05 F=  1.49D-04
     An  expanding polynomial of degree  3 produced  1.2211
     Minimum is close to point  2 DX=  1.21D-01 DF= -1.11D-06 DXR=  9.91D-02 DFR=  9.93D-03 which will be used.
 Iteration   6 EE= -168.689444054197     Delta-E=       -0.000112176694 Grad=8.228D-03 Max rot=    0.2365 deg.
 QCNR:  CnvC1=3.29D-10 CnvC2=3.29D-09
 LinEq1:  Iter=  0 NonCon=     1 RMS=3.36D-04 Max=9.42D-03 NDo=     1
 AX will form     1 AO Fock derivatives at one time.
 LinEq1:  Iter=  1 NonCon=     1 RMS=1.98D-04 Max=2.25D-03 NDo=     1
 LinEq1:  Iter=  2 NonCon=     1 RMS=8.01D-06 Max=1.38D-04 NDo=     1
 LinEq1:  Iter=  3 NonCon=     1 RMS=2.73D-06 Max=4.60D-05 NDo=     1
 LinEq1:  Iter=  4 NonCon=     1 RMS=1.07D-06 Max=1.33D-05 NDo=     1
 LinEq1:  Iter=  5 NonCon=     1 RMS=2.07D-07 Max=3.01D-06 NDo=     1
 LinEq1:  Iter=  6 NonCon=     1 RMS=5.52D-08 Max=4.86D-07 NDo=     1
 LinEq1:  Iter=  7 NonCon=     1 RMS=1.87D-08 Max=1.73D-07 NDo=     1
 LinEq1:  Iter=  8 NonCon=     1 RMS=6.01D-09 Max=4.48D-08 NDo=     1
 LinEq1:  Iter=  9 NonCon=     1 RMS=1.47D-09 Max=1.38D-08 NDo=     1
 LinEq1:  Iter= 10 NonCon=     0 RMS=3.22D-10 Max=2.85D-09 NDo=     1
 Linear equations converged to 3.286D-10 3.286D-09 after    10 iterations.
 Angle between quadratic step and gradient=  49.79 degrees.
     ILin= 1 X=0.000D+00 Y=-1.686894440542D+02 DE= 0.00D+00 F= -7.31D-04
     ILin= 2 X=1.000D+00 Y=-1.686897979798D+02 DE=-3.54D-04 F=  3.71D-05 OKLS=T
     Accept linear search using points  1 and  2.
     An  expanding polynomial of degree  2 produced  0.9541
     Minimum is close to point  2 DX= -4.59D-02 DF= -8.51D-07 DXR=  4.81D-02 DFR=  2.41D-03 which will be used.
 Iteration   7 EE= -168.689797979796     Delta-E=       -0.000353925600 Grad=1.009D-03 Max rot=    0.0297 deg.
 QCNR:  CnvC1=3.29D-10 CnvC2=3.29D-09
 LinEq1:  Iter=  0 NonCon=     1 RMS=3.58D-05 Max=9.05D-04 NDo=     1
 LinEq1:  Iter=  1 NonCon=     1 RMS=9.99D-06 Max=1.36D-04 NDo=     1
 LinEq1:  Iter=  2 NonCon=     1 RMS=6.86D-06 Max=1.50D-04 NDo=     1
 LinEq1:  Iter=  3 NonCon=     1 RMS=1.52D-06 Max=1.61D-05 NDo=     1
 LinEq1:  Iter=  4 NonCon=     1 RMS=8.47D-07 Max=1.54D-05 NDo=     1
 LinEq1:  Iter=  5 NonCon=     1 RMS=2.86D-07 Max=3.12D-06 NDo=     1
 LinEq1:  Iter=  6 NonCon=     1 RMS=9.59D-08 Max=9.10D-07 NDo=     1
 LinEq1:  Iter=  7 NonCon=     1 RMS=3.08D-08 Max=2.13D-07 NDo=     1
 LinEq1:  Iter=  8 NonCon=     1 RMS=8.86D-09 Max=6.63D-08 NDo=     1
 LinEq1:  Iter=  9 NonCon=     1 RMS=2.43D-09 Max=1.72D-08 NDo=     1
 LinEq1:  Iter= 10 NonCon=     1 RMS=3.98D-10 Max=3.50D-09 NDo=     1
 LinEq1:  Iter= 11 NonCon=     0 RMS=7.13D-11 Max=4.93D-10 NDo=     1
 Linear equations converged to 3.286D-10 3.286D-09 after    11 iterations.
 Angle between quadratic step and gradient=  46.52 degrees.
     ILin= 1 X=0.000D+00 Y=-1.686897979798D+02 DE= 0.00D+00 F= -5.71D-06
     ILin= 2 X=1.000D+00 Y=-1.686898008478D+02 DE=-2.87D-06 F= -4.30D-08 OKLS=T
     Reject lnstep IMin12=  1  2 Big=T Turn=F Min= 1.008D+00 FVal=-1.686898008480D+02 Lims=  0.00D+00  1.00D+00
     ILin= 3 X=2.000D+00 Y=-1.686897980945D+02 DE=-1.15D-07 F=  5.54D-06
     An  expanding polynomial of degree  3 produced  1.0102
     Minimum is close to point  2 DX=  1.02D-02 DF= -2.93D-10 DXR=  1.01D-02 DFR=  1.02D-04 which will be used.
 Iteration   8 EE= -168.689800847847     Delta-E=       -0.000002868050 Grad=5.753D-06 Max rot=    0.0002 deg.
 QCNR:  CnvC1=5.75D-11 CnvC2=5.75D-10
 LinEq1:  Iter=  0 NonCon=     1 RMS=2.86D-07 Max=6.86D-06 NDo=     1
 LinEq1:  Iter=  1 NonCon=     1 RMS=5.45D-08 Max=4.83D-07 NDo=     1
 LinEq1:  Iter=  2 NonCon=     1 RMS=4.15D-08 Max=7.82D-07 NDo=     1
 LinEq1:  Iter=  3 NonCon=     1 RMS=9.47D-09 Max=1.39D-07 NDo=     1
 LinEq1:  Iter=  4 NonCon=     1 RMS=3.08D-09 Max=3.53D-08 NDo=     1
 LinEq1:  Iter=  5 NonCon=     1 RMS=1.31D-09 Max=1.47D-08 NDo=     1
 LinEq1:  Iter=  6 NonCon=     1 RMS=3.69D-10 Max=2.33D-09 NDo=     1
 LinEq1:  Iter=  7 NonCon=     1 RMS=1.31D-10 Max=9.21D-10 NDo=     1
 LinEq1:  Iter=  8 NonCon=     0 RMS=3.84D-11 Max=3.53D-10 NDo=     1
 Linear equations converged to 5.753D-11 5.753D-10 after     8 iterations.
 Angle between quadratic step and gradient=  32.69 degrees.
     ILin= 1 X=0.000D+00 Y=-1.686898008478D+02 DE= 0.00D+00 F= -4.87D-10
     ILin= 2 X=1.000D+00 Y=-1.686898008481D+02 DE=-2.43D-10
 Iteration   9 EE= -168.689800848090     Delta-E=       -0.000000000243 Grad=9.904D-08 Max rot=    0.0000 deg.
 Rotation gradient small -- convergence achieved.
 SCF Done:  E(UHF) =  -168.689800848     a.u. after    9 cycles
            Convg  =    0.9904D-07                    57 Fock formations.
              S**2 =  0.5197                  -V/T =  2.0026
 <Sx>= 0.0000 <Sy>= 0.0000 <Sz>= 0.0000 <S**2>= 0.5197 S= 0.3773
 <L.S>=  0.00000000000    
 Annihilation of the first spin contaminant:
 S**2 before annihilation     0.5197,   after     0.0340
 Leave Link  508 at Tue Jan  3 09:04:34 2023, MaxMem=   536870912 cpu:               0.7 elap:               0.5
 (Enter /opt/software/gaussian/g16.c01/l801.exe)
 Range of M.O.s used for correlation:     1    57
 NBasis=    57 NAE=    12 NBE=    12 NFC=     0 NFV=     0
 NROrb=     57 NOA=    12 NOB=    12 NVA=    45 NVB=    45
 Leave Link  801 at Tue Jan  3 09:04:34 2023, MaxMem=   536870912 cpu:               0.1 elap:               0.1
 (Enter /opt/software/gaussian/g16.c01/l914.exe)
 UHF ground state
 Doing stability rather than CIS.
 Keep R1 and R2 ints in memory in canonical form, NReq=3579710.
 FoFCou: FMM=F IPFlag=           0 FMFlag=           0 FMFlg1=           0
         NFxFlg=           0 DoJE=F BraDBF=F KetDBF=F FulRan=T
         wScrn=  0.000000 ICntrl=       600 IOpCl=  0 I1Cent=           0 NGrid=           0
         NMat0=    1 NMatS0=   1653 NMatT0=    0 NMatD0=    1 NMtDS0=    0 NMtDT0=    0
 Symmetry not used in FoFCou.
 Two-electron integral symmetry not used.
 MDV=   536870912 DFT=F DoStab=T Mixed=F DoRPA=F DoScal=F NonHer=F
 Making orbital integer symmetry assigments:
    12 initial guesses have been made.
 Convergence on wavefunction:    0.001000000000000
 Davidson Disk Diagonalization:  ConvIn= 1.00D-03 SkipCon=T Conv= 1.00D-03.
 Max sub-space:  2000 roots to seek:    12 dimension of matrix:         1080
 Iteration     1 Dimension    12 NMult     0 NNew     12
 CISAX will form    12 AO SS matrices at one time.
 NMat=    12 NSing=    12 JSym2X= 0.
 New state      1 was old state      2
 Excitation Energies [eV] at current iteration:
 Root      1 :     4.223872983801985
 Root      2 :     4.225492212888287
 Root      3 :     7.438086888742829
 Root      4 :     8.390936862806438
 Root      5 :     8.508798542364051
 Root      6 :     8.740561891270890
 Root      7 :     9.489722676003607
 Root      8 :     9.611878327794207
 Root      9 :     9.817480306527385
 Root     10 :    11.567091749922811
 Root     11 :    11.627447723921835
 Root     12 :    12.850412717485728
 Iteration     2 Dimension    24 NMult    12 NNew     12
 CISAX will form    12 AO SS matrices at one time.
 NMat=    12 NSing=    12 JSym2X= 0.
 New state      1 was old state      2
 Root      1 not converged, maximum delta is    0.283663375398672
 Excitation Energies [eV] at current iteration:
 Root      1 :     2.383120501973053   Change is   -1.842371710915234
 Root      2 :     3.534825171263972   Change is   -0.689047812538014
 Root      3 :     5.131193186001160   Change is   -3.259743676805277
 Root      4 :     7.072421563178776   Change is   -0.365665325564053
 Root      5 :     7.679776998391584   Change is   -0.829021543972466
 Root      6 :     8.064982349406627   Change is   -1.424740326596980
 Root      7 :     8.318649671337280   Change is   -0.421912219933609
 Root      8 :     8.698410166272007   Change is   -1.119070140255378
 Root      9 :     9.063237877466715   Change is   -0.548640450327492
 Root     10 :     9.678507624556703   Change is   -1.948940099365132
 Root     11 :     9.972731856571439   Change is   -2.877680860914289
 Root     12 :    10.783705047910697   Change is   -0.783386702012113
 Iteration     3 Dimension    27 NMult    24 NNew      3
 CISAX will form     3 AO SS matrices at one time.
 NMat=     3 NSing=     3 JSym2X= 0.
 Root      1 not converged, maximum delta is    0.042193096312868
 Excitation Energies [eV] at current iteration:
 Root      1 :     2.183252991823958   Change is   -0.199867510149095
 Root      2 :     3.509964748704797   Change is   -0.024860422559174
 Root      3 :     4.793886982008526   Change is   -0.337306203992635
 Iteration     4 Dimension    30 NMult    27 NNew      3
 CISAX will form     3 AO SS matrices at one time.
 NMat=     3 NSing=     3 JSym2X= 0.
 Root      1 not converged, maximum delta is    0.006355561582619
 Excitation Energies [eV] at current iteration:
 Root      1 :     2.167167283489552   Change is   -0.016085708334406
 Root      2 :     3.508723405031521   Change is   -0.001241343673277
 Root      3 :     4.752595360167866   Change is   -0.041291621840660
 Iteration     5 Dimension    33 NMult    30 NNew      3
 CISAX will form     3 AO SS matrices at one time.
 NMat=     3 NSing=     3 JSym2X= 0.
 Root      1 not converged, maximum delta is    0.002592349948398
 Excitation Energies [eV] at current iteration:
 Root      1 :     2.164733031216413   Change is   -0.002434252273139
 Root      2 :     3.508618885025686   Change is   -0.000104520005835
 Root      3 :     4.742881569045115   Change is   -0.009713791122751
 Iteration     6 Dimension    36 NMult    33 NNew      3
 CISAX will form     3 AO SS matrices at one time.
 NMat=     3 NSing=     3 JSym2X= 0.
 Root      1 not converged, maximum delta is    0.001588393537812
 Excitation Energies [eV] at current iteration:
 Root      1 :     2.164394699292392   Change is   -0.000338331924021
 Root      2 :     3.508610052946231   Change is   -0.000008832079455
 Root      3 :     4.741572368019461   Change is   -0.001309201025653
 Iteration     7 Dimension    39 NMult    36 NNew      3
 CISAX will form     3 AO SS matrices at one time.
 NMat=     3 NSing=     3 JSym2X= 0.
 Root      1 has converged.
 Excitation Energies [eV] at current iteration:
 Root      1 :     2.164367617009625   Change is   -0.000027082282767
 Root      2 :     3.508609269213789   Change is   -0.000000783732442
 Root      3 :     4.741421917804356   Change is   -0.000150450215105
 Convergence achieved on expansion vectors.
 ***********************************************************************
 Stability analysis using <AA,BB:AA,BB> singles matrix:
 ***********************************************************************
 1PDM for each excited state written to RWF  633
 Ground to excited state transition densities written to RWF  633

 Eigenvectors of the stability matrix:
 
 Excited state symmetry could not be determined.
 Eigenvector   1:  2.143-?Sym  Eigenvalue= 0.0795390  <S**2>=0.898
      9A -> 14A        0.26074
     12A -> 14A        0.88190
     12B -> 13B       -0.26641
 The wavefunction is stable under the perturbations considered.
 Leave Link  914 at Tue Jan  3 09:04:34 2023, MaxMem=   536870912 cpu:               0.5 elap:               0.3
 (Enter /opt/software/gaussian/g16.c01/l508.exe)
 The wavefunction is already stable.
 Leave Link  508 at Tue Jan  3 09:04:34 2023, MaxMem=   536870912 cpu:               0.0 elap:               0.0
 (Enter /opt/software/gaussian/g16.c01/l601.exe)
 Copying SCF densities to generalized density rwf, IOpCl= 1 IROHF=0.

 **********************************************************************

            Population analysis using the SCF Density.

 **********************************************************************

 Alpha  occ. eigenvalues --  -20.52715 -15.69376 -11.28613  -1.42793  -1.13023
 Alpha  occ. eigenvalues --   -0.88063  -0.74387  -0.66331  -0.58778  -0.58355
 Alpha  occ. eigenvalues --   -0.43665  -0.33811
 Alpha virt. eigenvalues --    0.16390   0.16564   0.20926   0.25102   0.37438
 Alpha virt. eigenvalues --    0.48595   0.58592   0.64797   0.71966   0.78849
 Alpha virt. eigenvalues --    0.83383   0.87156   0.91920   0.99373   1.02473
 Alpha virt. eigenvalues --    1.21095   1.22233   1.33993   1.35357   1.40162
 Alpha virt. eigenvalues --    1.48825   1.53274   1.59896   1.77873   1.78655
 Alpha virt. eigenvalues --    1.90577   2.09812   2.15448   2.20015   2.22112
 Alpha virt. eigenvalues --    2.37583   2.40497   2.62983   2.65961   2.85269
 Alpha virt. eigenvalues --    2.86947   3.00500   3.10274   3.16192   3.20164
 Alpha virt. eigenvalues --    3.35540   3.60816   3.61436   3.90119   4.18152
  Beta  occ. eigenvalues --  -20.54968 -15.70687 -11.26653  -1.46496  -1.15011
  Beta  occ. eigenvalues --   -0.87130  -0.73888  -0.67519  -0.67454  -0.58188
  Beta  occ. eigenvalues --   -0.45774  -0.41029
  Beta virt. eigenvalues --    0.15191   0.16347   0.21892   0.25357   0.38369
  Beta virt. eigenvalues --    0.46933   0.60265   0.71611   0.74338   0.80152
  Beta virt. eigenvalues --    0.84945   0.88191   0.91873   0.98404   0.99085
  Beta virt. eigenvalues --    1.20338   1.21114   1.25540   1.34500   1.43024
  Beta virt. eigenvalues --    1.48467   1.54118   1.59090   1.77751   1.78710
  Beta virt. eigenvalues --    1.91343   2.10552   2.16434   2.20363   2.24362
  Beta virt. eigenvalues --    2.37406   2.41628   2.63538   2.65992   2.83707
  Beta virt. eigenvalues --    2.86067   2.96475   3.09250   3.12065   3.20261
  Beta virt. eigenvalues --    3.35508   3.56298   3.60343   3.89321   4.16971
          Condensed to atoms (all electrons):
               1          2          3          4          5          6
     1  C    4.865332   0.433940  -0.041992  -0.062971   0.405469   0.407312
     2  N    0.433940   5.918903   0.374475   0.200776  -0.024793  -0.018338
     3  H   -0.041992   0.374475   0.540373  -0.037385  -0.003933   0.006396
     4  O   -0.062971   0.200776  -0.037385   8.321227   0.003478   0.004267
     5  H    0.405469  -0.024793  -0.003933   0.003478   0.575109  -0.025359
     6  H    0.407312  -0.018338   0.006396   0.004267  -0.025359   0.536376
          Atomic-Atomic Spin Densities.
               1          2          3          4          5          6
     1  C    1.029217  -0.107327  -0.004932  -0.015524   0.002598   0.000990
     2  N   -0.107327  -0.439836   0.000092   0.193939  -0.003226  -0.003683
     3  H   -0.004932   0.000092   0.030542  -0.001079   0.000722   0.000041
     4  O   -0.015524   0.193939  -0.001079  -0.608612  -0.000243   0.001508
     5  H    0.002598  -0.003226   0.000722  -0.000243  -0.072108   0.001105
     6  H    0.000990  -0.003683   0.000041   0.001508   0.001105  -0.069166
 Mulliken charges and spin densities:
               1          2
     1  C   -0.007089   0.905022
     2  N    0.115037  -0.360042
     3  H    0.162066   0.025387
     4  O   -0.429391  -0.430011
     5  H    0.070030  -0.071151
     6  H    0.089347  -0.069204
 Sum of Mulliken charges =   0.00000   0.00000
 Mulliken charges and spin densities with hydrogens summed into heavy atoms:
               1          2
     1  C    0.152288   0.764666
     2  N    0.277104  -0.334655
     4  O   -0.429391  -0.430011
 Electronic spatial extent (au):  <R**2>=            515.8132
 Charge=              0.0000 electrons
 Dipole moment (field-independent basis, Debye):
    X=             -2.0209    Y=              0.6997    Z=             -3.0342  Tot=              3.7122
 Quadrupole moment (field-independent basis, Debye-Ang):
   XX=            -26.1506   YY=            -18.8122   ZZ=            -18.7165
   XY=              2.2772   XZ=             -9.5379   YZ=              0.1061
 Traceless Quadrupole moment (field-independent basis, Debye-Ang):
   XX=             -4.9242   YY=              2.4142   ZZ=              2.5099
   XY=              2.2772   XZ=             -9.5379   YZ=              0.1061
 Octapole moment (field-independent basis, Debye-Ang**2):
  XXX=           -134.5722  YYY=              6.5394  ZZZ=            -23.1076  XYY=            -35.9001
  XXY=              9.1073  XXZ=            -35.1426  XZZ=            -40.2738  YZZ=              3.1620
  YYZ=             -6.4883  XYZ=              1.4728
 Hexadecapole moment (field-independent basis, Debye-Ang**3):
 XXXX=           -619.8588 YYYY=            -20.0443 ZZZZ=            -64.9329 XXXY=             37.5498
 XXXZ=           -140.4488 YYYX=             16.5592 YYYZ=              6.2075 ZZZX=            -65.7326
 ZZZY=              6.5621 XXYY=            -90.8827 XXZZ=           -113.0998 YYZZ=            -14.1262
 XXYZ=              6.9196 YYXZ=            -18.5226 ZZXY=              8.5107
 N-N= 7.235265144198D+01 E-N=-5.414845329119D+02  KE= 1.682467024766D+02
                          Isotropic Fermi Contact Couplings
        Atom                 a.u.       MegaHertz       Gauss      10(-4) cm-1
     1  C(13)              0.23990     134.84756      48.11696      44.98030
     2  N(14)             -0.19702     -31.82939     -11.35752     -10.61714
     3  H(1)               0.01095      24.46158       8.72850       8.15950
     4  O(17)             -0.32673      99.03208      35.33711      33.03354
     5  H(1)              -0.02050     -45.82539     -16.35164     -15.28570
     6  H(1)              -0.02068     -46.21096     -16.48922     -15.41432
 --------------------------------------------------------
       Center         ----  Spin Dipole Couplings  ----
                      3XX-RR        3YY-RR        3ZZ-RR
 --------------------------------------------------------
     1   Atom       -0.440600      0.764882     -0.324282
     2   Atom        0.378868     -0.681537      0.302669
     3   Atom        0.031324      0.006200     -0.037524
     4   Atom        0.968298     -1.826629      0.858331
     5   Atom       -0.044682      0.004736      0.039947
     6   Atom       -0.040602      0.004969      0.035633
 --------------------------------------------------------
                        XY            XZ            YZ
 --------------------------------------------------------
     1   Atom        0.000980     -0.004295      0.265295
     2   Atom       -0.002590      0.011137     -0.239745
     3   Atom       -0.005664      0.024555      0.010651
     4   Atom       -0.016739      0.072456     -0.654037
     5   Atom       -0.008329      0.036121     -0.008574
     6   Atom        0.010273     -0.044540     -0.007472
 --------------------------------------------------------


 ---------------------------------------------------------------------------------
              Anisotropic Spin Dipole Couplings in Principal Axis System
 ---------------------------------------------------------------------------------

       Atom             a.u.   MegaHertz   Gauss  10(-4) cm-1        Axes

              Baa    -0.4409   -59.171   -21.114   -19.737  0.9969 -0.0178  0.0771
     1 C(13)  Bbb    -0.3851   -51.679   -18.440   -17.238 -0.0791 -0.2240  0.9714
              Bcc     0.8261   110.850    39.554    36.976 -0.0000  0.9744  0.2247
 
              Baa    -0.7368   -28.418   -10.140    -9.479  0.0000  0.9744  0.2247
     2 N(14)  Bbb     0.3529    13.611     4.857     4.540 -0.4033 -0.2056  0.8917
              Bcc     0.3839    14.806     5.283     4.939  0.9151 -0.0906  0.3930
 
              Baa    -0.0480   -25.604    -9.136    -8.540 -0.3028 -0.2142  0.9287
     3 H(1)   Bbb     0.0087     4.619     1.648     1.541  0.0000  0.9744  0.2248
              Bcc     0.0393    20.985     7.488     7.000  0.9531 -0.0681  0.2951
 
              Baa    -1.9775   143.089    51.058    47.729  0.0000  0.9744  0.2247
     4 O(17)  Bbb     0.9116   -65.964   -23.538   -22.003  0.7953  0.1362 -0.5907
              Bcc     1.0659   -77.125   -27.520   -25.726  0.6062 -0.1787  0.7750
 
              Baa    -0.0584   -31.150   -11.115   -10.390  0.9380  0.0779 -0.3378
     5 H(1)   Bbb     0.0028     1.472     0.525     0.491 -0.0000  0.9744  0.2247
              Bcc     0.0556    29.677    10.590     9.899  0.3466 -0.2107  0.9140
 
              Baa    -0.0617   -32.918   -11.746   -10.980  0.9080 -0.0942  0.4083
     6 H(1)   Bbb     0.0032     1.732     0.618     0.578 -0.0000  0.9744  0.2248
              Bcc     0.0584    31.186    11.128    10.403 -0.4190 -0.2041  0.8847
 

 ---------------------------------------------------------------------------------

 No NMR shielding tensors so no spin-rotation constants.
 Leave Link  601 at Tue Jan  3 09:04:34 2023, MaxMem=   536870912 cpu:               0.3 elap:               0.2
 (Enter /opt/software/gaussian/g16.c01/l9999.exe)

 Test job not archived.
 1\1\GINC-GRA634\Stability\UHF\Gen\C1H3N1O1\BHAVUK\03-Jan-2023\0\\#p uh
 f/gen stable=opt scf=(maxcycle=900,verytightlineq,xqc) integral=grid=u
 ltrafine symmetry=None density=current iop(99/18=-1) output=wfn\\0002_
 q000_m01_k00_opt_uwb97xd_def2svpd/0002_q000_m01_k00_force_uhf_def2svp 
 stable-force\\0,1\C,0,0.9341359983,-0.0506101672,0.0533916633\N,0,2.23
 03561638,-0.0607282973,0.0971529523\H,0,2.7104299206,0.1445551233,-0.7
 929401941\O,0,2.9768985022,-0.2863976361,1.0755945973\H,0,0.4602474304
 ,0.169181767,-0.8998201368\H,0,0.383341983,-0.2613407898,0.9669611147\
 \Version=ES64L-G16RevC.01\HF=-168.6898008\S2=0.519716\S2-1=0.\S2A=0.03
 3964\RMSD=3.014e-09\Dipole=-0.7950881,0.2752984,-1.1937515\Quadrupole=
 -3.6609889,1.7949065,1.8660823,1.6930614,-7.0911991,0.0788591\PG=Unkno
 wn\\@

 Writing a WFN file to "0002_q000_m01_k00_force_uhf_def2svp.wfn"


 THERE IS SOMETHING FASCINATING ABOUT SCIENCE.
 ONE GETS SUCH WHOLESALE CONJECTURE OUT OF SUCH TRIFLING INVESTMENTS.

                                                       -- MARK TWAIN
 Job cpu time:       0 days  0 hours  0 minutes  5.6 seconds.
 Elapsed time:       0 days  0 hours  0 minutes  3.2 seconds.
 File lengths (MBytes):  RWF=     47 Int=      0 D2E=      0 Chk=      2 Scr=      1
 Normal termination of Gaussian 16 at Tue Jan  3 09:04:34 2023.
 Initial command:
 /opt/software/gaussian/g16.c01/l1.exe "/localscratch/bhavuk.2151360.0/Gau-717.inp" -scrdir="/localscratch/bhavuk.2151360.0/"
 Entering Link 1 = /opt/software/gaussian/g16.c01/l1.exe PID=       780.
  
 Copyright (c) 1988-2019, Gaussian, Inc.  All Rights Reserved.
  
 This is part of the Gaussian(R) 16 program.  It is based on
 the Gaussian(R) 09 system (copyright 2009, Gaussian, Inc.),
 the Gaussian(R) 03 system (copyright 2003, Gaussian, Inc.),
 the Gaussian(R) 98 system (copyright 1998, Gaussian, Inc.),
 the Gaussian(R) 94 system (copyright 1995, Gaussian, Inc.),
 the Gaussian 92(TM) system (copyright 1992, Gaussian, Inc.),
 the Gaussian 90(TM) system (copyright 1990, Gaussian, Inc.),
 the Gaussian 88(TM) system (copyright 1988, Gaussian, Inc.),
 the Gaussian 86(TM) system (copyright 1986, Carnegie Mellon
 University), and the Gaussian 82(TM) system (copyright 1983,
 Carnegie Mellon University). Gaussian is a federally registered
 trademark of Gaussian, Inc.
  
 This software contains proprietary and confidential information,
 including trade secrets, belonging to Gaussian, Inc.
  
 This software is provided under written license and may be
 used, copied, transmitted, or stored only in accord with that
 written license.
  
 The following legend is applicable only to US Government
 contracts under FAR:
  
                    RESTRICTED RIGHTS LEGEND
  
 Use, reproduction and disclosure by the US Government is
 subject to restrictions as set forth in subparagraphs (a)
 and (c) of the Commercial Computer Software - Restricted
 Rights clause in FAR 52.227-19.
  
 Gaussian, Inc.
 340 Quinnipiac St., Bldg. 40, Wallingford CT 06492
  
  
 ---------------------------------------------------------------
 Warning -- This program may not be used in any manner that
 competes with the business of Gaussian, Inc. or will provide
 assistance to any competitor of Gaussian, Inc.  The licensee
 of this program is prohibited from giving any competitor of
 Gaussian, Inc. access to this program.  By using this program,
 the user acknowledges that Gaussian, Inc. is engaged in the
 business of creating and licensing software in the field of
 computational chemistry and represents and warrants to the
 licensee that it is not a competitor of Gaussian, Inc. and that
 it will not use this program in any manner prohibited above.
 ---------------------------------------------------------------
  

 Cite this work as:
 Gaussian 16, Revision C.01,
 M. J. Frisch, G. W. Trucks, H. B. Schlegel, G. E. Scuseria, 
 M. A. Robb, J. R. Cheeseman, G. Scalmani, V. Barone, 
 G. A. Petersson, H. Nakatsuji, X. Li, M. Caricato, A. V. Marenich, 
 J. Bloino, B. G. Janesko, R. Gomperts, B. Mennucci, H. P. Hratchian, 
 J. V. Ortiz, A. F. Izmaylov, J. L. Sonnenberg, D. Williams-Young, 
 F. Ding, F. Lipparini, F. Egidi, J. Goings, B. Peng, A. Petrone, 
 T. Henderson, D. Ranasinghe, V. G. Zakrzewski, J. Gao, N. Rega, 
 G. Zheng, W. Liang, M. Hada, M. Ehara, K. Toyota, R. Fukuda, 
 J. Hasegawa, M. Ishida, T. Nakajima, Y. Honda, O. Kitao, H. Nakai, 
 T. Vreven, K. Throssell, J. A. Montgomery, Jr., J. E. Peralta, 
 F. Ogliaro, M. J. Bearpark, J. J. Heyd, E. N. Brothers, K. N. Kudin, 
 V. N. Staroverov, T. A. Keith, R. Kobayashi, J. Normand, 
 K. Raghavachari, A. P. Rendell, J. C. Burant, S. S. Iyengar, 
 J. Tomasi, M. Cossi, J. M. Millam, M. Klene, C. Adamo, R. Cammi, 
 J. W. Ochterski, R. L. Martin, K. Morokuma, O. Farkas, 
 J. B. Foresman, and D. J. Fox, Gaussian, Inc., Wallingford CT, 2019.
 
 ******************************************
 Gaussian 16:  ES64L-G16RevC.01  3-Jul-2019
                 3-Jan-2023 
 ******************************************
 %chk=0002_q000_m01_k00_force_uhf_def2svp.chk
 %nprocshared=2
 Will use up to    2 processors via shared memory.
 %mem=4GB
 ----------------------------------------------------------------------
 #p uhf/chkbasis force guess=read geom=check scf=(maxcycle=900,verytigh
 tlineq,xqc) integral=grid=ultrafine symmetry=None density=current pop=
 (cm5,hlygat,mbs,npa) output=wfx
 ----------------------------------------------------------------------
 1/10=7,29=2,30=1,38=1/1,3;
 2/12=2,15=3,40=1/2;
 3/5=7,6=2,11=2,14=-4,25=1,30=1,67=1,71=1,75=-5,116=2/1,2,3;
 4/5=1/1;
 5/5=2,7=900,8=3,13=1,17=3,38=6/2,8;
 6/7=2,8=2,9=2,10=2,15=8,20=15,22=-1,27=100,28=1,40=-1,79=1/1,2,7;
 7/29=1,30=1/1,2,3,16;
 1/10=7,30=1/3;
 99/6=200/99;
 Leave Link    1 at Tue Jan  3 09:04:35 2023, MaxMem=   536870912 cpu:               0.2 elap:               0.1
 (Enter /opt/software/gaussian/g16.c01/l101.exe)
 ----------------------------------------------------------------------
 0002_q000_m01_k00_opt_uwb97xd_def2svpd/0002_q000_m01_k00_force_uhf_def
 2svp stable-force
 ----------------------------------------------------------------------
 Structure from the checkpoint file:  "0002_q000_m01_k00_force_uhf_def2svp.chk"
 Charge =  0 Multiplicity = 1
 Z-Matrix found in chk file.
 C,0,0.9341359983,-0.0506101672,0.0533916633
 N,0,2.2303561638,-0.0607282973,0.0971529523
 H,0,2.7104299206,0.1445551233,-0.7929401941
 O,0,2.9768985022,-0.2863976361,1.0755945973
 H,0,0.4602474304,0.169181767,-0.8998201368
 H,0,0.383341983,-0.2613407898,0.9669611147
 Recover connectivity data from disk.
 ITRead=  0  0  0  0  0  0
 MicOpt= -1 -1 -1 -1 -1 -1
 NAtoms=      6 NQM=        6 NQMF=       0 NMMI=      0 NMMIF=      0
                NMic=       0 NMicF=      0.
                    Isotopes and Nuclear Properties:
 (Nuclear quadrupole moments (NQMom) in fm**2, nuclear magnetic moments (NMagM)
  in nuclear magnetons)

  Atom         1           2           3           4           5           6
 IAtWgt=          12          14           1          16           1           1
 AtmWgt=  12.0000000  14.0030740   1.0078250  15.9949146   1.0078250   1.0078250
 NucSpn=           0           2           1           0           1           1
 AtZEff=   3.6000000   4.5500000   1.0000000   5.6000000   1.0000000   1.0000000
 NQMom=    0.0000000   2.0440000   0.0000000   0.0000000   0.0000000   0.0000000
 NMagM=    0.0000000   0.4037610   2.7928460   0.0000000   2.7928460   2.7928460
 AtZNuc=   6.0000000   7.0000000   1.0000000   8.0000000   1.0000000   1.0000000
 Leave Link  101 at Tue Jan  3 09:04:35 2023, MaxMem=   536870912 cpu:               0.3 elap:               0.2
 (Enter /opt/software/gaussian/g16.c01/l103.exe)

 GradGradGradGradGradGradGradGradGradGradGradGradGradGradGradGradGradGrad
 Berny optimization.
 Initialization pass.
 Trust Radius=3.00D-01 FncErr=1.00D-07 GrdErr=1.00D-07 EigMax=2.50D+02 EigMin=1.00D-04
 Number of steps in this run=      2 maximum allowed number of steps=      2.
 GradGradGradGradGradGradGradGradGradGradGradGradGradGradGradGradGradGrad

 Leave Link  103 at Tue Jan  3 09:04:35 2023, MaxMem=   536870912 cpu:               0.1 elap:               0.0
 (Enter /opt/software/gaussian/g16.c01/l202.exe)
                          Input orientation:                          
 ---------------------------------------------------------------------
 Center     Atomic      Atomic             Coordinates (Angstroms)
 Number     Number       Type             X           Y           Z
 ---------------------------------------------------------------------
      1          6           0        0.934136   -0.050610    0.053392
      2          7           0        2.230356   -0.060728    0.097153
      3          1           0        2.710430    0.144555   -0.792940
      4          8           0        2.976899   -0.286398    1.075595
      5          1           0        0.460247    0.169182   -0.899820
      6          1           0        0.383342   -0.261341    0.966961
 ---------------------------------------------------------------------
                    Distance matrix (angstroms):
                    1          2          3          4          5
     1  C    0.000000
     2  N    1.296998   0.000000
     3  H    1.977268   1.031929   0.000000
     4  O    2.296383   1.251239   1.936013   0.000000
     5  H    1.086964   2.044529   2.252854   3.231617   0.000000
     6  H    1.087378   2.051408   2.945733   2.595952   1.917325
                    6
     6  H    0.000000
 Symmetry turned off by external request.
 Stoichiometry    CH3NO
 Rotational constants (GHZ):          75.8819039          11.9122881          10.2959784
 Leave Link  202 at Tue Jan  3 09:04:35 2023, MaxMem=   536870912 cpu:               0.0 elap:               0.0
 (Enter /opt/software/gaussian/g16.c01/l301.exe)
 Basis read from chk: "0002_q000_m01_k00_force_uhf_def2svp.chk" (5D, 7F)
 No pseudopotential information found on chk file.
    57 basis functions,    96 primitive gaussians,    60 cartesian basis functions
    12 alpha electrons       12 beta electrons
       nuclear repulsion energy        72.3526514420 Hartrees.
 IExCor=    0 DFT=F Ex=HF Corr=None ExCW=0 ScaHFX=  1.000000
 ScaDFX=  1.000000  1.000000  1.000000  1.000000 ScalE2=  1.000000  1.000000
 IRadAn=      5 IRanWt=     -1 IRanGd=            0 ICorTp=0 IEmpDi=  4
 NAtoms=    6 NActive=    6 NUniq=    6 SFac= 1.00D+00 NAtFMM=   60 NAOKFM=F Big=F
 Integral buffers will be    131072 words long.
 Raffenetti 2 integral format.
 Two-electron integral symmetry is turned off.
 No density basis found on file  20724.
 Leave Link  301 at Tue Jan  3 09:04:35 2023, MaxMem=   536870912 cpu:               0.2 elap:               0.1
 (Enter /opt/software/gaussian/g16.c01/l302.exe)
 NPDir=0 NMtPBC=     1 NCelOv=     1 NCel=       1 NClECP=     1 NCelD=      1
         NCelK=      1 NCelE2=     1 NClLst=     1 CellRange=     0.0.
 One-electron integrals computed using PRISM.
 NBasis=    57 RedAO= T EigKep=  7.17D-03  NBF=    57
 NBsUse=    57 1.00D-06 EigRej= -1.00D+00 NBFU=    57
 Leave Link  302 at Tue Jan  3 09:04:35 2023, MaxMem=   536870912 cpu:               0.3 elap:               0.1
 (Enter /opt/software/gaussian/g16.c01/l303.exe)
 DipDrv:  MaxL=1.
 Leave Link  303 at Tue Jan  3 09:04:35 2023, MaxMem=   536870912 cpu:               0.1 elap:               0.1
 (Enter /opt/software/gaussian/g16.c01/l401.exe)
 Initial guess from the checkpoint file:  "0002_q000_m01_k00_force_uhf_def2svp.chk"
 B after Tr=     0.000000    0.000000    0.000000
         Rot=    1.000000    0.000000    0.000000    0.000000 Ang=   0.00 deg.
 Guess basis will be translated and rotated to current coordinates.
 JPrj=2 DoOrth=T DoCkMO=T.
 Initial guess <Sx>= 0.0000 <Sy>= 0.0000 <Sz>= 0.0000 <S**2>= 0.5197 S= 0.3773
 Leave Link  401 at Tue Jan  3 09:04:35 2023, MaxMem=   536870912 cpu:               0.2 elap:               0.1
 (Enter /opt/software/gaussian/g16.c01/l502.exe)
 Keep R1 and R2 ints in memory in canonical form, NReq=3579370.
 FoFCou: FMM=F IPFlag=           0 FMFlag=           0 FMFlg1=           0
         NFxFlg=           0 DoJE=F BraDBF=F KetDBF=F FulRan=T
         wScrn=  0.000000 ICntrl=       600 IOpCl=  0 I1Cent=           0 NGrid=           0
         NMat0=    1 NMatS0=   1653 NMatT0=    0 NMatD0=    1 NMtDS0=    0 NMtDT0=    0
 Symmetry not used in FoFCou.
 Two-electron integral symmetry not used.
 UHF open shell SCF:
 Using DIIS extrapolation, IDIIS=  1040.
 NGot=   536870912 LenX=   534128512 LenY=   534124471
 Requested convergence on RMS density matrix=1.00D-08 within 128 cycles.
 Requested convergence on MAX density matrix=1.00D-06.
 Requested convergence on             energy=1.00D-06.
 No special actions if energy rises.

 Cycle   1  Pass 1  IDiag  1:
 E= -168.689800848187    
 DIIS: error= 9.29D-09 at cycle   1 NSaved=   1.
 NSaved= 1 IEnMin= 1 EnMin= -168.689800848187     IErMin= 1 ErrMin= 9.29D-09
 ErrMax= 9.29D-09  0.00D+00 EMaxC= 1.00D-01 BMatC= 1.96D-14 BMatP= 1.96D-14
 IDIUse=1 WtCom= 1.00D+00 WtEn= 0.00D+00
 Coeff-Com:  0.100D+01
 Coeff:      0.100D+01
 Gap=     0.502 Goal=   None    Shift=    0.000
 Gap=     0.562 Goal=   None    Shift=    0.000
 RMSDP=1.38D-09 MaxDP=2.44D-08              OVMax= 2.27D-08

 SCF Done:  E(UHF) =  -168.689800848     A.U. after    1 cycles
            NFock=  1  Conv=0.14D-08     -V/T= 2.0026
 <Sx>= 0.0000 <Sy>= 0.0000 <Sz>= 0.0000 <S**2>= 0.5197 S= 0.3773
 <L.S>=  0.00000000000    
 KE= 1.682467029309D+02 PE=-5.414845333686D+02 EE= 1.321953781476D+02
 Annihilation of the first spin contaminant:
 S**2 before annihilation     0.5197,   after     0.0340
 Leave Link  502 at Tue Jan  3 09:04:36 2023, MaxMem=   536870912 cpu:               0.4 elap:               0.2
 (Enter /opt/software/gaussian/g16.c01/l508.exe)
 QCSCF skips out because SCF is already converged.
 Leave Link  508 at Tue Jan  3 09:04:36 2023, MaxMem=   536870912 cpu:               0.0 elap:               0.0
 (Enter /opt/software/gaussian/g16.c01/l601.exe)
 Copying SCF densities to generalized density rwf, IOpCl= 1 IROHF=0.

 **********************************************************************

            Population analysis using the SCF Density.

 **********************************************************************

 Alpha  occ. eigenvalues --  -20.52715 -15.69376 -11.28613  -1.42793  -1.13023
 Alpha  occ. eigenvalues --   -0.88063  -0.74387  -0.66331  -0.58778  -0.58355
 Alpha  occ. eigenvalues --   -0.43665  -0.33811
 Alpha virt. eigenvalues --    0.16390   0.16564   0.20926   0.25102   0.37438
 Alpha virt. eigenvalues --    0.48595   0.58592   0.64797   0.71966   0.78849
 Alpha virt. eigenvalues --    0.83383   0.87156   0.91920   0.99373   1.02473
 Alpha virt. eigenvalues --    1.21095   1.22233   1.33993   1.35357   1.40162
 Alpha virt. eigenvalues --    1.48825   1.53274   1.59896   1.77873   1.78655
 Alpha virt. eigenvalues --    1.90577   2.09812   2.15448   2.20015   2.22112
 Alpha virt. eigenvalues --    2.37583   2.40497   2.62983   2.65961   2.85269
 Alpha virt. eigenvalues --    2.86947   3.00500   3.10274   3.16192   3.20164
 Alpha virt. eigenvalues --    3.35540   3.60816   3.61436   3.90119   4.18152
  Beta  occ. eigenvalues --  -20.54968 -15.70687 -11.26653  -1.46496  -1.15011
  Beta  occ. eigenvalues --   -0.87130  -0.73888  -0.67519  -0.67454  -0.58188
  Beta  occ. eigenvalues --   -0.45774  -0.41029
[...]
   * Total *   -0.00000      2.99924     8.94868    0.05209    12.00000

                                 Natural Population      
 --------------------------------------------------------
   Core                       2.99924 ( 99.9746% of   3)
   Valence                    8.94868 ( 99.4297% of   9)
   Natural Minimal Basis     11.94791 ( 99.5659% of  12)
   Natural Rydberg Basis      0.05209 (  0.4341% of  12)
 --------------------------------------------------------

    Atom  No          Natural Electron Configuration
 ----------------------------------------------------------------------------
      C    1      [core]2S( 0.54)2p( 1.90)3p( 0.01)
      N    2      [core]2S( 0.58)2p( 1.81)3p( 0.01)3d( 0.01)
      H    3            1S( 0.32)
      O    4      [core]2S( 0.86)2p( 2.16)
      H    5            1S( 0.39)
      H    6            1S( 0.39)


 NBO analysis skipped by request.


 ***************************************************
 *******         Beta  spin orbitals         *******
 ***************************************************


 NATURAL POPULATIONS:  Natural atomic orbital occupancies 
                                                          
   NAO  Atom  No  lang   Type(AO)    Occupancy      Energy
 ----------------------------------------------------------
     1    C    1  S      Cor( 1S)     0.99968     -11.15057
     2    C    1  S      Val( 2S)     0.48196      -0.14890
     3    C    1  S      Ryd( 3S)     0.00128       0.63814
     4    C    1  px     Val( 2p)     0.42268       0.05926
     5    C    1  px     Ryd( 3p)     0.00424       0.60461
     6    C    1  py     Val( 2p)     0.20892       0.08904
     7    C    1  py     Ryd( 3p)     0.00052       0.71489
     8    C    1  pz     Val( 2p)     0.55125       0.00044
     9    C    1  pz     Ryd( 3p)     0.00186       0.95932
    10    C    1  dxy    Ryd( 3d)     0.00135       2.29073
    11    C    1  dxz    Ryd( 3d)     0.00046       2.81974
    12    C    1  dyz    Ryd( 3d)     0.00015       2.27912
    13    C    1  dx2y2  Ryd( 3d)     0.00092       2.53304
    14    C    1  dz2    Ryd( 3d)     0.00086       2.69447
 
    15    N    2  S      Cor( 1S)     0.99964     -15.55199
    16    N    2  S      Val( 2S)     0.60248      -0.62486
    17    N    2  S      Ryd( 3S)     0.00255       1.02567
    18    N    2  px     Val( 2p)     0.65311      -0.33000
    19    N    2  px     Ryd( 3p)     0.00302       1.10845
    20    N    2  py     Val( 2p)     0.81629      -0.42034
    21    N    2  py     Ryd( 3p)     0.00168       0.99513
    22    N    2  pz     Val( 2p)     0.61668      -0.27466
    23    N    2  pz     Ryd( 3p)     0.00270       1.33289
    24    N    2  dxy    Ryd( 3d)     0.00125       2.66051
    25    N    2  dxz    Ryd( 3d)     0.00116       3.25133
    26    N    2  dyz    Ryd( 3d)     0.00080       2.65324
    27    N    2  dx2y2  Ryd( 3d)     0.00067       3.05824
    28    N    2  dz2    Ryd( 3d)     0.00151       3.02034
 
    29    H    3  S      Val( 1S)     0.30351       0.17726
    30    H    3  S      Ryd( 2S)     0.00183       0.45864
    31    H    3  px     Ryd( 2p)     0.00033       2.29921
    32    H    3  py     Ryd( 2p)     0.00029       1.89137
    33    H    3  pz     Ryd( 2p)     0.00083       2.49077
 
    34    O    4  S      Cor( 1S)     0.99990     -20.34851
    35    O    4  S      Val( 2S)     0.87651      -1.11430
    36    O    4  S      Ryd( 3S)     0.00179       1.44371
    37    O    4  px     Val( 2p)     0.84816      -0.38128
    38    O    4  px     Ryd( 3p)     0.00156       1.34261
    39    O    4  py     Val( 2p)     0.96208      -0.49420
    40    O    4  py     Ryd( 3p)     0.00270       1.26166
    41    O    4  pz     Val( 2p)     0.75913      -0.32498
    42    O    4  pz     Ryd( 3p)     0.00109       1.33602
    43    O    4  dxy    Ryd( 3d)     0.00029       3.07573
    44    O    4  dxz    Ryd( 3d)     0.00091       3.54421
    45    O    4  dyz    Ryd( 3d)     0.00049       3.14143
    46    O    4  dx2y2  Ryd( 3d)     0.00037       3.12065
    47    O    4  dz2    Ryd( 3d)     0.00074       3.32714
 
    48    H    5  S      Val( 1S)     0.43083       0.08444
    49    H    5  S      Ryd( 2S)     0.00037       0.40128
    50    H    5  px     Ryd( 2p)     0.00019       2.12836
    51    H    5  py     Ryd( 2p)     0.00004       1.88298
    52    H    5  pz     Ryd( 2p)     0.00053       2.49125
 
    53    H    6  S      Val( 1S)     0.42429       0.10750
    54    H    6  S      Ryd( 2S)     0.00083       0.40826
    55    H    6  px     Ryd( 2p)     0.00018       2.18958
    56    H    6  py     Ryd( 2p)     0.00003       1.89523
    57    H    6  pz     Ryd( 2p)     0.00054       2.46361


 Summary of Natural Population Analysis:                  
                                                          
                                       Natural Population 
                Natural  -----------------------------------------------
    Atom  No    Charge         Core      Valence    Rydberg      Total
 -----------------------------------------------------------------------
      C    1    0.32386      0.99968     1.66481    0.01165     2.67614
      N    2   -0.20354      0.99964     2.68856    0.01534     3.70354
      H    3    0.19323      0.00000     0.30351    0.00327     0.30677
      O    4   -0.45572      0.99990     3.44589    0.00993     4.45572
      H    5    0.06804      0.00000     0.43083    0.00114     0.43196
      H    6    0.07413      0.00000     0.42429    0.00158     0.42587
 =======================================================================
   * Total *   -0.00000      2.99921     8.95788    0.04291    12.00000

                                 Natural Population      
 --------------------------------------------------------
   Core                       2.99921 ( 99.9737% of   3)
   Valence                    8.95788 ( 99.5320% of   9)
   Natural Minimal Basis     11.95709 ( 99.6424% of  12)
   Natural Rydberg Basis      0.04291 (  0.3576% of  12)
 --------------------------------------------------------

    Atom  No          Natural Electron Configuration
 ----------------------------------------------------------------------------
      C    1      [core]2S( 0.48)2p( 1.18)3p( 0.01)
      N    2      [core]2S( 0.60)2p( 2.09)3p( 0.01)3d( 0.01)
      H    3            1S( 0.30)
      O    4      [core]2S( 0.88)2p( 2.57)3p( 0.01)
      H    5            1S( 0.43)
      H    6            1S( 0.42)


 NBO analysis skipped by request.
 Leave Link  607 at Tue Jan  3 09:04:38 2023, MaxMem=   536870912 cpu:               3.5 elap:               1.8
 (Enter /opt/software/gaussian/g16.c01/l701.exe)
 ... and contract with generalized density number  0.
 Compute integral first derivatives.
 Leave Link  701 at Tue Jan  3 09:04:39 2023, MaxMem=   536870912 cpu:               0.2 elap:               0.1
 (Enter /opt/software/gaussian/g16.c01/l702.exe)
 L702 exits ... SP integral derivatives will be done elsewhere.
 Leave Link  702 at Tue Jan  3 09:04:39 2023, MaxMem=   536870912 cpu:               0.1 elap:               0.0
 (Enter /opt/software/gaussian/g16.c01/l703.exe)
 Integral derivatives from FoFJK, PRISM(SPDF).
 Compute integral first derivatives, UseDBF=F ICtDFT=           0.
 Calling FoFJK, ICntrl=      2127 FMM=F ISym2X=0 I1Cent= 0 IOpClX= 1 NMat=1 NMatS=1 NMatT=0.
 FoFJK:  IHMeth= 1 ICntrl=    2127 DoSepK=F KAlg= 0 I1Cent=           0 FoldK=F
 IRaf=         0 NMat=       1 IRICut=       1 DoRegI=T DoRafI=F ISym2E= 0 IDoP0=0 IntGTp=1.
 FoFCou: FMM=F IPFlag=           0 FMFlag=      100000 FMFlg1=         800
         NFxFlg=           0 DoJE=F BraDBF=F KetDBF=F FulRan=T
         wScrn=  0.000000 ICntrl=      2127 IOpCl=  1 I1Cent=           0 NGrid=           0
         NMat0=    1 NMatS0=      1 NMatT0=    0 NMatD0=    1 NMtDS0=    0 NMtDT0=    0
 Symmetry not used in FoFCou.
 Leave Link  703 at Tue Jan  3 09:04:39 2023, MaxMem=   536870912 cpu:               0.5 elap:               0.2
 (Enter /opt/software/gaussian/g16.c01/l716.exe)
 Dipole        =-7.95088040D-01 2.75298343D-01-1.19375144D+00
 -------------------------------------------------------------------
 Center     Atomic                   Forces (Hartrees/Bohr)
 Number     Number              X              Y              Z
 -------------------------------------------------------------------
      1        6          -0.038933497   -0.000902929    0.003903358
      2        7           0.060693450    0.000607501   -0.002634840
      3        1          -0.006353141   -0.003751476    0.016265525
      4        8          -0.019262766    0.004189406   -0.018163010
      5        1           0.001771991   -0.001585917    0.006882760
      6        1           0.002083963    0.001443415   -0.006253793
 -------------------------------------------------------------------
 Cartesian Forces:  Max     0.060693450 RMS     0.018795600
 Z-matrix is all fixed cartesians, so copy forces.
 Force constants in Cartesian coordinates: 
                1             2             3             4             5 
      1  0.101329D+01
      2 -0.181037D-02  0.203575D+00
      3  0.786374D-02 -0.124878D+00  0.716256D+00
      4 -0.679882D+00  0.300493D-02 -0.129771D-01  0.122912D+01
      5  0.376763D-02 -0.101951D+00  0.210923D-01 -0.513644D-01  0.222812D+00
      6 -0.162703D-01  0.210924D-01 -0.188542D+00  0.222639D+00 -0.201358D+00
      7 -0.102620D-02 -0.665546D-02  0.288574D-01 -0.181518D+00 -0.289962D-01
      8  0.121571D-03  0.160790D-01  0.116710D-03 -0.287431D-01 -0.726755D-01
      9 -0.525445D-03  0.118691D-03  0.155912D-01  0.124629D+00  0.655904D-01
     10  0.119887D-02  0.777540D-02 -0.337130D-01 -0.367761D+00  0.763242D-01
     11  0.200587D-03  0.190369D-01 -0.153988D-02  0.768689D-01 -0.806506D-01
     12 -0.868461D-03 -0.154186D-02  0.253675D-01 -0.333281D+00  0.114090D+00
     13 -0.158674D+00  0.217720D-01 -0.944370D-01  0.990489D-03  0.642211D-02
     14  0.210005D-01 -0.665152D-01  0.549206D-01  0.108065D-03  0.144495D-01
     15 -0.910994D-01  0.549244D-01 -0.292045D+00 -0.467503D-03  0.139020D-03
     16 -0.174911D+00 -0.240865D-01  0.104406D+00 -0.948593D-03 -0.615334D-02
     17 -0.232800D-01 -0.702247D-01  0.502880D-01  0.125613D-03  0.180161D-01
     18  0.100900D+00  0.502841D-01 -0.276628D+00 -0.542935D-03  0.445850D-03
                6             7             8             9            10 
      6  0.104942D+01
      7  0.125728D+00  0.157894D+00
      8  0.655912D-01  0.315330D-01  0.477677D-01
      9 -0.341942D+00 -0.136727D+00 -0.699667D-01  0.335000D+00
     10 -0.330918D+00  0.246502D-01 -0.291152D-02  0.126236D-01  0.341912D+00
     11  0.114089D+00  0.411862D-02  0.878005D-02  0.424634D-02 -0.811881D-01
     12 -0.549005D+00 -0.178579D-01  0.424651D-02 -0.865234D-02  0.352007D+00
     13 -0.278537D-01  0.000000D+00  0.000000D+00  0.000000D+00  0.000000D+00
     14  0.139979D-03  0.000000D+00 -0.908908D-02 -0.209632D-02  0.000000D+00
     15  0.138797D-01  0.000000D+00 -0.209566D-02 -0.483348D-03  0.000000D+00
     16  0.266748D-01  0.000000D+00  0.000000D+00  0.000000D+00  0.000000D+00
     17  0.444845D-03  0.000000D+00  0.913787D-02  0.210757D-02  0.000000D+00
     18  0.161850D-01  0.000000D+00  0.210791D-02  0.486171D-03  0.000000D+00
               11            12            13            14            15 
     11  0.528801D-01
     12 -0.116784D+00  0.532292D+00
     13  0.000000D+00  0.000000D+00  0.128269D+00
     14  0.864159D-02  0.199298D-02 -0.243128D-01  0.428129D-01
     15  0.199249D-02  0.459521D-03  0.105452D+00 -0.591266D-01  0.285599D+00
     16  0.000000D+00  0.000000D+00  0.294149D-01  0.320416D-02 -0.138848D-01
     17 -0.868798D-02 -0.200368D-02 -0.388133D-02  0.970030D-02  0.416630D-02
     18 -0.200413D-02 -0.462205D-03  0.168390D-01  0.416934D-02 -0.741015D-02
               16            17            18 
     16  0.146445D+00
     17  0.270357D-01  0.420584D-01
     18 -0.117196D+00 -0.550030D-01  0.267829D+00
 Leave Link  716 at Tue Jan  3 09:04:39 2023, MaxMem=   536870912 cpu:               0.1 elap:               0.1
 (Enter /opt/software/gaussian/g16.c01/l103.exe)

 GradGradGradGradGradGradGradGradGradGradGradGradGradGradGradGradGradGrad
 Berny optimization.
 Search for a local minimum.
 Step number   1 out of a maximum of    2
 All quantities printed in internal units (Hartrees-Bohrs-Radians)
 Second derivative matrix not updated -- first step.
 The second derivative matrix:
                          X1        Y1        Z1        X2        Y2
           X1           1.01329
           Y1          -0.00181   0.20358
           Z1           0.00786  -0.12488   0.71626
           X2          -0.67988   0.00300  -0.01298   1.22912
           Y2           0.00377  -0.10195   0.02109  -0.05136   0.22281
           Z2          -0.01627   0.02109  -0.18854   0.22264  -0.20136
           X3          -0.00103  -0.00666   0.02886  -0.18152  -0.02900
           Y3           0.00012   0.01608   0.00012  -0.02874  -0.07268
           Z3          -0.00053   0.00012   0.01559   0.12463   0.06559
           X4           0.00120   0.00778  -0.03371  -0.36776   0.07632
           Y4           0.00020   0.01904  -0.00154   0.07687  -0.08065
           Z4          -0.00087  -0.00154   0.02537  -0.33328   0.11409
           X5          -0.15867   0.02177  -0.09444   0.00099   0.00642
           Y5           0.02100  -0.06652   0.05492   0.00011   0.01445
           Z5          -0.09110   0.05492  -0.29205  -0.00047   0.00014
           X6          -0.17491  -0.02409   0.10441  -0.00095  -0.00615
           Y6          -0.02328  -0.07022   0.05029   0.00013   0.01802
           Z6           0.10090   0.05028  -0.27663  -0.00054   0.00045
                          Z2        X3        Y3        Z3        X4
           Z2           1.04942
           X3           0.12573   0.15789
           Y3           0.06559   0.03153   0.04777
           Z3          -0.34194  -0.13673  -0.06997   0.33500
           X4          -0.33092   0.02465  -0.00291   0.01262   0.34191
           Y4           0.11409   0.00412   0.00878   0.00425  -0.08119
           Z4          -0.54900  -0.01786   0.00425  -0.00865   0.35201
           X5          -0.02785  -0.00000  -0.00000  -0.00000   0.00000
           Y5           0.00014  -0.00000  -0.00909  -0.00210   0.00000
           Z5           0.01388  -0.00000  -0.00210  -0.00048   0.00000
           X6           0.02667   0.00000   0.00000   0.00000  -0.00000
           Y6           0.00044   0.00000   0.00914   0.00211  -0.00000
           Z6           0.01618   0.00000   0.00211   0.00049  -0.00000
                          Y4        Z4        X5        Y5        Z5
           Y4           0.05288
           Z4          -0.11678   0.53229
           X5           0.00000   0.00000   0.12827
           Y5           0.00864   0.00199  -0.02431   0.04281
           Z5           0.00199   0.00046   0.10545  -0.05913   0.28560
           X6          -0.00000  -0.00000   0.02941   0.00320  -0.01388
           Y6          -0.00869  -0.00200  -0.00388   0.00970   0.00417
           Z6          -0.00200  -0.00046   0.01684   0.00417  -0.00741
                          X6        Y6        Z6
           X6           0.14644
           Y6           0.02704   0.04206
           Z6          -0.11720  -0.05500   0.26783
 ITU=  0
     Eigenvalues ---    0.03447   0.04394   0.09385   0.09776   0.15149
     Eigenvalues ---    0.18516   0.28085   0.33564   0.68419   0.94438
     Eigenvalues ---    1.52455   2.16742
 Angle between quadratic step and forces=  58.79 degrees.
 Linear search not attempted -- first point.
 B after Tr=    -0.002147    0.001722   -0.007498
         Rot=    1.000000    0.000001    0.000037    0.000008 Ang=   0.00 deg.
 Variable       Old X    -DE/DX   Delta X   Delta X   Delta X     New X
                                 (Linear)    (Quad)   (Total)
    X1        1.76526  -0.03893   0.00000  -0.01430  -0.01646   1.74880
    Y1       -0.09564  -0.00090   0.00000  -0.00134   0.00036  -0.09528
    Z1        0.10090   0.00390   0.00000   0.00575  -0.00162   0.09928
    X2        4.21476   0.06069   0.00000   0.03795   0.03579   4.25055
    Y2       -0.11476   0.00061   0.00000   0.00471   0.00636  -0.10840
    Z2        0.18359  -0.00263   0.00000  -0.02042  -0.02761   0.15599
    X3        5.12197  -0.00635   0.00000   0.05317   0.05114   5.17311
    Y3        0.27317  -0.00375   0.00000  -0.00769  -0.00604   0.26713
    Z3       -1.49844   0.01627   0.00000   0.03332   0.02620  -1.47224
    X4        5.62552  -0.01926   0.00000  -0.02991  -0.03221   5.59331
    Y4       -0.54121   0.00419   0.00000   0.00232   0.00396  -0.53725
    Z4        2.03258  -0.01816   0.00000  -0.01005  -0.01714   2.01544
    X5        0.86974   0.00177   0.00000  -0.03905  -0.04107   0.82867
    Y5        0.31971  -0.00159   0.00000  -0.00906  -0.00736   0.31235
    Z5       -1.70041   0.00688   0.00000   0.03939   0.03195  -1.66846
    X6        0.72441   0.00208   0.00000   0.00511   0.00282   0.72723
    Y6       -0.49386   0.00144   0.00000   0.00101   0.00272  -0.49114
    Z6        1.82729  -0.00625   0.00000  -0.00434  -0.01178   1.81551
         Item               Value     Threshold  Converged?
 Maximum Force            0.060693     0.000450     NO 
 RMS     Force            0.018796     0.000300     NO 
 Maximum Displacement     0.051137     0.001800     NO 
 RMS     Displacement     0.023521     0.001200     NO 
 Predicted change in Energy=-2.098733D-03
 GradGradGradGradGradGradGradGradGradGradGradGradGradGradGradGradGradGrad

 Leave Link  103 at Tue Jan  3 09:04:39 2023, MaxMem=   536870912 cpu:               0.0 elap:               0.0
 (Enter /opt/software/gaussian/g16.c01/l9999.exe)
 Unable to Open any file for archive entry.
 1\1\GINC-GRA634\Force\UHF\Gen\C1H3N1O1\BHAVUK\03-Jan-2023\0\\#p uhf/ch
 kbasis force guess=read geom=check scf=(maxcycle=900,verytightlineq,xq
 c) integral=grid=ultrafine symmetry=None density=current pop=(cm5,hlyg
 at,mbs,npa) output=wfx\\0002_q000_m01_k00_opt_uwb97xd_def2svpd/0002_q0
 00_m01_k00_force_uhf_def2svp stable-force\\0,1\C,0.9341359983,-0.05061
 01672,0.0533916633\N,2.2303561638,-0.0607282973,0.0971529523\H,2.71042
 99206,0.1445551233,-0.7929401941\O,2.9768985022,-0.2863976361,1.075594
 5973\H,0.4602474304,0.169181767,-0.8998201368\H,0.383341983,-0.2613407
 898,0.9669611147\\Version=ES64L-G16RevC.01\HF=-168.6898008\S2=0.519716
 \S2-1=0.\S2A=0.033964\RMSD=1.380e-09\RMSF=1.880e-02\Dipole=-0.795088,0
 .2752983,-1.1937514\Quadrupole=-3.6609885,1.7949062,1.8660823,1.693061
 3,-7.0911989,0.0788591\PG=Unknown\\@
 The archive entry for this job was punched.

 Writing a WFNX file to "0002_q000_m01_k00_force_uhf_def2svp.wfx"


          EVOLUTION
 IN THE BEGINNING GOD MADE MAN.
 HE WORKED THE DIRT WITH HIS HANDS.
 THEN GOD DECIDED TO GIVE MAN SCIENCE,
 MAN SHOULD BE USEFUL (LIKE AN APPLIANCE.)
 BUT SOON MAN'S KNOWLEDGE GREW TOO GREAT,
 TO THE HEADING SCIENCE HE COULDN'T RELATE
 SO GOD SAID "LETS HAVE DIFFERENT FIELDS,
 WE'LL DIVIDE THEM UP, SEE WHAT IT YIELDS."
 ENTER PHYSICS, CHEMISTRY, BIO
 THEY SPRANG UP AROUND THE NILE.
 BUT CHEMISTRY SURPASSED THE REST
 FAR AND AWAY IT WAS THE BEST.
 EXPERIMENT WAS GOD'S DECREE
 EXPERIMENT DID CHEMISTS WITH LOTS OF GLEE
 BUT SOON THEIR TESTS BEGAN TO BOG,
 THEY FOUND THEMSELVES DEEP IN A FOG.
 "GIVE US SOME HELP" THEY CRIED TO GOD.
 GOD LOOKED AROUND, THEN GAVE THE NOD.
 ENTER EINSTEIN, HEISENBERG, BOHR,
 REACTION PATHS WERE CLEAR ONCE MORE.
 WITH THEORISTS GOD SEND DIRECTION
 AND THEN HE STOPPED, HE'D MADE PERFECTION.
          -- THOMAS A. HOLME, 1981
 Job cpu time:       0 days  0 hours  0 minutes  8.0 seconds.
 Elapsed time:       0 days  0 hours  0 minutes  3.9 seconds.
 File lengths (MBytes):  RWF=      6 Int=      0 D2E=      0 Chk=      2 Scr=      1
 Normal termination of Gaussian 16 at Tue Jan  3 09:04:39 2023.
