 Entering Gaussian System, Link 0=g16
 Input=0002_q000_m01_k00_force_uwb97xd_def2tzvpd.com
 Output=0002_q000_m01_k00_force_uwb97xd_def2tzvpd.log
 Initial command:
 /opt/software/gaussian/g16.c01/l1.exe "/localscratch/bhavuk.2151372.0/Gau-1132.inp" -scrdir="/localscratch/bhavuk.2151372.0/"
 Entering Link 1 = /opt/software/gaussian/g16.c01/l1.exe PID=      1133.
  
 Copyright (c) 1988-2019, Gaussian, Inc.  All Rights Reserved.
  
 This is part of the Gaussian(R) 16 program.  It is based on
 the Gaussian(R) 09 system (copyright 2009, Gaussian, Inc.),
 the Gaussian(R) 03 system (copyright 2003, Gaussian, Inc.),
 the Gaussian(R) 98 system (copyright 1998, Gaussian, Inc.),
 the Gaussian(R) 94 system (copyright 1995, Gaussian, Inc.),
 the Gaussian 92(TM) system (copyright 1992, Gaussian, Inc.),
 the Gaussian 90(TM) system (copyright 1990, Gaussian, Inc.),
 the Gaussian 88(TM) system (copyright 1988, Gaussian, Inc.),
 the Gaussian 86(TM) system (copyright 1986, Carnegie Mellon
 University), and the Gaussian 82(TM) system (copyright 1983,
 Carnegie Mellon University). Gaussian is a federally registered
 trademark of Gaussian, Inc.
  
 This software contains proprietary and confidential information,
 including trade secrets, belonging to Gaussian, Inc.
  
 This software is provided under written license and may be
 used, copied, transmitted, or stored only in accord with that
 written license.
  
 The following legend is applicable only to US Government
 contracts under FAR:
  
                    RESTRICTED RIGHTS LEGEND
  
 Use, reproduction and disclosure by the US Government is
 subject to restrictions as set forth in subparagraphs (a)
 and (c) of the Commercial Computer Software - Restricted
 Rights clause in FAR 52.227-19.
  
 Gaussian, Inc.
 340 Quinnipiac St., Bldg. 40, Wallingford CT 06492
  
  
 ---------------------------------------------------------------
 Warning -- This program may not be used in any manner that
 competes with the business of Gaussian, Inc. or will provide
 assistance to any competitor of Gaussian, Inc.  The licensee
 of this program is prohibited from giving any competitor of
 Gaussian, Inc. access to this program.  By using this program,
 the user acknowledges that Gaussian, Inc. is engaged in the
 business of creating and licensing software in the field of
 computational chemistry and represents and warrants to the
 licensee that it is not a competitor of Gaussian, Inc. and that
 it will not use this program in any manner prohibited above.
 ---------------------------------------------------------------
  

 Cite this work as:
 Gaussian 16, Revision C.01,
 M. J. Frisch, G. W. Trucks, H. B. Schlegel, G. E. Scuseria, 
 M. A. Robb, J. R. Cheeseman, G. Scalmani, V. Barone, 
 G. A. Petersson, H. Nakatsuji, X. Li, M. Caricato, A. V. Marenich, 
 J. Bloino, B. G. Janesko, R. Gomperts, B. Mennucci, H. P. Hratchian, 
 J. V. Ortiz, A. F. Izmaylov, J. L. Sonnenberg, D. Williams-Young, 
 F. Ding, F. Lipparini, F. Egidi, J. Goings, B. Peng, A. Petrone, 
 T. Henderson, D. Ranasinghe, V. G. Zakrzewski, J. Gao, N. Rega, 
 G. Zheng, W. Liang, M. Hada, M. Ehara, K. Toyota, R. Fukuda, 
 J. Hasegawa, M. Ishida, T. Nakajima, Y. Honda, O. Kitao, H. Nakai, 
 T. Vreven, K. Throssell, J. A. Montgomery, Jr., J. E. Peralta, 
 F. Ogliaro, M. J. Bearpark, J. J. Heyd, E. N. Brothers, K. N. Kudin, 
 V. N. Staroverov, T. A. Keith, R. Kobayashi, J. Normand, 
 K. Raghavachari, A. P. Rendell, J. C. Burant, S. S. Iyengar, 
 J. Tomasi, M. Cossi, J. M. Millam, M. Klene, C. Adamo, R. Cammi, 
 J. W. Ochterski, R. L. Martin, K. Morokuma, O. Farkas, 
 J. B. Foresman, and D. J. Fox, Gaussian, Inc., Wallingford CT, 2019.
 
 ******************************************
 Gaussian 16:  ES64L-G16RevC.01  3-Jul-2019
                 3-Jan-2023 
 ******************************************
 %chk=0002_q000_m01_k00_force_uwb97xd_def2tzvpd.chk
 %nprocshared=2
 Will use up to    2 processors via shared memory.
 %mem=4GB
 ----------------------------------------------------------------------
 #p uwb97xd/gen stable=opt scf=(maxcycle=900,verytightlineq,xqc) integr
 al=grid=ultrafine symmetry=None density=current iop(99/18=-1) output=w
 fn
 ----------------------------------------------------------------------
 1/38=1,172=1/1;
 2/12=2,15=3,17=6,18=5,40=1/2;
 3/5=7,11=2,25=1,30=1,74=-58,75=-5,116=2/1,2,3;
 4//1;
 5/5=2,7=900,8=3,13=1,17=3,38=5/2,8;
 6/7=2,8=2,9=2,10=2,22=-1,28=1/1;
 8/6=1,10=90,11=11/1;
 9/8=-3,42=1,46=1/14;
 5/5=2,7=900,8=3,17=43,38=5/8(-2);
 6/7=2,8=2,9=2,10=2,22=-1,28=1/1;
 99/5=1,6=100,9=1,18=-1/99;
 Leave Link    1 at Tue Jan  3 09:05:00 2023, MaxMem=   536870912 cpu:               0.1 elap:               0.1
 (Enter /opt/software/gaussian/g16.c01/l101.exe)
 ----------------------------------------------------------------------
 0002_q000_m01_k00_opt_uwb97xd_def2svpd/0002_q000_m01_k00_force_uwb97xd
 _def2tzvpd stable-force
 ----------------------------------------------------------------------
 Symbolic Z-matrix:
 Charge =  0 Multiplicity = 1
 C                     0.93414  -0.05061   0.05339 
 N                     2.23036  -0.06073   0.09715 
 H                     2.71043   0.14456  -0.79294 
 O                     2.9769   -0.2864    1.07559 
 H                     0.46025   0.16918  -0.89982 
 H                     0.38334  -0.26134   0.96696 
 
 ITRead=  0  0  0  0  0  0
 MicOpt= -1 -1 -1 -1 -1 -1
 NAtoms=      6 NQM=        6 NQMF=       0 NMMI=      0 NMMIF=      0
                NMic=       0 NMicF=      0.
                    Isotopes and Nuclear Properties:
 (Nuclear quadrupole moments (NQMom) in fm**2, nuclear magnetic moments (NMagM)
  in nuclear magnetons)

  Atom         1           2           3           4           5           6
 IAtWgt=          12          14           1          16           1           1
 AtmWgt=  12.0000000  14.0030740   1.0078250  15.9949146   1.0078250   1.0078250
 NucSpn=           0           2           1           0           1           1
 AtZEff=  -0.0000000  -0.0000000  -0.0000000  -0.0000000  -0.0000000  -0.0000000
 NQMom=    0.0000000   2.0440000   0.0000000   0.0000000   0.0000000   0.0000000
 NMagM=    0.0000000   0.4037610   2.7928460   0.0000000   2.7928460   2.7928460
 AtZNuc=   6.0000000   7.0000000   1.0000000   8.0000000   1.0000000   1.0000000
 Leave Link  101 at Tue Jan  3 09:05:00 2023, MaxMem=   536870912 cpu:               0.4 elap:               0.2
 (Enter /opt/software/gaussian/g16.c01/l202.exe)
                          Input orientation:                          
 ---------------------------------------------------------------------
 Center     Atomic      Atomic             Coordinates (Angstroms)
 Number     Number       Type             X           Y           Z
 ---------------------------------------------------------------------
      1          6           0        0.934136   -0.050610    0.053392
      2          7           0        2.230356   -0.060728    0.097153
      3          1           0        2.710430    0.144555   -0.792940
      4          8           0        2.976899   -0.286398    1.075595
      5          1           0        0.460247    0.169182   -0.899820
      6          1           0        0.383342   -0.261341    0.966961
 ---------------------------------------------------------------------
                    Distance matrix (angstroms):
                    1          2          3          4          5
     1  C    0.000000
     2  N    1.296998   0.000000
     3  H    1.977268   1.031929   0.000000
     4  O    2.296383   1.251239   1.936013   0.000000
     5  H    1.086964   2.044529   2.252854   3.231617   0.000000
     6  H    1.087378   2.051408   2.945733   2.595952   1.917325
                    6
     6  H    0.000000
 Symmetry turned off by external request.
 Stoichiometry    CH3NO
 Rotational constants (GHZ):          75.8819039          11.9122881          10.2959784
 Leave Link  202 at Tue Jan  3 09:05:00 2023, MaxMem=   536870912 cpu:               0.0 elap:               0.0
 (Enter /opt/software/gaussian/g16.c01/l301.exe)
 General basis read from cards:  (5D, 7F)
 Centers:       3      5      6
 S 3 1.00
     Exponent=  3.4061341000D+01 Coefficients=  6.0251978000D-03
     Exponent=  5.1235746000D+00 Coefficients=  4.5021094000D-02
     Exponent=  1.1646626000D+00 Coefficients=  2.0189726000D-01
 S 1 1.00
     Exponent=  3.2723041000D-01 Coefficients=  1.0000000000D+00
 S 1 1.00
     Exponent=  1.0307241000D-01 Coefficients=  1.0000000000D+00
 P 1 1.00
     Exponent=  8.0000000000D-01 Coefficients=  1.0000000000D+00
 P 1 1.00
     Exponent=  9.5774129632D-02 Coefficients=  1.0000000000D+00
 ****
 Centers:       1
 S 6 1.00
     Exponent=  1.3575349682D+04 Coefficients=  2.2245814352D-04
     Exponent=  2.0352333680D+03 Coefficients=  1.7232738252D-03
     Exponent=  4.6322562359D+02 Coefficients=  8.9255715314D-03
     Exponent=  1.3120019598D+02 Coefficients=  3.5727984502D-02
     Exponent=  4.2853015891D+01 Coefficients=  1.1076259931D-01
     Exponent=  1.5584185766D+01 Coefficients=  2.4295627626D-01
 S 2 1.00
     Exponent=  6.2067138508D+00 Coefficients=  4.1440263448D-01
     Exponent=  2.5764896527D+00 Coefficients=  2.3744968655D-01
 S 1 1.00
     Exponent=  5.7696339419D-01 Coefficients=  1.0000000000D+00
 S 1 1.00
     Exponent=  2.2972831358D-01 Coefficients=  1.0000000000D+00
 S 1 1.00
     Exponent=  9.5164440028D-02 Coefficients=  1.0000000000D+00
 S 1 1.00
     Exponent=  4.8475401370D-02 Coefficients=  1.0000000000D+00
 P 4 1.00
     Exponent=  3.4697232244D+01 Coefficients=  5.3333657805D-03
     Exponent=  7.9582622826D+00 Coefficients=  3.5864109092D-02
     Exponent=  2.3780826883D+00 Coefficients=  1.4215873329D-01
     Exponent=  8.1433208183D-01 Coefficients=  3.4270471845D-01
 P 1 1.00
     Exponent=  2.8887547253D-01 Coefficients=  4.6445822433D-01
 P 1 1.00
     Exponent=  1.0056823671D-01 Coefficients=  2.4955789874D-01
 D 1 1.00
     Exponent=  1.0970000000D+00 Coefficients=  1.0000000000D+00
 D 1 1.00
     Exponent=  3.1800000000D-01 Coefficients=  1.0000000000D+00
 D 1 1.00
     Exponent=  9.0985336424D-02 Coefficients=  1.0000000000D+00
 F 1 1.00
     Exponent=  7.6100000000D-01 Coefficients=  1.0000000000D+00
 ****
 Centers:       2
 S 6 1.00
     Exponent=  1.9730800647D+04 Coefficients=  2.1887984991D-04
     Exponent=  2.9578958745D+03 Coefficients=  1.6960708803D-03
     Exponent=  6.7322133595D+02 Coefficients=  8.7954603538D-03
     Exponent=  1.9068249494D+02 Coefficients=  3.5359382605D-02
     Exponent=  6.2295441898D+01 Coefficients=  1.1095789217D-01
     Exponent=  2.2654161182D+01 Coefficients=  2.4982972552D-01
 S 2 1.00
     Exponent=  8.9791477428D+00 Coefficients=  4.0623896148D-01
     Exponent=  3.6863002370D+00 Coefficients=  2.4338217176D-01
 S 1 1.00
     Exponent=  8.4660076805D-01 Coefficients=  1.0000000000D+00
 S 1 1.00
     Exponent=  3.3647133771D-01 Coefficients=  1.0000000000D+00
 S 1 1.00
     Exponent=  1.3647653675D-01 Coefficients=  1.0000000000D+00
 S 1 1.00
     Exponent=  6.8441605847D-02 Coefficients=  1.0000000000D+00
 P 4 1.00
     Exponent=  4.9200380510D+01 Coefficients=  5.5552416751D-03
     Exponent=  1.1346790537D+01 Coefficients=  3.8052379723D-02
     Exponent=  3.4273972411D+00 Coefficients=  1.4953671029D-01
     Exponent=  1.1785525134D+00 Coefficients=  3.4949305230D-01
 P 1 1.00
     Exponent=  4.1642204972D-01 Coefficients=  4.5843153697D-01
 P 1 1.00
     Exponent=  1.4260826011D-01 Coefficients=  2.4428771672D-01
 D 1 1.00
     Exponent=  1.6540000000D+00 Coefficients=  1.0000000000D+00
 D 1 1.00
     Exponent=  4.6900000000D-01 Coefficients=  1.0000000000D+00
 D 1 1.00
     Exponent=  1.2829642058D-01 Coefficients=  1.0000000000D+00
 F 1 1.00
     Exponent=  1.0930000000D+00 Coefficients=  1.0000000000D+00
 ****
 Centers:       4
 S 6 1.00
     Exponent=  2.7032382631D+04 Coefficients=  2.1726302465D-04
     Exponent=  4.0523871392D+03 Coefficients=  1.6838662199D-03
     Exponent=  9.2232722710D+02 Coefficients=  8.7395616265D-03
     Exponent=  2.6124070989D+02 Coefficients=  3.5239968808D-02
     Exponent=  8.5354641351D+01 Coefficients=  1.1153519115D-01
     Exponent=  3.1035035245D+01 Coefficients=  2.5588953961D-01
 S 2 1.00
     Exponent=  1.2260860728D+01 Coefficients=  3.9768730901D-01
     Exponent=  4.9987076005D+00 Coefficients=  2.4627849430D-01
 S 1 1.00
     Exponent=  1.1703108158D+00 Coefficients=  1.0000000000D+00
 S 1 1.00
     Exponent=  4.6474740994D-01 Coefficients=  1.0000000000D+00
 S 1 1.00
     Exponent=  1.8504536357D-01 Coefficients=  1.0000000000D+00
 S 1 1.00
     Exponent=  7.0288026270D-02 Coefficients=  1.0000000000D+00
 P 4 1.00
     Exponent=  6.3274954801D+01 Coefficients=  6.0685103418D-03
     Exponent=  1.4627049379D+01 Coefficients=  4.1912575824D-02
     Exponent=  4.4501223456D+00 Coefficients=  1.6153841088D-01
     Exponent=  1.5275799647D+00 Coefficients=  3.5706951311D-01
 P 1 1.00
     Exponent=  5.2935117943D-01 Coefficients=  4.4794207502D-01
 P 1 1.00
     Exponent=  1.7478421270D-01 Coefficients=  2.4446069663D-01
 P 1 1.00
     Exponent=  5.1112745706D-02 Coefficients=  1.0000000000D+00
 D 1 1.00
     Exponent=  2.3140000000D+00 Coefficients=  1.0000000000D+00
 D 1 1.00
     Exponent=  6.4500000000D-01 Coefficients=  1.0000000000D+00
 D 1 1.00
     Exponent=  1.4696477366D-01 Coefficients=  1.0000000000D+00
 F 1 1.00
     Exponent=  1.4280000000D+00 Coefficients=  1.0000000000D+00
 ****
 Ernie: Thresh=  0.10000D-02 Tol=  0.10000D-05 Strict=F.
   141 basis functions,   210 primitive gaussians,   159 cartesian basis functions
    12 alpha electrons       12 beta electrons
       nuclear repulsion energy        72.3526514420 Hartrees.
 IExCor= 4639 DFT=T Ex+Corr=wB97XD ExCW=0 ScaHFX=  1.000000
 ScaDFX=  1.000000  1.000000  1.000000  1.000000 ScalE2=  1.000000  1.000000
 IRadAn=      5 IRanWt=     -1 IRanGd=            0 ICorTp=0 IEmpDi=121
 HFx  wShort=  0.000000 wLong=  0.200000 cFull=  0.222036 cShort=  0.000000 cLong=  0.777964
 DFx  wShort=  0.000000 wLong=  0.200000 cFull=  0.000000 cShort=  0.000000 cLong=  1.000000
 NAtoms=    6 NActive=    6 NUniq=    6 SFac= 1.00D+00 NAtFMM=   60 NAOKFM=F Big=F
 Integral buffers will be    131072 words long.
 Raffenetti 2 integral format.
 Two-electron integral symmetry is turned off.
 R6Disp:  Grimme-D2 Dispersion energy=       -0.0008068023 Hartrees.
 Nuclear repulsion after empirical dispersion term =       72.3518446396 Hartrees.
 Leave Link  301 at Tue Jan  3 09:05:00 2023, MaxMem=   536870912 cpu:               0.2 elap:               0.1
 (Enter /opt/software/gaussian/g16.c01/l302.exe)
 NPDir=0 NMtPBC=     1 NCelOv=     1 NCel=       1 NClECP=     1 NCelD=      1
         NCelK=      1 NCelE2=     1 NClLst=     1 CellRange=     0.0.
 One-electron integrals computed using PRISM.
 NBasis=   141 RedAO= T EigKep=  4.92D-05  NBF=   141
 NBsUse=   141 1.00D-06 EigRej= -1.00D+00 NBFU=   141
 Precomputing XC quadrature grid using
 IXCGrd= 4 IRadAn=           5 IRanWt=          -1 IRanGd=           0 AccXCQ= 0.00D+00.
 Generated NRdTot=       0 NPtTot=           0 NUsed=           0 NTot=          32
 NSgBfM=   159   159   159   159   159 MxSgAt=     6 MxSgA2=     6.
 Leave Link  302 at Tue Jan  3 09:05:01 2023, MaxMem=   536870912 cpu:               0.4 elap:               0.2
 (Enter /opt/software/gaussian/g16.c01/l303.exe)
 DipDrv:  MaxL=1.
 Leave Link  303 at Tue Jan  3 09:05:01 2023, MaxMem=   536870912 cpu:               0.1 elap:               0.0
 (Enter /opt/software/gaussian/g16.c01/l401.exe)
 ExpMin= 4.85D-02 ExpMax= 2.70D+04 ExpMxC= 9.22D+02 IAcc=3 IRadAn=         5 AccDes= 0.00D+00
 Harris functional with IExCor= 4639 and IRadAn=       5 diagonalized for initial guess.
 HarFok:  IExCor= 4639 AccDes= 0.00D+00 IRadAn=         5 IDoV= 1 UseB2=F ITyADJ=14
 ICtDFT=  3500011 ScaDFX=  1.000000  1.000000  1.000000  1.000000
 FoFCou: FMM=F IPFlag=           0 FMFlag=      100000 FMFlg1=           0
         NFxFlg=           0 DoJE=T BraDBF=F KetDBF=T FulRan=T
         wScrn=  0.000000 ICntrl=       500 IOpCl=  0 I1Cent=   200000004 NGrid=           0
         NMat0=    1 NMatS0=      1 NMatT0=    0 NMatD0=    1 NMtDS0=    0 NMtDT0=    0
 Symmetry not used in FoFCou.
 Harris En= -163.192095761104    
 JPrj=0 DoOrth=F DoCkMO=F.
 Initial guess <Sx>= 0.0000 <Sy>= 0.0000 <Sz>= 0.0000 <S**2>= 0.0000 S= 0.0000
 Leave Link  401 at Tue Jan  3 09:05:02 2023, MaxMem=   536870912 cpu:               1.7 elap:               0.8
 (Enter /opt/software/gaussian/g16.c01/l502.exe)
 Keep R1 and R2 ints in memory in canonical form, NReq=203940318.
 FoFCou: FMM=F IPFlag=           0 FMFlag=           0 FMFlg1=           0
         NFxFlg=           0 DoJE=F BraDBF=F KetDBF=F FulRan=T
         wScrn=  0.000000 ICntrl=       600 IOpCl=  0 I1Cent=           0 NGrid=           0
         NMat0=    1 NMatS0=  10011 NMatT0=    0 NMatD0=    1 NMtDS0=    0 NMtDT0=    0
 Symmetry not used in FoFCou.
 Two-electron integral symmetry not used.
 UHF open shell SCF:
 Using DIIS extrapolation, IDIIS=  1040.
 NGot=   536870912 LenX=   336357859 LenY=   336332137
 Requested convergence on RMS density matrix=1.00D-08 within 128 cycles.
 Requested convergence on MAX density matrix=1.00D-06.
 Requested convergence on             energy=1.00D-06.
 No special actions if energy rises.

 Cycle   1  Pass 1  IDiag  1:
 E= -169.704717513036    
 DIIS: error= 6.23D-02 at cycle   1 NSaved=   1.
 NSaved= 1 IEnMin= 1 EnMin= -169.704717513036     IErMin= 1 ErrMin= 6.23D-02
 ErrMax= 6.23D-02  0.00D+00 EMaxC= 1.00D-01 BMatC= 1.80D+00 BMatP= 1.80D+00
 IDIUse=3 WtCom= 3.77D-01 WtEn= 6.23D-01
 Coeff-Com:  0.100D+01
 Coeff-En:   0.100D+01
 Coeff:      0.100D+01
 Gap=     0.317 Goal=   None    Shift=    0.000
 Gap=     0.317 Goal=   None    Shift=    0.000
 GapD=    0.317 DampG=1.000 DampE=0.500 DampFc=0.5000 IDamp=-1.
 Damping current iteration by 5.00D-01
 RMSDP=3.61D-03 MaxDP=8.52D-02              OVMax= 2.57D-01

 Cycle   2  Pass 1  IDiag  1:
 E= -169.748871811360     Delta-E=       -0.044154298323 Rises=F Damp=T
 DIIS: error= 2.19D-02 at cycle   2 NSaved=   2.
 NSaved= 2 IEnMin= 2 EnMin= -169.748871811360     IErMin= 2 ErrMin= 2.19D-02
 ErrMax= 2.19D-02  0.00D+00 EMaxC= 1.00D-01 BMatC= 3.03D-01 BMatP= 1.80D+00
 IDIUse=3 WtCom= 7.81D-01 WtEn= 2.19D-01
 Coeff-Com: -0.275D+00 0.128D+01
 Coeff-En:   0.142D+00 0.858D+00
 Coeff:     -0.184D+00 0.118D+01
 Gap=     0.312 Goal=   None    Shift=    0.000
 Gap=     0.312 Goal=   None    Shift=    0.000
 RMSDP=1.46D-03 MaxDP=2.69D-02 DE=-4.42D-02 OVMax= 2.13D-01

 Cycle   3  Pass 1  IDiag  1:
 E= -169.783951095265     Delta-E=       -0.035079283905 Rises=F Damp=F
 DIIS: error= 1.51D-02 at cycle   3 NSaved=   3.
 NSaved= 3 IEnMin= 3 EnMin= -169.783951095265     IErMin= 3 ErrMin= 1.51D-02
 ErrMax= 1.51D-02  0.00D+00 EMaxC= 1.00D-01 BMatC= 1.40D-01 BMatP= 3.03D-01
 IDIUse=3 WtCom= 8.49D-01 WtEn= 1.51D-01
 Coeff-Com: -0.267D+00 0.621D+00 0.646D+00
 Coeff-En:   0.000D+00 0.000D+00 0.100D+01
 Coeff:     -0.226D+00 0.527D+00 0.699D+00
 Gap=     0.355 Goal=   None    Shift=    0.000
 Gap=     0.355 Goal=   None    Shift=    0.000
 RMSDP=9.93D-04 MaxDP=2.76D-02 DE=-3.51D-02 OVMax= 1.13D-01

 Cycle   4  Pass 1  IDiag  1:
 E= -169.808305998721     Delta-E=       -0.024354903456 Rises=F Damp=F
 DIIS: error= 7.23D-03 at cycle   4 NSaved=   4.
 NSaved= 4 IEnMin= 4 EnMin= -169.808305998721     IErMin= 4 ErrMin= 7.23D-03
 ErrMax= 7.23D-03  0.00D+00 EMaxC= 1.00D-01 BMatC= 2.72D-02 BMatP= 1.40D-01
 IDIUse=3 WtCom= 9.28D-01 WtEn= 7.23D-02
 Coeff-Com: -0.136D+00 0.304D+00 0.436D+00 0.396D+00
 Coeff-En:   0.000D+00 0.000D+00 0.131D+00 0.869D+00
 Coeff:     -0.126D+00 0.282D+00 0.414D+00 0.430D+00
 Gap=     0.347 Goal=   None    Shift=    0.000
 Gap=     0.347 Goal=   None    Shift=    0.000
 RMSDP=3.13D-04 MaxDP=1.07D-02 DE=-2.44D-02 OVMax= 3.29D-02

 Cycle   5  Pass 1  IDiag  1:
 E= -169.813364209898     Delta-E=       -0.005058211177 Rises=F Damp=F
 DIIS: error= 6.44D-04 at cycle   5 NSaved=   5.
 NSaved= 5 IEnMin= 5 EnMin= -169.813364209898     IErMin= 5 ErrMin= 6.44D-04
 ErrMax= 6.44D-04  0.00D+00 EMaxC= 1.00D-01 BMatC= 2.85D-04 BMatP= 2.72D-02
 IDIUse=3 WtCom= 9.94D-01 WtEn= 6.44D-03
 Coeff-Com: -0.171D-01 0.346D-01 0.748D-01 0.139D+00 0.769D+00
 Coeff-En:   0.000D+00 0.000D+00 0.000D+00 0.000D+00 0.100D+01
 Coeff:     -0.170D-01 0.344D-01 0.743D-01 0.138D+00 0.770D+00
 Gap=     0.350 Goal=   None    Shift=    0.000
 Gap=     0.350 Goal=   None    Shift=    0.000
 RMSDP=7.68D-05 MaxDP=1.36D-03 DE=-5.06D-03 OVMax= 2.76D-03

 Cycle   6  Pass 1  IDiag  1:
 E= -169.813416926470     Delta-E=       -0.000052716572 Rises=F Damp=F
 DIIS: error= 1.52D-04 at cycle   6 NSaved=   6.
 NSaved= 6 IEnMin= 6 EnMin= -169.813416926470     IErMin= 6 ErrMin= 1.52D-04
 ErrMax= 1.52D-04  0.00D+00 EMaxC= 1.00D-01 BMatC= 2.22D-05 BMatP= 2.85D-04
 IDIUse=3 WtCom= 9.98D-01 WtEn= 1.52D-03
 Coeff-Com:  0.107D-01-0.238D-01-0.296D-01-0.181D-01 0.207D+00 0.854D+00
 Coeff-En:   0.000D+00 0.000D+00 0.000D+00 0.000D+00 0.000D+00 0.100D+01
 Coeff:      0.106D-01-0.238D-01-0.295D-01-0.181D-01 0.206D+00 0.854D+00
 Gap=     0.350 Goal=   None    Shift=    0.000
 Gap=     0.350 Goal=   None    Shift=    0.000
 RMSDP=3.84D-05 MaxDP=9.69D-04 DE=-5.27D-05 OVMax= 7.48D-04

 Cycle   7  Pass 1  IDiag  1:
 E= -169.813422095621     Delta-E=       -0.000005169151 Rises=F Damp=F
 DIIS: error= 2.93D-05 at cycle   7 NSaved=   7.
 NSaved= 7 IEnMin= 7 EnMin= -169.813422095621     IErMin= 7 ErrMin= 2.93D-05
 ErrMax= 2.93D-05  0.00D+00 EMaxC= 1.00D-01 BMatC= 6.45D-07 BMatP= 2.22D-05
 IDIUse=1 WtCom= 1.00D+00 WtEn= 0.00D+00
 Coeff-Com:  0.233D-02-0.507D-02-0.726D-02-0.107D-01-0.921D-02 0.136D+00
 Coeff-Com:  0.894D+00
 Coeff:      0.233D-02-0.507D-02-0.726D-02-0.107D-01-0.921D-02 0.136D+00
 Coeff:      0.894D+00
 Gap=     0.350 Goal=   None    Shift=    0.000
 Gap=     0.350 Goal=   None    Shift=    0.000
 RMSDP=9.74D-06 MaxDP=1.88D-04 DE=-5.17D-06 OVMax= 2.35D-04

 Cycle   8  Pass 1  IDiag  1:
 E= -169.813422326269     Delta-E=       -0.000000230648 Rises=F Damp=F
 DIIS: error= 9.22D-06 at cycle   8 NSaved=   8.
 NSaved= 8 IEnMin= 8 EnMin= -169.813422326269     IErMin= 8 ErrMin= 9.22D-06
 ErrMax= 9.22D-06  0.00D+00 EMaxC= 1.00D-01 BMatC= 5.03D-08 BMatP= 6.45D-07
 IDIUse=1 WtCom= 1.00D+00 WtEn= 0.00D+00
 Coeff-Com: -0.384D-03 0.876D-03 0.121D-02-0.489D-03-0.129D-01-0.375D-01
 Coeff-Com:  0.294D-01 0.102D+01
 Coeff:     -0.384D-03 0.876D-03 0.121D-02-0.489D-03-0.129D-01-0.375D-01
 Coeff:      0.294D-01 0.102D+01
 Gap=     0.350 Goal=   None    Shift=    0.000
 Gap=     0.350 Goal=   None    Shift=    0.000
 RMSDP=3.02D-06 MaxDP=7.39D-05 DE=-2.31D-07 OVMax= 8.16D-05

 Cycle   9  Pass 1  IDiag  1:
 E= -169.813422346315     Delta-E=       -0.000000020047 Rises=F Damp=F
 DIIS: error= 2.34D-06 at cycle   9 NSaved=   9.
 NSaved= 9 IEnMin= 9 EnMin= -169.813422346315     IErMin= 9 ErrMin= 2.34D-06
 ErrMax= 2.34D-06  0.00D+00 EMaxC= 1.00D-01 BMatC= 2.00D-09 BMatP= 5.03D-08
 IDIUse=1 WtCom= 1.00D+00 WtEn= 0.00D+00
 Coeff-Com: -0.683D-04 0.146D-03 0.211D-03 0.204D-03 0.889D-03-0.344D-02
 Coeff-Com: -0.345D-01-0.547D-01 0.109D+01
 Coeff:     -0.683D-04 0.146D-03 0.211D-03 0.204D-03 0.889D-03-0.344D-02
 Coeff:     -0.345D-01-0.547D-01 0.109D+01
 Gap=     0.350 Goal=   None    Shift=    0.000
 Gap=     0.350 Goal=   None    Shift=    0.000
 RMSDP=6.20D-07 MaxDP=1.79D-05 DE=-2.00D-08 OVMax= 1.86D-05

 Cycle  10  Pass 1  IDiag  1:
 E= -169.813422347279     Delta-E=       -0.000000000963 Rises=F Damp=F
 DIIS: error= 3.42D-07 at cycle  10 NSaved=  10.
 NSaved=10 IEnMin=10 EnMin= -169.813422347279     IErMin=10 ErrMin= 3.42D-07
 ErrMax= 3.42D-07  0.00D+00 EMaxC= 1.00D-01 BMatC= 6.78D-11 BMatP= 2.00D-09
 IDIUse=1 WtCom= 1.00D+00 WtEn= 0.00D+00
 Coeff-Com:  0.921D-05-0.219D-04-0.376D-04 0.936D-05 0.617D-03 0.147D-02
 Coeff-Com: -0.392D-02-0.500D-01 0.521D-01 0.100D+01
 Coeff:      0.921D-05-0.219D-04-0.376D-04 0.936D-05 0.617D-03 0.147D-02
 Coeff:     -0.392D-02-0.500D-01 0.521D-01 0.100D+01
 Gap=     0.350 Goal=   None    Shift=    0.000
 Gap=     0.350 Goal=   None    Shift=    0.000
 RMSDP=1.19D-07 MaxDP=3.76D-06 DE=-9.63D-10 OVMax= 4.00D-06

 Cycle  11  Pass 1  IDiag  1:
 E= -169.813422347320     Delta-E=       -0.000000000041 Rises=F Damp=F
 DIIS: error= 7.91D-08 at cycle  11 NSaved=  11.
 NSaved=11 IEnMin=11 EnMin= -169.813422347320     IErMin=11 ErrMin= 7.91D-08
 ErrMax= 7.91D-08  0.00D+00 EMaxC= 1.00D-01 BMatC= 3.87D-12 BMatP= 6.78D-11
 IDIUse=1 WtCom= 1.00D+00 WtEn= 0.00D+00
 Coeff-Com:  0.357D-05-0.734D-05-0.726D-05-0.163D-04-0.992D-04 0.135D-03
 Coeff-Com:  0.162D-02 0.780D-02-0.524D-01-0.108D+00 0.115D+01
 Coeff:      0.357D-05-0.734D-05-0.726D-05-0.163D-04-0.992D-04 0.135D-03
 Coeff:      0.162D-02 0.780D-02-0.524D-01-0.108D+00 0.115D+01
 Gap=     0.350 Goal=   None    Shift=    0.000
 Gap=     0.350 Goal=   None    Shift=    0.000
 RMSDP=2.77D-08 MaxDP=6.01D-07 DE=-4.14D-11 OVMax= 1.19D-06

 Cycle  12  Pass 1  IDiag  1:
 E= -169.813422347323     Delta-E=       -0.000000000003 Rises=F Damp=F
 DIIS: error= 1.88D-08 at cycle  12 NSaved=  12.
 NSaved=12 IEnMin=12 EnMin= -169.813422347323     IErMin=12 ErrMin= 1.88D-08
 ErrMax= 1.88D-08  0.00D+00 EMaxC= 1.00D-01 BMatC= 3.23D-13 BMatP= 3.87D-12
 IDIUse=1 WtCom= 1.00D+00 WtEn= 0.00D+00
 Coeff-Com: -0.550D-07 0.169D-06 0.141D-05-0.206D-05-0.274D-04-0.437D-04
 Coeff-Com:  0.200D-03 0.205D-02-0.231D-02-0.452D-01-0.314D-01 0.108D+01
 Coeff:     -0.550D-07 0.169D-06 0.141D-05-0.206D-05-0.274D-04-0.437D-04
 Coeff:      0.200D-03 0.205D-02-0.231D-02-0.452D-01-0.314D-01 0.108D+01
 Gap=     0.350 Goal=   None    Shift=    0.000
 Gap=     0.350 Goal=   None    Shift=    0.000
 RMSDP=5.94D-09 MaxDP=1.19D-07 DE=-3.18D-12 OVMax= 3.14D-07

 SCF Done:  E(UwB97XD) =  -169.813422347     A.U. after   12 cycles
            NFock= 12  Conv=0.59D-08     -V/T= 2.0044
 <Sx>= 0.0000 <Sy>= 0.0000 <Sz>= 0.0000 <S**2>=-0.0000 S=-0.0000
 <L.S>=  0.00000000000    
 KE= 1.690660068064D+02 PE=-5.428795224170D+02 EE= 1.316482486236D+02
 Annihilation of the first spin contaminant:
 S**2 before annihilation    -0.0000,   after     0.0000
 Leave Link  502 at Tue Jan  3 09:05:21 2023, MaxMem=   536870912 cpu:              36.8 elap:              19.0
 (Enter /opt/software/gaussian/g16.c01/l508.exe)
 QCSCF skips out because SCF is already converged.
 Leave Link  508 at Tue Jan  3 09:05:21 2023, MaxMem=   536870912 cpu:               0.0 elap:               0.0
 (Enter /opt/software/gaussian/g16.c01/l601.exe)
 Copying SCF densities to generalized density rwf, IOpCl= 1 IROHF=0.

 **********************************************************************

            Population analysis using the SCF Density.

 **********************************************************************

 Alpha  occ. eigenvalues --  -19.23452 -14.58963 -10.33500  -1.22550  -0.96850
 Alpha  occ. eigenvalues --   -0.76330  -0.64639  -0.57948  -0.55243  -0.51215
 Alpha  occ. eigenvalues --   -0.35038  -0.32048
 Alpha virt. eigenvalues --    0.02961   0.05885   0.08548   0.11775   0.13864
 Alpha virt. eigenvalues --    0.14160   0.14911   0.16747   0.19820   0.21249
 Alpha virt. eigenvalues --    0.21350   0.25732   0.26555   0.27669   0.28561
 Alpha virt. eigenvalues --    0.30914   0.31973   0.32824   0.33548   0.36744
 Alpha virt. eigenvalues --    0.37669   0.40072   0.42164   0.42903   0.43175
 Alpha virt. eigenvalues --    0.43939   0.46266   0.48736   0.51207   0.51670
 Alpha virt. eigenvalues --    0.53117   0.55612   0.55874   0.57776   0.60271
 Alpha virt. eigenvalues --    0.62922   0.66777   0.68109   0.68172   0.75269
 Alpha virt. eigenvalues --    0.75815   0.76693   0.79191   0.81399   0.84645
 Alpha virt. eigenvalues --    0.89137   0.89473   0.95926   1.00944   1.01285
 Alpha virt. eigenvalues --    1.06920   1.12200   1.16271   1.22834   1.25155
 Alpha virt. eigenvalues --    1.39010   1.39801   1.48432   1.52572   1.64837
 Alpha virt. eigenvalues --    1.65986   1.74210   1.81008   1.82723   1.90422
 Alpha virt. eigenvalues --    1.92715   1.94133   1.96493   2.01442   2.05241
 Alpha virt. eigenvalues --    2.08644   2.16474   2.24986   2.34855   2.40712
 Alpha virt. eigenvalues --    2.42665   2.47096   2.50588   2.68857   2.73292
 Alpha virt. eigenvalues --    2.78309   2.82583   2.91508   2.98426   3.00431
 Alpha virt. eigenvalues --    3.04284   3.12157   3.17903   3.21531   3.21681
 Alpha virt. eigenvalues --    3.29374   3.33007   3.38911   3.41510   3.56430
 Alpha virt. eigenvalues --    3.63167   3.73481   3.87961   3.96091   4.17679
 Alpha virt. eigenvalues --    4.24052   4.27535   4.37498   4.63402   4.78949
 Alpha virt. eigenvalues --    4.83814   4.88298   4.91288   5.01895   5.04666
 Alpha virt. eigenvalues --    5.22116   5.29764   5.33321   5.43075   5.54116
 Alpha virt. eigenvalues --    5.55938   5.68836   5.92074   6.39861   6.55254
 Alpha virt. eigenvalues --    6.58472   6.66744   6.96567   7.13588   7.25559
 Alpha virt. eigenvalues --    7.73130  22.68844  32.43015  44.42204
  Beta  occ. eigenvalues --  -19.23452 -14.58963 -10.33500  -1.22550  -0.96850
  Beta  occ. eigenvalues --   -0.76330  -0.64639  -0.57948  -0.55243  -0.51215
  Beta  occ. eigenvalues --   -0.35038  -0.32048
  Beta virt. eigenvalues --    0.02961   0.05885   0.08548   0.11775   0.13864
  Beta virt. eigenvalues --    0.14160   0.14911   0.16747   0.19820   0.21249
  Beta virt. eigenvalues --    0.21350   0.25732   0.26555   0.27669   0.28561
  Beta virt. eigenvalues --    0.30914   0.31973   0.32824   0.33548   0.36744
  Beta virt. eigenvalues --    0.37669   0.40072   0.42164   0.42903   0.43175
  Beta virt. eigenvalues --    0.43939   0.46266   0.48736   0.51207   0.51670
  Beta virt. eigenvalues --    0.53117   0.55612   0.55874   0.57776   0.60271
  Beta virt. eigenvalues --    0.62922   0.66777   0.68109   0.68172   0.75269
  Beta virt. eigenvalues --    0.75815   0.76693   0.79191   0.81399   0.84645
  Beta virt. eigenvalues --    0.89137   0.89473   0.95926   1.00944   1.01285
  Beta virt. eigenvalues --    1.06920   1.12200   1.16271   1.22834   1.25155
  Beta virt. eigenvalues --    1.39010   1.39801   1.48432   1.52572   1.64837
  Beta virt. eigenvalues --    1.65986   1.74210   1.81008   1.82723   1.90422
  Beta virt. eigenvalues --    1.92715   1.94133   1.96493   2.01442   2.05241
  Beta virt. eigenvalues --    2.08644   2.16474   2.24986   2.34855   2.40712
  Beta virt. eigenvalues --    2.42665   2.47096   2.50588   2.68857   2.73292
  Beta virt. eigenvalues --    2.78309   2.82583   2.91508   2.98426   3.00431
  Beta virt. eigenvalues --    3.04284   3.12157   3.17903   3.21531   3.21681
  Beta virt. eigenvalues --    3.29374   3.33007   3.38911   3.41510   3.56430
  Beta virt. eigenvalues --    3.63167   3.73481   3.87961   3.96091   4.17679
  Beta virt. eigenvalues --    4.24052   4.27535   4.37498   4.63402   4.78949
  Beta virt. eigenvalues --    4.83814   4.88298   4.91288   5.01895   5.04666
  Beta virt. eigenvalues --    5.22116   5.29764   5.33321   5.43075   5.54116
  Beta virt. eigenvalues --    5.55938   5.68836   5.92074   6.39861   6.55254
  Beta virt. eigenvalues --    6.58472   6.66744   6.96567   7.13588   7.25559
  Beta virt. eigenvalues --    7.73130  22.68844  32.43015  44.42204
          Condensed to atoms (all electrons):
               1          2          3          4          5          6
     1  C    5.471092   0.468537  -0.048781  -0.088582   0.345258   0.356278
     2  N    0.468537   5.759120   0.436476   0.097393  -0.002983  -0.000447
     3  H   -0.048781   0.436476   0.470811  -0.063244  -0.011691  -0.002680
     4  O   -0.088582   0.097393  -0.063244   8.668630   0.003126  -0.002901
     5  H    0.345258  -0.002983  -0.011691   0.003126   0.345126   0.004895
     6  H    0.356278  -0.000447  -0.002680  -0.002901   0.004895   0.303913
          Atomic-Atomic Spin Densities.
               1          2          3          4          5          6
     1  C    0.000000   0.000000   0.000000   0.000000   0.000000   0.000000
     2  N    0.000000   0.000000   0.000000   0.000000   0.000000   0.000000
     3  H    0.000000   0.000000   0.000000   0.000000   0.000000   0.000000
     4  O    0.000000   0.000000   0.000000   0.000000   0.000000   0.000000
     5  H    0.000000   0.000000   0.000000   0.000000   0.000000   0.000000
     6  H    0.000000   0.000000   0.000000   0.000000   0.000000   0.000000
 Mulliken charges and spin densities:
               1          2
     1  C   -0.503803   0.000000
     2  N    0.241905   0.000000
     3  H    0.219108   0.000000
     4  O   -0.614421   0.000000
     5  H    0.316270   0.000000
     6  H    0.340941   0.000000
 Sum of Mulliken charges =  -0.00000   0.00000
 Mulliken charges and spin densities with hydrogens summed into heavy atoms:
               1          2
     1  C    0.153408   0.000000
     2  N    0.461013   0.000000
     4  O   -0.614421   0.000000
 Electronic spatial extent (au):  <R**2>=            516.3910
 Charge=             -0.0000 electrons
 Dipole moment (field-independent basis, Debye):
    X=             -2.1024    Y=              0.6719    Z=             -2.9133  Tot=              3.6550
 Quadrupole moment (field-independent basis, Debye-Ang):
   XX=            -26.3723   YY=            -19.1637   ZZ=            -18.9205
   XY=              2.2296   XZ=             -9.3179   YZ=              0.0650
 Traceless Quadrupole moment (field-independent basis, Debye-Ang):
   XX=             -4.8868   YY=              2.3218   ZZ=              2.5650
   XY=              2.2296   XZ=             -9.3179   YZ=              0.0650
 Octapole moment (field-independent basis, Debye-Ang**2):
  XXX=           -136.5841  YYY=              6.7330  ZZZ=            -23.4722  XYY=            -36.9699
  XXY=              9.0057  XXZ=            -34.6655  XZZ=            -40.7185  YZZ=              3.1493
  YYZ=             -6.6953  XYZ=              1.3112
 Hexadecapole moment (field-independent basis, Debye-Ang**3):
 XXXX=           -636.1444 YYYY=            -22.4712 ZZZZ=            -69.1184 XXXY=             37.5377
 XXXZ=           -140.0623 YYYX=             17.4298 YYYZ=              6.6542 ZZZX=            -66.5309
 ZZZY=              6.5884 XXYY=            -94.8247 XXZZ=           -114.1537 YYZZ=            -15.4368
 XXYZ=              6.1958 YYXZ=            -19.4991 ZZXY=              8.1926
 N-N= 7.235184463964D+01 E-N=-5.428795220152D+02  KE= 1.690660068064D+02
                          Isotropic Fermi Contact Couplings
        Atom                 a.u.       MegaHertz       Gauss      10(-4) cm-1
     1  C(13)              0.00000       0.00000       0.00000       0.00000
     2  N(14)              0.00000       0.00000       0.00000       0.00000
     3  H(1)               0.00000       0.00000       0.00000       0.00000
     4  O(17)              0.00000      -0.00000      -0.00000      -0.00000
     5  H(1)               0.00000       0.00000       0.00000       0.00000
     6  H(1)               0.00000       0.00000       0.00000       0.00000
 --------------------------------------------------------
       Center         ----  Spin Dipole Couplings  ----
                      3XX-RR        3YY-RR        3ZZ-RR
 --------------------------------------------------------
     1   Atom        0.000000      0.000000      0.000000
     2   Atom        0.000000      0.000000      0.000000
     3   Atom        0.000000      0.000000      0.000000
     4   Atom        0.000000      0.000000      0.000000
     5   Atom        0.000000      0.000000      0.000000
     6   Atom        0.000000      0.000000      0.000000
 --------------------------------------------------------
                        XY            XZ            YZ
 --------------------------------------------------------
     1   Atom        0.000000      0.000000      0.000000
     2   Atom        0.000000      0.000000      0.000000
     3   Atom        0.000000      0.000000      0.000000
     4   Atom        0.000000      0.000000      0.000000
     5   Atom        0.000000      0.000000      0.000000
     6   Atom        0.000000      0.000000      0.000000
 --------------------------------------------------------


 ---------------------------------------------------------------------------------
              Anisotropic Spin Dipole Couplings in Principal Axis System
 ---------------------------------------------------------------------------------

       Atom             a.u.   MegaHertz   Gauss  10(-4) cm-1        Axes

              Baa     0.0000     0.000     0.000     0.000  1.0000  0.0000  0.0000
     1 C(13)  Bbb     0.0000     0.000     0.000     0.000 -0.0000  1.0000  0.0000
              Bcc     0.0000     0.000     0.000     0.000  0.0000  0.0000  1.0000
 
              Baa     0.0000     0.000     0.000     0.000  1.0000  0.0000  0.0000
     2 N(14)  Bbb     0.0000     0.000     0.000     0.000 -0.0000  1.0000  0.0000
              Bcc     0.0000     0.000     0.000     0.000  0.0000  0.0000  1.0000
 
              Baa     0.0000     0.000     0.000     0.000  1.0000  0.0000  0.0000
     3 H(1)   Bbb     0.0000     0.000     0.000     0.000 -0.0000  1.0000  0.0000
              Bcc     0.0000     0.000     0.000     0.000  0.0000  0.0000  1.0000
 
              Baa     0.0000    -0.000    -0.000    -0.000  1.0000  0.0000  0.0000
     4 O(17)  Bbb     0.0000    -0.000    -0.000    -0.000 -0.0000  1.0000  0.0000
              Bcc     0.0000    -0.000    -0.000    -0.000  0.0000  0.0000  1.0000
 
              Baa     0.0000     0.000     0.000     0.000  1.0000  0.0000  0.0000
     5 H(1)   Bbb     0.0000     0.000     0.000     0.000 -0.0000  1.0000  0.0000
              Bcc     0.0000     0.000     0.000     0.000  0.0000  0.0000  1.0000
 
              Baa     0.0000     0.000     0.000     0.000  1.0000  0.0000  0.0000
     6 H(1)   Bbb     0.0000     0.000     0.000     0.000 -0.0000  1.0000  0.0000
              Bcc     0.0000     0.000     0.000     0.000  0.0000  0.0000  1.0000
 

 ---------------------------------------------------------------------------------

 No NMR shielding tensors so no spin-rotation constants.
 Leave Link  601 at Tue Jan  3 09:05:21 2023, MaxMem=   536870912 cpu:               0.4 elap:               0.2
 (Enter /opt/software/gaussian/g16.c01/l801.exe)
 DoSCS=F DFT=T ScalE2(SS,OS)=  1.000000  1.000000
 Range of M.O.s used for correlation:     1   141
 NBasis=   141 NAE=    12 NBE=    12 NFC=     0 NFV=     0
 NROrb=    141 NOA=    12 NOB=    12 NVA=   129 NVB=   129

 **** Warning!!: The largest alpha MO coefficient is  0.53504602D+02


 **** Warning!!: The largest beta MO coefficient is  0.53504602D+02

 Leave Link  801 at Tue Jan  3 09:05:21 2023, MaxMem=   536870912 cpu:               0.1 elap:               0.1
 (Enter /opt/software/gaussian/g16.c01/l914.exe)
 UHF ground state
 Doing stability rather than CIS.
 Keep R1 and R2 ints in memory in canonical form, NReq=207541102.
 FoFCou: FMM=F IPFlag=           0 FMFlag=           0 FMFlg1=           0
         NFxFlg=           0 DoJE=F BraDBF=F KetDBF=F FulRan=T
         wScrn=  0.000000 ICntrl=       600 IOpCl=  0 I1Cent=           0 NGrid=           0
         NMat0=    1 NMatS0=  10011 NMatT0=    0 NMatD0=    1 NMtDS0=    0 NMtDT0=    0
 Symmetry not used in FoFCou.
 Two-electron integral symmetry not used.
 MDV=   536870912 DFT=T DoStab=T Mixed=T DoRPA=F DoScal=F NonHer=F
 Making orbital integer symmetry assigments:
    12 initial guesses have been made.
 Convergence on wavefunction:    0.001000000000000
 Davidson Disk Diagonalization:  ConvIn= 1.00D-03 SkipCon=T Conv= 1.00D-03.
 Max sub-space:  2000 roots to seek:    12 dimension of matrix:         3096
 Iteration     1 Dimension    12 NMult     0 NNew     12
 CISAX will form    12 AO SS matrices at one time.
 NMat=    12 NSing=    12 JSym2X= 0.
 New state      1 was old state      2
 Excitation Energies [eV] at current iteration:
 Root      1 :     1.792251800853529
 Root      2 :     4.187438180360754
 Root      3 :     4.825087408321530
 Root      4 :     6.060960736061096
 Root      5 :     6.081336011550985
 Root      6 :     6.737810601111377
 Root      7 :     6.958708680412124
 Root      8 :     7.006170782054097
 Root      9 :     7.075166694498544
 Root     10 :     8.140117797221128
 Root     11 :     8.188843166750297
 Root     12 :    13.045705116252028
 Iteration     2 Dimension    24 NMult    12 NNew     12
 CISAX will form    12 AO SS matrices at one time.
 NMat=    12 NSing=    12 JSym2X= 0.
 Root      1 not converged, maximum delta is    0.102023407638417
 Excitation Energies [eV] at current iteration:
 Root      1 :     1.150700613223644   Change is   -0.641551187629886
 Root      2 :     3.897403870372539   Change is   -0.290034309988215
 Root      3 :     4.715421394538700   Change is   -0.109666013782829
 Root      4 :     5.874353512617358   Change is   -0.186607223443737
 Root      5 :     5.921826486775031   Change is   -0.159509524775953
 Root      6 :     6.450149677333572   Change is   -0.287660923777805
 Root      7 :     6.696021276544295   Change is   -0.310149505509802
 Root      8 :     6.762265212747256   Change is   -0.196443467664868
 Root      9 :     6.939094242025013   Change is   -0.136072452473531
 Root     10 :     7.468290979954529   Change is   -0.720552186795769
 Root     11 :     7.850894438531818   Change is   -0.289223358689310
 Root     12 :     8.789060092602149   Change is   -4.256645023649879
 Iteration     3 Dimension    27 NMult    24 NNew      3
 CISAX will form     3 AO SS matrices at one time.
 NMat=     3 NSing=     3 JSym2X= 0.
 Root      1 not converged, maximum delta is    0.014448222404779
 Excitation Energies [eV] at current iteration:
 Root      1 :     1.130230322847245   Change is   -0.020470290376398
 Root      2 :     3.886023306311047   Change is   -0.011380564061492
 Root      3 :     4.708964458465115   Change is   -0.006456936073586
 Iteration     4 Dimension    30 NMult    27 NNew      3
 CISAX will form     3 AO SS matrices at one time.
 NMat=     3 NSing=     3 JSym2X= 0.
 Root      1 not converged, maximum delta is    0.006888010645954
 Excitation Energies [eV] at current iteration:
 Root      1 :     1.128726015467323   Change is   -0.001504307379923
 Root      2 :     3.885645528065282   Change is   -0.000377778245765
 Root      3 :     4.708283932271093   Change is   -0.000680526194021
 Iteration     5 Dimension    33 NMult    30 NNew      3
 CISAX will form     3 AO SS matrices at one time.
 NMat=     3 NSing=     3 JSym2X= 0.
 Root      1 not converged, maximum delta is    0.001394233707987
 Excitation Energies [eV] at current iteration:
 Root      1 :     1.128609846554669   Change is   -0.000116168912654
 Root      2 :     3.885631624656750   Change is   -0.000013903408532
 Root      3 :     4.708187256584183   Change is   -0.000096675686911
 Iteration     6 Dimension    36 NMult    33 NNew      3
 CISAX will form     3 AO SS matrices at one time.
 NMat=     3 NSing=     3 JSym2X= 0.
 Root      1 has converged.
 Excitation Energies [eV] at current iteration:
 Root      1 :     1.128605223461839   Change is   -0.000004623092830
 Root      2 :     3.885630624354564   Change is   -0.000001000302185
 Root      3 :     4.708180772884180   Change is   -0.000006483700002
 Convergence achieved on expansion vectors.
 ***********************************************************************
 Stability analysis using <AA,BB:AA,BB> singles matrix:
 ***********************************************************************
 1PDM for each excited state written to RWF  633
 Ground to excited state transition densities written to RWF  633

 Eigenvectors of the stability matrix:
 
 Excited state symmetry could not be determined.
 Eigenvector   1:  3.000-?Sym  Eigenvalue= 0.0414755  <S**2>=2.000
     12A -> 13A        0.68280
     12A -> 18A        0.10158
     12A -> 24A       -0.10154
     12B -> 13B       -0.68280
     12B -> 18B       -0.10158
     12B -> 24B        0.10154
 The wavefunction is stable under the perturbations considered.
 Leave Link  914 at Tue Jan  3 09:07:07 2023, MaxMem=   536870912 cpu:             211.4 elap:             105.8
 (Enter /opt/software/gaussian/g16.c01/l508.exe)
 The wavefunction is already stable.
 Leave Link  508 at Tue Jan  3 09:07:07 2023, MaxMem=   536870912 cpu:               0.0 elap:               0.0
 (Enter /opt/software/gaussian/g16.c01/l601.exe)
 Copying SCF densities to generalized density rwf, IOpCl= 1 IROHF=0.

 **********************************************************************

            Population analysis using the SCF Density.

 **********************************************************************

 Alpha  occ. eigenvalues --  -19.23452 -14.58963 -10.33500  -1.22550  -0.96850
 Alpha  occ. eigenvalues --   -0.76330  -0.64639  -0.57948  -0.55243  -0.51215
 Alpha  occ. eigenvalues --   -0.35038  -0.32048
 Alpha virt. eigenvalues --    0.02961   0.05885   0.08548   0.11775   0.13864
 Alpha virt. eigenvalues --    0.14160   0.14911   0.16747   0.19820   0.21249
 Alpha virt. eigenvalues --    0.21350   0.25732   0.26555   0.27669   0.28561
 Alpha virt. eigenvalues --    0.30914   0.31973   0.32824   0.33548   0.36744
 Alpha virt. eigenvalues --    0.37669   0.40072   0.42164   0.42903   0.43175
 Alpha virt. eigenvalues --    0.43939   0.46266   0.48736   0.51207   0.51670
 Alpha virt. eigenvalues --    0.53117   0.55612   0.55874   0.57776   0.60271
 Alpha virt. eigenvalues --    0.62922   0.66777   0.68109   0.68172   0.75269
 Alpha virt. eigenvalues --    0.75815   0.76693   0.79191   0.81399   0.84645
 Alpha virt. eigenvalues --    0.89137   0.89473   0.95926   1.00944   1.01285
 Alpha virt. eigenvalues --    1.06920   1.12200   1.16271   1.22834   1.25155
 Alpha virt. eigenvalues --    1.39010   1.39801   1.48432   1.52572   1.64837
 Alpha virt. eigenvalues --    1.65986   1.74210   1.81008   1.82723   1.90422
 Alpha virt. eigenvalues --    1.92715   1.94133   1.96493   2.01442   2.05241
 Alpha virt. eigenvalues --    2.08644   2.16474   2.24986   2.34855   2.40712
 Alpha virt. eigenvalues --    2.42665   2.47096   2.50588   2.68857   2.73292
 Alpha virt. eigenvalues --    2.78309   2.82583   2.91508   2.98426   3.00431
 Alpha virt. eigenvalues --    3.04284   3.12157   3.17903   3.21531   3.21681
 Alpha virt. eigenvalues --    3.29374   3.33007   3.38911   3.41510   3.56430
 Alpha virt. eigenvalues --    3.63167   3.73481   3.87961   3.96091   4.17679
 Alpha virt. eigenvalues --    4.24052   4.27535   4.37498   4.63402   4.78949
 Alpha virt. eigenvalues --    4.83814   4.88298   4.91288   5.01895   5.04666
 Alpha virt. eigenvalues --    5.22116   5.29764   5.33321   5.43075   5.54116
 Alpha virt. eigenvalues --    5.55938   5.68836   5.92074   6.39861   6.55254
 Alpha virt. eigenvalues --    6.58472   6.66744   6.96567   7.13588   7.25559
 Alpha virt. eigenvalues --    7.73130  22.68844  32.43015  44.42204
  Beta  occ. eigenvalues --  -19.23452 -14.58963 -10.33500  -1.22550  -0.96850
  Beta  occ. eigenvalues --   -0.76330  -0.64639  -0.57948  -0.55243  -0.51215
  Beta  occ. eigenvalues --   -0.35038  -0.32048
  Beta virt. eigenvalues --    0.02961   0.05885   0.08548   0.11775   0.13864
  Beta virt. eigenvalues --    0.14160   0.14911   0.16747   0.19820   0.21249
  Beta virt. eigenvalues --    0.21350   0.25732   0.26555   0.27669   0.28561
  Beta virt. eigenvalues --    0.30914   0.31973   0.32824   0.33548   0.36744
  Beta virt. eigenvalues --    0.37669   0.40072   0.42164   0.42903   0.43175
  Beta virt. eigenvalues --    0.43939   0.46266   0.48736   0.51207   0.51670
  Beta virt. eigenvalues --    0.53117   0.55612   0.55874   0.57776   0.60271
  Beta virt. eigenvalues --    0.62922   0.66777   0.68109   0.68172   0.75269
  Beta virt. eigenvalues --    0.75815   0.76693   0.79191   0.81399   0.84645
  Beta virt. eigenvalues --    0.89137   0.89473   0.95926   1.00944   1.01285
  Beta virt. eigenvalues --    1.06920   1.12200   1.16271   1.22834   1.25155
  Beta virt. eigenvalues --    1.39010   1.39801   1.48432   1.52572   1.64837
  Beta virt. eigenvalues --    1.65986   1.74210   1.81008   1.82723   1.90422
  Beta virt. eigenvalues --    1.92715   1.94133   1.96493   2.01442   2.05241
  Beta virt. eigenvalues --    2.08644   2.16474   2.24986   2.34855   2.40712
  Beta virt. eigenvalues --    2.42665   2.47096   2.50588   2.68857   2.73292
  Beta virt. eigenvalues --    2.78309   2.82583   2.91508   2.98426   3.00431
  Beta virt. eigenvalues --    3.04284   3.12157   3.17903   3.21531   3.21681
  Beta virt. eigenvalues --    3.29374   3.33007   3.38911   3.41510   3.56430
  Beta virt. eigenvalues --    3.63167   3.73481   3.87961   3.96091   4.17679
  Beta virt. eigenvalues --    4.24052   4.27535   4.37498   4.63402   4.78949
  Beta virt. eigenvalues --    4.83814   4.88298   4.91288   5.01895   5.04666
  Beta virt. eigenvalues --    5.22116   5.29764   5.33321   5.43075   5.54116
  Beta virt. eigenvalues --    5.55938   5.68836   5.92074   6.39861   6.55254
  Beta virt. eigenvalues --    6.58472   6.66744   6.96567   7.13588   7.25559
  Beta virt. eigenvalues --    7.73130  22.68844  32.43015  44.42204
          Condensed to atoms (all electrons):
               1          2          3          4          5          6
     1  C    5.471092   0.468537  -0.048781  -0.088582   0.345258   0.356278
     2  N    0.468537   5.759120   0.436476   0.097393  -0.002983  -0.000447
     3  H   -0.048781   0.436476   0.470811  -0.063244  -0.011691  -0.002680
     4  O   -0.088582   0.097393  -0.063244   8.668630   0.003126  -0.002901
     5  H    0.345258  -0.002983  -0.011691   0.003126   0.345126   0.004895
     6  H    0.356278  -0.000447  -0.002680  -0.002901   0.004895   0.303913
          Atomic-Atomic Spin Densities.
               1          2          3          4          5          6
     1  C    0.000000   0.000000   0.000000   0.000000   0.000000   0.000000
     2  N    0.000000   0.000000   0.000000   0.000000   0.000000   0.000000
     3  H    0.000000   0.000000   0.000000   0.000000   0.000000   0.000000
     4  O    0.000000   0.000000   0.000000   0.000000   0.000000   0.000000
     5  H    0.000000   0.000000   0.000000   0.000000   0.000000   0.000000
     6  H    0.000000   0.000000   0.000000   0.000000   0.000000   0.000000
 Mulliken charges and spin densities:
               1          2
     1  C   -0.503803   0.000000
     2  N    0.241905   0.000000
     3  H    0.219108   0.000000
     4  O   -0.614421   0.000000
     5  H    0.316270   0.000000
     6  H    0.340941   0.000000
 Sum of Mulliken charges =  -0.00000   0.00000
 Mulliken charges and spin densities with hydrogens summed into heavy atoms:
               1          2
     1  C    0.153408   0.000000
     2  N    0.461013   0.000000
     4  O   -0.614421   0.000000
 Electronic spatial extent (au):  <R**2>=            516.3910
 Charge=             -0.0000 electrons
 Dipole moment (field-independent basis, Debye):
    X=             -2.1024    Y=              0.6719    Z=             -2.9133  Tot=              3.6550
 Quadrupole moment (field-independent basis, Debye-Ang):
   XX=            -26.3723   YY=            -19.1637   ZZ=            -18.9205
   XY=              2.2296   XZ=             -9.3179   YZ=              0.0650
 Traceless Quadrupole moment (field-independent basis, Debye-Ang):
   XX=             -4.8868   YY=              2.3218   ZZ=              2.5650
   XY=              2.2296   XZ=             -9.3179   YZ=              0.0650
 Octapole moment (field-independent basis, Debye-Ang**2):
  XXX=           -136.5841  YYY=              6.7330  ZZZ=            -23.4722  XYY=            -36.9699
  XXY=              9.0057  XXZ=            -34.6655  XZZ=            -40.7185  YZZ=              3.1493
  YYZ=             -6.6953  XYZ=              1.3112
 Hexadecapole moment (field-independent basis, Debye-Ang**3):
 XXXX=           -636.1444 YYYY=            -22.4712 ZZZZ=            -69.1184 XXXY=             37.5377
 XXXZ=           -140.0623 YYYX=             17.4298 YYYZ=              6.6542 ZZZX=            -66.5309
 ZZZY=              6.5884 XXYY=            -94.8247 XXZZ=           -114.1537 YYZZ=            -15.4368
 XXYZ=              6.1958 YYXZ=            -19.4991 ZZXY=              8.1926
 N-N= 7.235184463964D+01 E-N=-5.428795220152D+02  KE= 1.690660068064D+02
                          Isotropic Fermi Contact Couplings
        Atom                 a.u.       MegaHertz       Gauss      10(-4) cm-1
     1  C(13)              0.00000       0.00000       0.00000       0.00000
     2  N(14)              0.00000       0.00000       0.00000       0.00000
     3  H(1)               0.00000       0.00000       0.00000       0.00000
     4  O(17)              0.00000      -0.00000      -0.00000      -0.00000
     5  H(1)               0.00000       0.00000       0.00000       0.00000
     6  H(1)               0.00000       0.00000       0.00000       0.00000
 --------------------------------------------------------
       Center         ----  Spin Dipole Couplings  ----
                      3XX-RR        3YY-RR        3ZZ-RR
 --------------------------------------------------------
     1   Atom        0.000000      0.000000      0.000000
     2   Atom        0.000000      0.000000      0.000000
     3   Atom        0.000000      0.000000      0.000000
     4   Atom        0.000000      0.000000      0.000000
     5   Atom        0.000000      0.000000      0.000000
     6   Atom        0.000000      0.000000      0.000000
 --------------------------------------------------------
                        XY            XZ            YZ
 --------------------------------------------------------
     1   Atom        0.000000      0.000000      0.000000
     2   Atom        0.000000      0.000000      0.000000
     3   Atom        0.000000      0.000000      0.000000
     4   Atom        0.000000      0.000000      0.000000
     5   Atom        0.000000      0.000000      0.000000
     6   Atom        0.000000      0.000000      0.000000
 --------------------------------------------------------


 ---------------------------------------------------------------------------------
              Anisotropic Spin Dipole Couplings in Principal Axis System
 ---------------------------------------------------------------------------------

       Atom             a.u.   MegaHertz   Gauss  10(-4) cm-1        Axes

              Baa     0.0000     0.000     0.000     0.000  1.0000  0.0000  0.0000
     1 C(13)  Bbb     0.0000     0.000     0.000     0.000 -0.0000  1.0000  0.0000
              Bcc     0.0000     0.000     0.000     0.000  0.0000  0.0000  1.0000
 
              Baa     0.0000     0.000     0.000     0.000  1.0000  0.0000  0.0000
     2 N(14)  Bbb     0.0000     0.000     0.000     0.000 -0.0000  1.0000  0.0000
              Bcc     0.0000     0.000     0.000     0.000  0.0000  0.0000  1.0000
 
              Baa     0.0000     0.000     0.000     0.000  1.0000  0.0000  0.0000
     3 H(1)   Bbb     0.0000     0.000     0.000     0.000 -0.0000  1.0000  0.0000
              Bcc     0.0000     0.000     0.000     0.000  0.0000  0.0000  1.0000
 
              Baa     0.0000    -0.000    -0.000    -0.000  1.0000  0.0000  0.0000
     4 O(17)  Bbb     0.0000    -0.000    -0.000    -0.000 -0.0000  1.0000  0.0000
              Bcc     0.0000    -0.000    -0.000    -0.000  0.0000  0.0000  1.0000
 
              Baa     0.0000     0.000     0.000     0.000  1.0000  0.0000  0.0000
     5 H(1)   Bbb     0.0000     0.000     0.000     0.000 -0.0000  1.0000  0.0000
              Bcc     0.0000     0.000     0.000     0.000  0.0000  0.0000  1.0000
 
              Baa     0.0000     0.000     0.000     0.000  1.0000  0.0000  0.0000
     6 H(1)   Bbb     0.0000     0.000     0.000     0.000 -0.0000  1.0000  0.0000
              Bcc     0.0000     0.000     0.000     0.000  0.0000  0.0000  1.0000
 

 ---------------------------------------------------------------------------------

 No NMR shielding tensors so no spin-rotation constants.
 Leave Link  601 at Tue Jan  3 09:07:07 2023, MaxMem=   536870912 cpu:               0.4 elap:               0.2
 (Enter /opt/software/gaussian/g16.c01/l9999.exe)

 Test job not archived.
 1\1\GINC-GRA634\Stability\UwB97XD\Gen\C1H3N1O1\BHAVUK\03-Jan-2023\0\\#
 p uwb97xd/gen stable=opt scf=(maxcycle=900,verytightlineq,xqc) integra
 l=grid=ultrafine symmetry=None density=current iop(99/18=-1) output=wf
 n\\0002_q000_m01_k00_opt_uwb97xd_def2svpd/0002_q000_m01_k00_force_uwb9
 7xd_def2tzvpd stable-force\\0,1\C,0,0.9341359983,-0.0506101672,0.05339
 16633\N,0,2.2303561638,-0.0607282973,0.0971529523\H,0,2.7104299206,0.1
 445551233,-0.7929401941\O,0,2.9768985022,-0.2863976361,1.0755945973\H,
 0,0.4602474304,0.169181767,-0.8998201368\H,0,0.383341983,-0.2613407898
 ,0.9669611147\\Version=ES64L-G16RevC.01\HF=-169.8134223\S2=0.\S2-1=0.\
 S2A=0.\RMSD=5.940e-09\Dipole=-0.8271408,0.2643306,-1.1461936\Quadrupol
 e=-3.6332026,1.7261838,1.9070188,1.6576634,-6.9276655,0.0483357\PG=Unk
 nown\\@

 Writing a WFN file to "0002_q000_m01_k00_force_uwb97xd_def2tzvpd.wfn"


 WE MIGHT AS WELL ATTEMPT TO INTRODUCE A NEW PLANET 
 INTO THE SOLAR SYSTEM, OR TO ANNIHILATE ONE ALREADYIN EXISTENCE, 
 AS TO CREATE OR DESTROY A PARTICLE OF HYDROGEN.
 ALL THE CHANGES WE CAN PRODUCE CONSIST IN SEPARATING PARTICLES
 THAT ARE IN A STATE OF ... COMBINATION, AND JOINING 
 THOSE THAT WERE PREVIOUSLY AT A DISTANCE.

                                    -- JOHN DALTON, 1810
 Job cpu time:       0 days  0 hours  4 minutes 12.8 seconds.
 Elapsed time:       0 days  0 hours  2 minutes  6.9 seconds.
 File lengths (MBytes):  RWF=     95 Int=      0 D2E=      0 Chk=      4 Scr=      1
 Normal termination of Gaussian 16 at Tue Jan  3 09:07:08 2023.
 Initial command:
 /opt/software/gaussian/g16.c01/l1.exe "/localscratch/bhavuk.2151372.0/Gau-1132.inp" -scrdir="/localscratch/bhavuk.2151372.0/"
 Entering Link 1 = /opt/software/gaussian/g16.c01/l1.exe PID=      1606.
  
 Copyright (c) 1988-2019, Gaussian, Inc.  All Rights Reserved.
  
 This is part of the Gaussian(R) 16 program.  It is based on
 the Gaussian(R) 09 system (copyright 2009, Gaussian, Inc.),
 the Gaussian(R) 03 system (copyright 2003, Gaussian, Inc.),
 the Gaussian(R) 98 system (copyright 1998, Gaussian, Inc.),
 the Gaussian(R) 94 system (copyright 1995, Gaussian, Inc.),
 the Gaussian 92(TM) system (copyright 1992, Gaussian, Inc.),
 the Gaussian 90(TM) system (copyright 1990, Gaussian, Inc.),
 the Gaussian 88(TM) system (copyright 1988, Gaussian, Inc.),
 the Gaussian 86(TM) system (copyright 1986, Carnegie Mellon
 University), and the Gaussian 82(TM) system (copyright 1983,
 Carnegie Mellon University). Gaussian is a federally registered
 trademark of Gaussian, Inc.
  
 This software contains proprietary and confidential information,
 including trade secrets, belonging to Gaussian, Inc.
  
 This software is provided under written license and may be
 used, copied, transmitted, or stored only in accord with that
 written license.
  
 The following legend is applicable only to US Government
 contracts under FAR:
  
                    RESTRICTED RIGHTS LEGEND
  
 Use, reproduction and disclosure by the US Government is
 subject to restrictions as set forth in subparagraphs (a)
 and (c) of the Commercial Computer Software - Restricted
 Rights clause in FAR 52.227-19.
  
 Gaussian, Inc.
 340 Quinnipiac St., Bldg. 40, Wallingford CT 06492
  
  
 ---------------------------------------------------------------
 Warning -- This program may not be used in any manner that
 competes with the business of Gaussian, Inc. or will provide
 assistance to any competitor of Gaussian, Inc.  The licensee
 of this program is prohibited from giving any competitor of
 Gaussian, Inc. access to this program.  By using this program,
 the user acknowledges that Gaussian, Inc. is engaged in the
 business of creating and licensing software in the field of
 computational chemistry and represents and warrants to the
 licensee that it is not a competitor of Gaussian, Inc. and that
 it will not use this program in any manner prohibited above.
 ---------------------------------------------------------------
  

 Cite this work as:
 Gaussian 16, Revision C.01,
 M. J. Frisch, G. W. Trucks, H. B. Schlegel, G. E. Scuseria, 
 M. A. Robb, J. R. Cheeseman, G. Scalmani, V. Barone, 
 G. A. Petersson, H. Nakatsuji, X. Li, M. Caricato, A. V. Marenich, 
 J. Bloino, B. G. Janesko, R. Gomperts, B. Mennucci, H. P. Hratchian, 
 J. V. Ortiz, A. F. Izmaylov, J. L. Sonnenberg, D. Williams-Young, 
 F. Ding, F. Lipparini, F. Egidi, J. Goings, B. Peng, A. Petrone, 
 T. Henderson, D. Ranasinghe, V. G. Zakrzewski, J. Gao, N. Rega, 
 G. Zheng, W. Liang, M. Hada, M. Ehara, K. Toyota, R. Fukuda, 
 J. Hasegawa, M. Ishida, T. Nakajima, Y. Honda, O. Kitao, H. Nakai, 
 T. Vreven, K. Throssell, J. A. Montgomery, Jr., J. E. Peralta, 
 F. Ogliaro, M. J. Bearpark, J. J. Heyd, E. N. Brothers, K. N. Kudin, 
 V. N. Staroverov, T. A. Keith, R. Kobayashi, J. Normand, 
 K. Raghavachari, A. P. Rendell, J. C. Burant, S. S. Iyengar, 
 J. Tomasi, M. Cossi, J. M. Millam, M. Klene, C. Adamo, R. Cammi, 
 J. W. Ochterski, R. L. Martin, K. Morokuma, O. Farkas, 
 J. B. Foresman, and D. J. Fox, Gaussian, Inc., Wallingford CT, 2019.
 
 ******************************************
 Gaussian 16:  ES64L-G16RevC.01  3-Jul-2019
                 3-Jan-2023 
 ******************************************
 %chk=0002_q000_m01_k00_force_uwb97xd_def2tzvpd.chk
 %nprocshared=2
 Will use up to    2 processors via shared memory.
 %mem=4GB
 ----------------------------------------------------------------------
 #p uwb97xd/chkbasis force guess=read geom=check scf=(maxcycle=900,very
 tightlineq,xqc) integral=grid=ultrafine symmetry=None density=current 
 pop=(cm5,hlygat,mbs,npa) output=wfx
 ----------------------------------------------------------------------
 1/10=7,29=2,30=1,38=1/1,3;
 2/12=2,15=3,40=1/2;
 3/5=7,6=2,11=2,14=-4,25=1,30=1,67=1,71=1,74=-58,75=-5,116=2/1,2,3;
 4/5=1/1;
 5/5=2,7=900,8=3,13=1,17=3,38=6/2,8;
 6/7=2,8=2,9=2,10=2,15=8,20=15,22=-1,27=100,28=1,40=-1,79=1/1,2,7;
 7/29=1,30=1/1,2,3,16;
 1/10=7,30=1/3;
 99/6=200/99;
 Leave Link    1 at Tue Jan  3 09:07:08 2023, MaxMem=   536870912 cpu:               0.2 elap:               0.1
 (Enter /opt/software/gaussian/g16.c01/l101.exe)
 ----------------------------------------------------------------------
 0002_q000_m01_k00_opt_uwb97xd_def2svpd/0002_q000_m01_k00_force_uwb97xd
 _def2tzvpd stable-force
 ----------------------------------------------------------------------
 Structure from the checkpoint file:  "0002_q000_m01_k00_force_uwb97xd_def2tzvpd.chk"
 Charge =  0 Multiplicity = 1
 Z-Matrix found in chk file.
 C,0,0.9341359983,-0.0506101672,0.0533916633
 N,0,2.2303561638,-0.0607282973,0.0971529523
 H,0,2.7104299206,0.1445551233,-0.7929401941
 O,0,2.9768985022,-0.2863976361,1.0755945973
 H,0,0.4602474304,0.169181767,-0.8998201368
 H,0,0.383341983,-0.2613407898,0.9669611147
 Recover connectivity data from disk.
 ITRead=  0  0  0  0  0  0
 MicOpt= -1 -1 -1 -1 -1 -1
 NAtoms=      6 NQM=        6 NQMF=       0 NMMI=      0 NMMIF=      0
                NMic=       0 NMicF=      0.
                    Isotopes and Nuclear Properties:
 (Nuclear quadrupole moments (NQMom) in fm**2, nuclear magnetic moments (NMagM)
  in nuclear magnetons)

  Atom         1           2           3           4           5           6
 IAtWgt=          12          14           1          16           1           1
 AtmWgt=  12.0000000  14.0030740   1.0078250  15.9949146   1.0078250   1.0078250
 NucSpn=           0           2           1           0           1           1
 AtZEff=   3.6000000   4.5500000   1.0000000   5.6000000   1.0000000   1.0000000
 NQMom=    0.0000000   2.0440000   0.0000000   0.0000000   0.0000000   0.0000000
 NMagM=    0.0000000   0.4037610   2.7928460   0.0000000   2.7928460   2.7928460
 AtZNuc=   6.0000000   7.0000000   1.0000000   8.0000000   1.0000000   1.0000000
 Leave Link  101 at Tue Jan  3 09:07:08 2023, MaxMem=   536870912 cpu:               0.3 elap:               0.2
 (Enter /opt/software/gaussian/g16.c01/l103.exe)

 GradGradGradGradGradGradGradGradGradGradGradGradGradGradGradGradGradGrad
 Berny optimization.
 Initialization pass.
 Trust Radius=3.00D-01 FncErr=1.00D-07 GrdErr=1.00D-07 EigMax=2.50D+02 EigMin=1.00D-04
 Number of steps in this run=      2 maximum allowed number of steps=      2.
 GradGradGradGradGradGradGradGradGradGradGradGradGradGradGradGradGradGrad

 Leave Link  103 at Tue Jan  3 09:07:08 2023, MaxMem=   536870912 cpu:               0.1 elap:               0.0
 (Enter /opt/software/gaussian/g16.c01/l202.exe)
                          Input orientation:                          
 ---------------------------------------------------------------------
 Center     Atomic      Atomic             Coordinates (Angstroms)
 Number     Number       Type             X           Y           Z
 ---------------------------------------------------------------------
      1          6           0        0.934136   -0.050610    0.053392
      2          7           0        2.230356   -0.060728    0.097153
      3          1           0        2.710430    0.144555   -0.792940
      4          8           0        2.976899   -0.286398    1.075595
      5          1           0        0.460247    0.169182   -0.899820
      6          1           0        0.383342   -0.261341    0.966961
 ---------------------------------------------------------------------
                    Distance matrix (angstroms):
                    1          2          3          4          5
     1  C    0.000000
     2  N    1.296998   0.000000
     3  H    1.977268   1.031929   0.000000
     4  O    2.296383   1.251239   1.936013   0.000000
     5  H    1.086964   2.044529   2.252854   3.231617   0.000000
     6  H    1.087378   2.051408   2.945733   2.595952   1.917325
                    6
     6  H    0.000000
 Symmetry turned off by external request.
 Stoichiometry    CH3NO
 Rotational constants (GHZ):          75.8819039          11.9122881          10.2959784
 Leave Link  202 at Tue Jan  3 09:07:08 2023, MaxMem=   536870912 cpu:               0.0 elap:               0.0
 (Enter /opt/software/gaussian/g16.c01/l301.exe)
 Basis read from chk: "0002_q000_m01_k00_force_uwb97xd_def2tzvpd.chk" (5D, 7F)
 No pseudopotential information found on chk file.
   141 basis functions,   210 primitive gaussians,   159 cartesian basis functions
    12 alpha electrons       12 beta electrons
       nuclear repulsion energy        72.3526514420 Hartrees.
 IExCor= 4639 DFT=T Ex+Corr=wB97XD ExCW=0 ScaHFX=  1.000000
 ScaDFX=  1.000000  1.000000  1.000000  1.000000 ScalE2=  1.000000  1.000000
 IRadAn=      5 IRanWt=     -1 IRanGd=            0 ICorTp=0 IEmpDi=121
 HFx  wShort=  0.000000 wLong=  0.200000 cFull=  0.222036 cShort=  0.000000 cLong=  0.777964
 DFx  wShort=  0.000000 wLong=  0.200000 cFull=  0.000000 cShort=  0.000000 cLong=  1.000000
 NAtoms=    6 NActive=    6 NUniq=    6 SFac= 1.00D+00 NAtFMM=   60 NAOKFM=F Big=F
 Integral buffers will be    131072 words long.
 Raffenetti 2 integral format.
 Two-electron integral symmetry is turned off.
 R6Disp:  Grimme-D2 Dispersion energy=       -0.0008068023 Hartrees.
 Nuclear repulsion after empirical dispersion term =       72.3518446396 Hartrees.
 No density basis found on file  20724.
 Leave Link  301 at Tue Jan  3 09:07:08 2023, MaxMem=   536870912 cpu:               0.1 elap:               0.1
 (Enter /opt/software/gaussian/g16.c01/l302.exe)
 NPDir=0 NMtPBC=     1 NCelOv=     1 NCel=       1 NClECP=     1 NCelD=      1
         NCelK=      1 NCelE2=     1 NClLst=     1 CellRange=     0.0.
 One-electron integrals computed using PRISM.
 NBasis=   141 RedAO= T EigKep=  4.92D-05  NBF=   141
 NBsUse=   141 1.00D-06 EigRej= -1.00D+00 NBFU=   141
 Precomputing XC quadrature grid using
 IXCGrd= 4 IRadAn=           5 IRanWt=          -1 IRanGd=           0 AccXCQ= 0.00D+00.
 Generated NRdTot=       0 NPtTot=           0 NUsed=           0 NTot=          32
 NSgBfM=   159   159   159   159   159 MxSgAt=     6 MxSgA2=     6.
 Leave Link  302 at Tue Jan  3 09:07:08 2023, MaxMem=   536870912 cpu:               0.4 elap:               0.2
 (Enter /opt/software/gaussian/g16.c01/l303.exe)
 DipDrv:  MaxL=1.
 Leave Link  303 at Tue Jan  3 09:07:08 2023, MaxMem=   536870912 cpu:               0.1 elap:               0.1
 (Enter /opt/software/gaussian/g16.c01/l401.exe)
 Initial guess from the checkpoint file:  "0002_q000_m01_k00_force_uwb97xd_def2tzvpd.chk"
 B after Tr=     0.000000    0.000000    0.000000
         Rot=    1.000000    0.000000    0.000000    0.000000 Ang=   0.00 deg.
 Guess basis will be translated and rotated to current coordinates.
 JPrj=2 DoOrth=T DoCkMO=T.
 Initial guess <Sx>= 0.0000 <Sy>= 0.0000 <Sz>= 0.0000 <S**2>= 0.0000 S= 0.0000
 Leave Link  401 at Tue Jan  3 09:07:09 2023, MaxMem=   536870912 cpu:               0.3 elap:               0.2
 (Enter /opt/software/gaussian/g16.c01/l502.exe)
 Keep R1 and R2 ints in memory in canonical form, NReq=203940318.
 FoFCou: FMM=F IPFlag=           0 FMFlag=           0 FMFlg1=           0
         NFxFlg=           0 DoJE=F BraDBF=F KetDBF=F FulRan=T
         wScrn=  0.000000 ICntrl=       600 IOpCl=  0 I1Cent=           0 NGrid=           0
         NMat0=    1 NMatS0=  10011 NMatT0=    0 NMatD0=    1 NMtDS0=    0 NMtDT0=    0
 Symmetry not used in FoFCou.
 Two-electron integral symmetry not used.
 UHF open shell SCF:
 Using DIIS extrapolation, IDIIS=  1040.
 NGot=   536870912 LenX=   336357859 LenY=   336332137
 Requested convergence on RMS density matrix=1.00D-08 within 128 cycles.
 Requested convergence on MAX density matrix=1.00D-06.
 Requested convergence on             energy=1.00D-06.
 No special actions if energy rises.

 Cycle   1  Pass 1  IDiag  1:
 E= -169.813422347323    
 DIIS: error= 5.98D-09 at cycle   1 NSaved=   1.
 NSaved= 1 IEnMin= 1 EnMin= -169.813422347323     IErMin= 1 ErrMin= 5.98D-09
 ErrMax= 5.98D-09  0.00D+00 EMaxC= 1.00D-01 BMatC= 2.00D-14 BMatP= 2.00D-14
 IDIUse=1 WtCom= 1.00D+00 WtEn= 0.00D+00
 Coeff-Com:  0.100D+01
 Coeff:      0.100D+01
 Gap=     0.350 Goal=   None    Shift=    0.000
 Gap=     0.350 Goal=   None    Shift=    0.000
 RMSDP=1.50D-09 MaxDP=3.82D-08              OVMax= 5.75D-08

 SCF Done:  E(UwB97XD) =  -169.813422347     A.U. after    1 cycles
            NFock=  1  Conv=0.15D-08     -V/T= 2.0044
 <Sx>= 0.0000 <Sy>= 0.0000 <Sz>= 0.0000 <S**2>=-0.0000 S=-0.0000
 <L.S>=  0.00000000000    
 KE= 1.690660064383D+02 PE=-5.428795216471D+02 EE= 1.316482482218D+02
 Annihilation of the first spin contaminant:
 S**2 before annihilation     0.0000,   after    -0.0000
 Leave Link  502 at Tue Jan  3 09:07:14 2023, MaxMem=   536870912 cpu:              10.9 elap:               5.6
 (Enter /opt/software/gaussian/g16.c01/l508.exe)
 QCSCF skips out because SCF is already converged.
 Leave Link  508 at Tue Jan  3 09:07:14 2023, MaxMem=   536870912 cpu:               0.0 elap:               0.0
 (Enter /opt/software/gaussian/g16.c01/l601.exe)
 Copying SCF densities to generalized density rwf, IOpCl= 1 IROHF=0.

 **********************************************************************

            Population analysis using the SCF Density.

 **********************************************************************

 Alpha  occ. eigenvalues --  -19.23452 -14.58963 -10.33500  -1.22550  -0.96850
 Alpha  occ. eigenvalues --   -0.76330  -0.64639  -0.57948  -0.55243  -0.51215
 Alpha  occ. eigenvalues --   -0.35038  -0.32048
 Alpha virt. eigenvalues --    0.02961   0.05885   0.08548   0.11775   0.13864
 Alpha virt. eigenvalues --    0.14160   0.14911   0.16747   0.19820   0.21249
 Alpha virt. eigenvalues --    0.21350   0.25732   0.26555   0.27669   0.28561
 Alpha virt. eigenvalues --    0.30914   0.31973   0.32824   0.33548   0.36744
 Alpha virt. eigenvalues --    0.37669   0.40072   0.42164   0.42903   0.43175
 Alpha virt. eigenvalues --    0.43939   0.46266   0.48736   0.51207   0.51670
 Alpha virt. eigenvalues --    0.53117   0.55612   0.55874   0.57776   0.60271
 Alpha virt. eigenvalues --    0.62922   0.66777   0.68109   0.68172   0.75269
 Alpha virt. eigenvalues --    0.75815   0.76693   0.79191   0.81399   0.84645
 Alpha virt. eigenvalues --    0.89137   0.89473   0.95926   1.00944   1.01285
 Alpha virt. eigenvalues --    1.06920   1.12200   1.16271   1.22834   1.25155
 Alpha virt. eigenvalues --    1.39010   1.39801   1.48432   1.52572   1.64837
 Alpha virt. eigenvalues --    1.65986   1.74210   1.81008   1.82723   1.90422
 Alpha virt. eigenvalues --    1.92715   1.94133   1.96493   2.01442   2.05241
 Alpha virt. eigenvalues --    2.08644   2.16474   2.24986   2.34855   2.40712
 Alpha virt. eigenvalues --    2.42665   2.47096   2.50588   2.68857   2.73292
 Alpha virt. eigenvalues --    2.78309   2.82583   2.91508   2.98426   3.00431
 Alpha virt. eigenvalues --    3.04284   3.12157   3.17903   3.21531   3.21681
 Alpha virt. eigenvalues --    3.29374   3.33007   3.38911   3.41510   3.56430
 Alpha virt. eigenvalues --    3.63167   3.73481   3.87961   3.96091   4.17679
 Alpha virt. eigenvalues --    4.24052   4.27535   4.37498   4.63402   4.78949
 Alpha virt. eigenvalues --    4.83814   4.88298   4.91288   5.01895   5.04666
 Alpha virt. eigenvalues --    5.22116   5.29764   5.33321   5.43075   5.54116
 Alpha virt. eigenvalues --    5.55938   5.68836   5.92074   6.39861   6.55254
 Alpha virt. eigenvalues --    6.58472   6.66744   6.96567   7.13588   7.25559
 Alpha virt. eigenvalues --    7.73130  22.68844  32.43015  44.42204
  Beta  occ. eigenvalues --  -19.23452 -14.58963 -10.33500  -1.22550  -0.96850
  Beta  occ. eigenvalues --   -0.76330  -0.64639  -0.57948  -0.55243  -0.51215
  Beta  occ. eigenvalues --   -0.35038  -0.32048
  Beta virt. eigenvalues --    0.02961   0.05885   0.08548   0.11775   0.13864
  Beta virt. eigenvalues --    0.14160   0.14911   0.16747   0.19820   0.21249
  Beta virt. eigenvalues --    0.21350   0.25732   0.26555   0.27669   0.28561
  Beta virt. eigenvalues --    0.30914   0.31973   0.32824   0.33548   0.36744
  Beta virt. eigenvalues --    0.37669   0.40072   0.42164   0.42903   0.43175
  Beta virt. eigenvalues --    0.43939   0.46266   0.48736   0.51207   0.51670
  Beta virt. eigenvalues --    0.53117   0.55612   0.55874   0.57776   0.60271
  Beta virt. eigenvalues --    0.62922   0.66777   0.68109   0.68172   0.75269
  Beta virt. eigenvalues --    0.75815   0.76693   0.79191   0.81399   0.84645
  Beta virt. eigenvalues --    0.89137   0.89473   0.95926   1.00944   1.01285
  Beta virt. eigenvalues --    1.06920   1.12200   1.16271   1.22834   1.25155
  Beta virt. eigenvalues --    1.39010   1.39801   1.48432   1.52572   1.64837
  Beta virt. eigenvalues --    1.65986   1.74210   1.81008   1.82723   1.90422
  Beta virt. eigenvalues --    1.92715   1.94133   1.96493   2.01442   2.05241
  Beta virt. eigenvalues --    2.08644   2.16474   2.24986   2.34855   2.40712
  Beta virt. eigenvalues --    2.42665   2.47096   2.50588   2.68857   2.73292
  Beta virt. eigenvalues --    2.78309   2.82583   2.91508   2.98426   3.00431
  Beta virt. eigenvalues --    3.04284   3.12157   3.17903   3.21531   3.21681
  Beta virt. eigenvalues --    3.29374   3.33007   3.38911   3.41510   3.56430
  Beta virt. eigenvalues --    3.63167   3.73481   3.87961   3.96091   4.17679
  Beta virt. eigenvalues --    4.24052   4.27535   4.37498   4.63402   4.78949
  Beta virt. eigenvalues --    4.83814   4.88298   4.91288   5.01895   5.04666
  Beta virt. eigenvalues --    5.22116   5.29764   5.33321   5.43075   5.54116
  Beta virt. eigenvalues --    5.55938   5.68836   5.92074   6.39861   6.55254
  Beta virt. eigenvalues --    6.58472   6.66744   6.96567   7.13588   7.25559
  Beta virt. eigenvalues --    7.73130  22.68844  32.43015  44.42204
          Condensed to atoms (all electrons):
               1          2          3          4          5          6
     1  C    5.471092   0.468537  -0.048781  -0.088582   0.345258   0.356278
     2  N    0.468537   5.759120   0.436476   0.097393  -0.002983  -0.000447
     3  H   -0.048781   0.436476   0.470811  -0.063243  -0.011692  -0.002680
     4  O   -0.088582   0.097393  -0.063243   8.668630   0.003126  -0.002901
     5  H    0.345258  -0.002983  -0.011692   0.003126   0.345126   0.004895
     6  H    0.356278  -0.000447  -0.002680  -0.002901   0.004895   0.303913
          Atomic-Atomic Spin Densities.
               1          2          3          4          5          6
     1  C    0.000000   0.000000   0.000000   0.000000   0.000000   0.000000
     2  N    0.000000   0.000000   0.000000   0.000000   0.000000   0.000000
     3  H    0.000000   0.000000   0.000000   0.000000   0.000000   0.000000
     4  O    0.000000   0.000000   0.000000   0.000000   0.000000   0.000000
     5  H    0.000000   0.000000   0.000000   0.000000   0.000000   0.000000
     6  H    0.000000   0.000000   0.000000   0.000000   0.000000   0.000000
 Mulliken charges and spin densities:
               1          2
     1  C   -0.503802   0.000000
     2  N    0.241905   0.000000
     3  H    0.219108   0.000000
     4  O   -0.614421   0.000000
     5  H    0.316270   0.000000
     6  H    0.340941   0.000000
 Sum of Mulliken charges =   0.00000   0.00000
 Mulliken charges and spin densities with hydrogens summed into heavy atoms:
               1          2
     1  C    0.153408   0.000000
     2  N    0.461013   0.000000
     4  O   -0.614421   0.000000
 Electronic spatial extent (au):  <R**2>=            516.3910
 Charge=             -0.0000 electrons
 Dipole moment (field-independent basis, Debye):
    X=             -2.1024    Y=              0.6719    Z=             -2.9133  Tot=              3.6550
 Quadrupole moment (field-independent basis, Debye-Ang):
   XX=            -26.3723   YY=            -19.1637   ZZ=            -18.9205
   XY=              2.2296   XZ=             -9.3179   YZ=              0.0650
 Traceless Quadrupole moment (field-independent basis, Debye-Ang):
   XX=             -4.8868   YY=              2.3218   ZZ=              2.5650
   XY=              2.2296   XZ=             -9.3179   YZ=              0.0650
 Octapole moment (field-independent basis, Debye-Ang**2):
  XXX=           -136.5841  YYY=              6.7330  ZZZ=            -23.4722  XYY=            -36.9699
  XXY=              9.0057  XXZ=            -34.6655  XZZ=            -40.7185  YZZ=              3.1493
  YYZ=             -6.6953  XYZ=              1.3112
 Hexadecapole moment (field-independent basis, Debye-Ang**3):
 XXXX=           -636.1444 YYYY=            -22.4712 ZZZZ=            -69.1184 XXXY=             37.5377
 XXXZ=           -140.0623 YYYX=             17.4298 YYYZ=              6.6542 ZZZX=            -66.5309
 ZZZY=              6.5884 XXYY=            -94.8247 XXZZ=           -114.1537 YYZZ=            -15.4368
 XXYZ=              6.1958 YYXZ=            -19.4991 ZZXY=              8.1926
 N-N= 7.235184463964D+01 E-N=-5.428795212316D+02  KE= 1.690660064383D+02
 There are a total of      137022 grid points.
 ElSum from          density=       24.0000008159
 ElSum from atomic densities=       24.0000001944

 Hirshfeld populations at iteration   1 (CX, CA, CB, DipXYZ):
               1          2          3          4          5          6
     1  C    0.000000   3.018936   3.018936  -0.038207  -0.003365   0.014590
     2  N    0.000000   3.453654   3.453654   0.065676   0.003155  -0.013685
     3  H    0.000003   0.427319   0.427319   0.095570   0.037723  -0.163574
     4  O    0.000022   4.159229   4.159229  -0.135312   0.034687  -0.150391
     5  H    0.000000   0.473246   0.473246  -0.084148   0.033171  -0.143869
[...]
    56    N    2  dxz    Ryd( 4d)     0.00111       1.87584
    57    N    2  dxz    Ryd( 3d)     0.00011       1.81873
    58    N    2  dxz    Ryd( 5d)     0.00019       4.88305
    59    N    2  dyz    Ryd( 3d)     0.00192       1.12041
    60    N    2  dyz    Ryd( 4d)     0.00006       1.32174
    61    N    2  dyz    Ryd( 5d)     0.00004       4.46980
    62    N    2  dx2y2  Ryd( 4d)     0.00228       1.55914
    63    N    2  dx2y2  Ryd( 3d)     0.00033       1.48262
    64    N    2  dx2y2  Ryd( 5d)     0.00002       4.77219
    65    N    2  dz2    Ryd( 4d)     0.00330       1.60316
    66    N    2  dz2    Ryd( 3d)     0.00009       1.49367
    67    N    2  dz2    Ryd( 5d)     0.00004       4.63491
    68    N    2  f(0)   Ryd( 4f)     0.00004       4.78732
    69    N    2  f(C1)  Ryd( 4f)     0.00005       5.45025
    70    N    2  f(S1)  Ryd( 4f)     0.00004       4.51404
    71    N    2  f(C2)  Ryd( 4f)     0.00010       4.87244
    72    N    2  f(S2)  Ryd( 4f)     0.00004       4.70529
    73    N    2  f(C3)  Ryd( 4f)     0.00006       4.77170
    74    N    2  f(S3)  Ryd( 4f)     0.00012       4.56448
 
    75    H    3  S      Val( 1S)     0.32207       0.02600
    76    H    3  S      Ryd( 3S)     0.00029       2.20074
    77    H    3  S      Ryd( 2S)     0.00003       1.00540
    78    H    3  px     Ryd( 2p)     0.00056       0.56366
    79    H    3  px     Ryd( 3p)     0.00003       2.50020
    80    H    3  py     Ryd( 2p)     0.00045       0.47337
    81    H    3  py     Ryd( 3p)     0.00005       2.06098
    82    H    3  pz     Ryd( 2p)     0.00083       0.46018
    83    H    3  pz     Ryd( 3p)     0.00004       2.91363
 
    84    O    4  S      Cor( 1S)     0.99993     -19.03991
    85    O    4  S      Val( 2S)     0.88151      -0.93885
    86    O    4  S      Ryd( 4S)     0.00181       1.34132
    87    O    4  S      Ryd( 3S)     0.00003       0.88025
    88    O    4  S      Ryd( 5S)     0.00000       5.56201
    89    O    4  S      Ryd( 6S)     0.00000      41.56409
    90    O    4  px     Val( 2p)     0.82798      -0.30112
    91    O    4  px     Ryd( 4p)     0.00115       1.23403
    92    O    4  px     Ryd( 3p)     0.00006       0.53767
    93    O    4  px     Ryd( 5p)     0.00002       3.38929
    94    O    4  py     Val( 2p)     0.79957      -0.29955
    95    O    4  py     Ryd( 4p)     0.00126       1.03110
    96    O    4  py     Ryd( 3p)     0.00001       0.36412
    97    O    4  py     Ryd( 5p)     0.00000       2.94707
    98    O    4  pz     Val( 2p)     0.72973      -0.27135
    99    O    4  pz     Ryd( 4p)     0.00096       1.30137
   100    O    4  pz     Ryd( 3p)     0.00005       0.58055
   101    O    4  pz     Ryd( 5p)     0.00003       3.49829
   102    O    4  dxy    Ryd( 4d)     0.00041       1.86639
   103    O    4  dxy    Ryd( 3d)     0.00010       0.99266
   104    O    4  dxy    Ryd( 5d)     0.00000       6.31301
   105    O    4  dxz    Ryd( 4d)     0.00252       2.10338
   106    O    4  dxz    Ryd( 3d)     0.00011       1.17665
   107    O    4  dxz    Ryd( 5d)     0.00000       6.57896
   108    O    4  dyz    Ryd( 4d)     0.00095       1.95187
   109    O    4  dyz    Ryd( 3d)     0.00003       0.98596
   110    O    4  dyz    Ryd( 5d)     0.00001       6.36407
   111    O    4  dx2y2  Ryd( 4d)     0.00059       1.90200
   112    O    4  dx2y2  Ryd( 3d)     0.00004       1.04034
   113    O    4  dx2y2  Ryd( 5d)     0.00001       6.35601
   114    O    4  dz2    Ryd( 4d)     0.00133       2.11110
   115    O    4  dz2    Ryd( 3d)     0.00007       1.04272
   116    O    4  dz2    Ryd( 5d)     0.00003       6.49039
   117    O    4  f(0)   Ryd( 4f)     0.00002       5.83593
   118    O    4  f(C1)  Ryd( 4f)     0.00009       5.92481
   119    O    4  f(S1)  Ryd( 4f)     0.00002       5.58227
   120    O    4  f(C2)  Ryd( 4f)     0.00005       5.73392
   121    O    4  f(S2)  Ryd( 4f)     0.00004       5.70377
   122    O    4  f(C3)  Ryd( 4f)     0.00001       5.42730
   123    O    4  f(S3)  Ryd( 4f)     0.00001       5.41100
 
   124    H    5  S      Val( 1S)     0.40088      -0.01708
   125    H    5  S      Ryd( 2S)     0.00025       1.31862
   126    H    5  S      Ryd( 3S)     0.00002       1.62344
   127    H    5  px     Ryd( 2p)     0.00011       0.52008
   128    H    5  px     Ryd( 3p)     0.00012       2.40501
   129    H    5  py     Ryd( 2p)     0.00080       0.40206
   130    H    5  py     Ryd( 3p)     0.00005       2.07636
   131    H    5  pz     Ryd( 2p)     0.00017       0.43247
   132    H    5  pz     Ryd( 3p)     0.00031       2.74018
 
   133    H    6  S      Val( 1S)     0.39375      -0.00051
   134    H    6  S      Ryd( 2S)     0.00074       1.08004
   135    H    6  S      Ryd( 3S)     0.00003       1.79941
   136    H    6  px     Ryd( 2p)     0.00018       0.52547
   137    H    6  px     Ryd( 3p)     0.00009       2.44136
   138    H    6  py     Ryd( 2p)     0.00039       0.48170
   139    H    6  py     Ryd( 3p)     0.00012       1.98679
   140    H    6  pz     Ryd( 2p)     0.00028       0.50311
   141    H    6  pz     Ryd( 3p)     0.00026       2.62412

 WARNING:  Population inversion found on atom  C    1
           Population inversion found on atom  N    2
           Population inversion found on atom  H    3
           Population inversion found on atom  O    4
           Population inversion found on atom  H    5


 Summary of Natural Population Analysis:                  
                                                          
                                       Natural Population 
                Natural  -----------------------------------------------
    Atom  No    Charge         Core      Valence    Rydberg      Total
 -----------------------------------------------------------------------
      C    1   -0.11686      0.99972     2.10674    0.01040     3.11686
      N    2   -0.00971      0.99971     2.48746    0.02255     3.50971
      H    3    0.17565      0.00000     0.32207    0.00228     0.32435
      O    4   -0.25055      0.99993     3.23880    0.01182     4.25055
      H    5    0.09729      0.00000     0.40088    0.00182     0.40271
      H    6    0.10418      0.00000     0.39375    0.00207     0.39582
 =======================================================================
   * Total *   -0.00000      2.99937     8.94970    0.05094    12.00000

                                 Natural Population      
 --------------------------------------------------------
   Core                       2.99937 ( 99.9789% of   3)
   Valence                    8.94970 ( 99.4411% of   9)
   Natural Minimal Basis     11.94906 ( 99.5755% of  12)
   Natural Rydberg Basis      0.05094 (  0.4245% of  12)
 --------------------------------------------------------

    Atom  No          Natural Electron Configuration
 ----------------------------------------------------------------------------
      C    1      [core]2S( 0.53)2p( 1.57)3p( 0.01)
      N    2      [core]2S( 0.60)2p( 1.88)3p( 0.01)4d( 0.01)
      H    3            1S( 0.32)
      O    4      [core]2S( 0.88)2p( 2.36)4d( 0.01)
      H    5            1S( 0.40)
      H    6            1S( 0.39)


 NBO analysis skipped by request.
 Leave Link  607 at Tue Jan  3 09:07:17 2023, MaxMem=   536870912 cpu:               3.6 elap:               1.8
 (Enter /opt/software/gaussian/g16.c01/l701.exe)
 ... and contract with generalized density number  0.
 Compute integral first derivatives.
 R6Disp: Adding Grimme-D2 dispersion energy 1st derivatives to the gradient.
 Leave Link  701 at Tue Jan  3 09:07:18 2023, MaxMem=   536870912 cpu:               0.3 elap:               0.2
 (Enter /opt/software/gaussian/g16.c01/l702.exe)
 L702 exits ... SP integral derivatives will be done elsewhere.
 Leave Link  702 at Tue Jan  3 09:07:18 2023, MaxMem=   536870912 cpu:               0.1 elap:               0.1
 (Enter /opt/software/gaussian/g16.c01/l703.exe)
 Integral derivatives from FoFJK, PRISM(SPDF).
 Compute integral first derivatives, UseDBF=F ICtDFT=           0.
 Calling FoFJK, ICntrl=      2127 FMM=F ISym2X=0 I1Cent= 0 IOpClX= 1 NMat=1 NMatS=1 NMatT=0.
 FoFJK:  IHMeth= 1 ICntrl=    2127 DoSepK=T KAlg= 0 I1Cent=           0 FoldK=F
 IRaf=         1 NMat=       1 IRICut=       1 DoRegI=T DoRafI=F ISym2E= 0 IDoP0=0 IntGTp=1.
 FoFCou: FMM=F IPFlag=           0 FMFlag=      100000 FMFlg1=         800
         NFxFlg=           0 DoJE=F BraDBF=F KetDBF=F FulRan=T
         wScrn=  0.000000 ICntrl=      2527 IOpCl=  0 I1Cent=           0 NGrid=           0
         NMat0=    1 NMatS0=      1 NMatT0=    0 NMatD0=    1 NMtDS0=    0 NMtDT0=    0
 Symmetry not used in FoFCou.
 Leave Link  703 at Tue Jan  3 09:07:28 2023, MaxMem=   536870912 cpu:              21.5 elap:              10.8
 (Enter /opt/software/gaussian/g16.c01/l716.exe)
 Dipole        =-8.27140680D-01 2.64330614D-01-1.14619357D+00
 -------------------------------------------------------------------
 Center     Atomic                   Forces (Hartrees/Bohr)
 Number     Number              X              Y              Z
 -------------------------------------------------------------------
      1        6           0.000315437   -0.000000608    0.000004106
      2        7          -0.003031720    0.000687694   -0.002981756
      3        1          -0.002146119   -0.000744097    0.003232469
      4        8          -0.000842394    0.000126101   -0.000548284
      5        1           0.002694793   -0.001223350    0.005302091
      6        1           0.003010003    0.001154259   -0.005008626
 -------------------------------------------------------------------
 Cartesian Forces:  Max     0.005302091 RMS     0.002445387
 Z-matrix is all fixed cartesians, so copy forces.
 Force constants in Cartesian coordinates: 
                1             2             3             4             5 
      1  0.101329D+01
      2 -0.181037D-02  0.203575D+00
      3  0.786374D-02 -0.124878D+00  0.716256D+00
      4 -0.679882D+00  0.300493D-02 -0.129771D-01  0.122912D+01
      5  0.376763D-02 -0.101951D+00  0.210923D-01 -0.513644D-01  0.222812D+00
      6 -0.162703D-01  0.210924D-01 -0.188542D+00  0.222639D+00 -0.201358D+00
      7 -0.102620D-02 -0.665546D-02  0.288574D-01 -0.181518D+00 -0.289962D-01
      8  0.121571D-03  0.160790D-01  0.116710D-03 -0.287431D-01 -0.726755D-01
      9 -0.525445D-03  0.118691D-03  0.155912D-01  0.124629D+00  0.655904D-01
     10  0.119887D-02  0.777540D-02 -0.337130D-01 -0.367761D+00  0.763242D-01
     11  0.200587D-03  0.190369D-01 -0.153988D-02  0.768689D-01 -0.806506D-01
     12 -0.868461D-03 -0.154186D-02  0.253675D-01 -0.333281D+00  0.114090D+00
     13 -0.158674D+00  0.217720D-01 -0.944370D-01  0.990489D-03  0.642211D-02
     14  0.210005D-01 -0.665152D-01  0.549206D-01  0.108065D-03  0.144495D-01
     15 -0.910994D-01  0.549244D-01 -0.292045D+00 -0.467503D-03  0.139020D-03
     16 -0.174911D+00 -0.240865D-01  0.104406D+00 -0.948593D-03 -0.615334D-02
     17 -0.232800D-01 -0.702247D-01  0.502880D-01  0.125613D-03  0.180161D-01
     18  0.100900D+00  0.502841D-01 -0.276628D+00 -0.542935D-03  0.445850D-03
                6             7             8             9            10 
      6  0.104942D+01
      7  0.125728D+00  0.157894D+00
      8  0.655912D-01  0.315330D-01  0.477677D-01
      9 -0.341942D+00 -0.136727D+00 -0.699667D-01  0.335000D+00
     10 -0.330918D+00  0.246502D-01 -0.291152D-02  0.126236D-01  0.341912D+00
     11  0.114089D+00  0.411862D-02  0.878005D-02  0.424634D-02 -0.811881D-01
     12 -0.549005D+00 -0.178579D-01  0.424651D-02 -0.865234D-02  0.352007D+00
     13 -0.278537D-01  0.000000D+00  0.000000D+00  0.000000D+00  0.000000D+00
     14  0.139979D-03  0.000000D+00 -0.908908D-02 -0.209632D-02  0.000000D+00
     15  0.138797D-01  0.000000D+00 -0.209566D-02 -0.483348D-03  0.000000D+00
     16  0.266748D-01  0.000000D+00  0.000000D+00  0.000000D+00  0.000000D+00
     17  0.444845D-03  0.000000D+00  0.913787D-02  0.210757D-02  0.000000D+00
     18  0.161850D-01  0.000000D+00  0.210791D-02  0.486171D-03  0.000000D+00
               11            12            13            14            15 
     11  0.528801D-01
     12 -0.116784D+00  0.532292D+00
     13  0.000000D+00  0.000000D+00  0.128269D+00
     14  0.864159D-02  0.199298D-02 -0.243128D-01  0.428129D-01
     15  0.199249D-02  0.459521D-03  0.105452D+00 -0.591266D-01  0.285599D+00
     16  0.000000D+00  0.000000D+00  0.294149D-01  0.320416D-02 -0.138848D-01
     17 -0.868798D-02 -0.200368D-02 -0.388133D-02  0.970030D-02  0.416630D-02
     18 -0.200413D-02 -0.462205D-03  0.168390D-01  0.416934D-02 -0.741015D-02
               16            17            18 
     16  0.146445D+00
     17  0.270357D-01  0.420584D-01
     18 -0.117196D+00 -0.550030D-01  0.267829D+00
 Leave Link  716 at Tue Jan  3 09:07:29 2023, MaxMem=   536870912 cpu:               0.1 elap:               0.1
 (Enter /opt/software/gaussian/g16.c01/l103.exe)

 GradGradGradGradGradGradGradGradGradGradGradGradGradGradGradGradGradGrad
 Berny optimization.
 Search for a local minimum.
 Step number   1 out of a maximum of    2
 All quantities printed in internal units (Hartrees-Bohrs-Radians)
 Second derivative matrix not updated -- first step.
 The second derivative matrix:
                          X1        Y1        Z1        X2        Y2
           X1           1.01329
           Y1          -0.00181   0.20358
           Z1           0.00786  -0.12488   0.71626
           X2          -0.67988   0.00300  -0.01298   1.22912
           Y2           0.00377  -0.10195   0.02109  -0.05136   0.22281
           Z2          -0.01627   0.02109  -0.18854   0.22264  -0.20136
           X3          -0.00103  -0.00666   0.02886  -0.18152  -0.02900
           Y3           0.00012   0.01608   0.00012  -0.02874  -0.07268
           Z3          -0.00053   0.00012   0.01559   0.12463   0.06559
           X4           0.00120   0.00778  -0.03371  -0.36776   0.07632
           Y4           0.00020   0.01904  -0.00154   0.07687  -0.08065
           Z4          -0.00087  -0.00154   0.02537  -0.33328   0.11409
           X5          -0.15867   0.02177  -0.09444   0.00099   0.00642
           Y5           0.02100  -0.06652   0.05492   0.00011   0.01445
           Z5          -0.09110   0.05492  -0.29205  -0.00047   0.00014
           X6          -0.17491  -0.02409   0.10441  -0.00095  -0.00615
           Y6          -0.02328  -0.07022   0.05029   0.00013   0.01802
           Z6           0.10090   0.05028  -0.27663  -0.00054   0.00045
                          Z2        X3        Y3        Z3        X4
           Z2           1.04942
           X3           0.12573   0.15789
           Y3           0.06559   0.03153   0.04777
           Z3          -0.34194  -0.13673  -0.06997   0.33500
           X4          -0.33092   0.02465  -0.00291   0.01262   0.34191
           Y4           0.11409   0.00412   0.00878   0.00425  -0.08119
           Z4          -0.54900  -0.01786   0.00425  -0.00865   0.35201
           X5          -0.02785  -0.00000  -0.00000  -0.00000   0.00000
           Y5           0.00014  -0.00000  -0.00909  -0.00210   0.00000
           Z5           0.01388  -0.00000  -0.00210  -0.00048   0.00000
           X6           0.02667   0.00000   0.00000   0.00000  -0.00000
           Y6           0.00044   0.00000   0.00914   0.00211  -0.00000
           Z6           0.01618   0.00000   0.00211   0.00049  -0.00000
                          Y4        Z4        X5        Y5        Z5
           Y4           0.05288
           Z4          -0.11678   0.53229
           X5           0.00000   0.00000   0.12827
           Y5           0.00864   0.00199  -0.02431   0.04281
           Z5           0.00199   0.00046   0.10545  -0.05913   0.28560
           X6          -0.00000  -0.00000   0.02941   0.00320  -0.01388
           Y6          -0.00869  -0.00200  -0.00388   0.00970   0.00417
           Z6          -0.00200  -0.00046   0.01684   0.00417  -0.00741
                          X6        Y6        Z6
           X6           0.14644
           Y6           0.02704   0.04206
           Z6          -0.11720  -0.05500   0.26783
 ITU=  0
     Eigenvalues ---    0.03447   0.04394   0.09385   0.09776   0.15149
     Eigenvalues ---    0.18516   0.28085   0.33564   0.68419   0.94438
     Eigenvalues ---    1.52455   2.16742
 Angle between quadratic step and forces=  26.81 degrees.
 Linear search not attempted -- first point.
 B after Tr=    -0.001578    0.000363   -0.001558
         Rot=    1.000000   -0.000001    0.000133    0.000031 Ang=  -0.02 deg.
 Variable       Old X    -DE/DX   Delta X   Delta X   Delta X     New X
                                 (Linear)    (Quad)   (Total)
    X1        1.76526   0.00032   0.00000   0.00496   0.00335   1.76861
    Y1       -0.09564  -0.00000   0.00000  -0.00010   0.00015  -0.09549
    Z1        0.10090   0.00000   0.00000   0.00047  -0.00062   0.10028
    X2        4.21476  -0.00303   0.00000  -0.00383  -0.00547   4.20930
    Y2       -0.11476   0.00069   0.00000   0.00035   0.00045  -0.11431
    Z2        0.18359  -0.00298   0.00000  -0.00151  -0.00195   0.18165
    X3        5.12197  -0.00215   0.00000  -0.01191  -0.01307   5.10890
    Y3        0.27317  -0.00074   0.00000  -0.00104  -0.00099   0.27218
    Z3       -1.49844   0.00323   0.00000   0.00455   0.00435  -1.49409
    X4        5.62552  -0.00084   0.00000  -0.00582  -0.00797   5.61755
    Y4       -0.54121   0.00013   0.00000   0.00033   0.00034  -0.54087
    Z4        2.03258  -0.00055   0.00000  -0.00147  -0.00153   2.03104
    X5        0.86974   0.00269   0.00000   0.01209   0.01098   0.88072
    Y5        0.31971  -0.00122   0.00000  -0.00366  -0.00335   0.31636
    Z5       -1.70041   0.00530   0.00000   0.01580   0.01447  -1.68594
    X6        0.72441   0.00301   0.00000   0.01427   0.01218   0.73659
    Y6       -0.49386   0.00115   0.00000   0.00309   0.00340  -0.49046
    Z6        1.82729  -0.00501   0.00000  -0.01337  -0.01473   1.81256
         Item               Value     Threshold  Converged?
 Maximum Force            0.005302     0.000450     NO 
 RMS     Force            0.002445     0.000300     NO 
 Maximum Displacement     0.014730     0.001800     NO 
 RMS     Displacement     0.007530     0.001200     NO 
 Predicted change in Energy=-1.495027D-04
 GradGradGradGradGradGradGradGradGradGradGradGradGradGradGradGradGradGrad

 Leave Link  103 at Tue Jan  3 09:07:29 2023, MaxMem=   536870912 cpu:               0.1 elap:               0.0
 (Enter /opt/software/gaussian/g16.c01/l9999.exe)
 Unable to Open any file for archive entry.
 1\1\GINC-GRA634\Force\UwB97XD\Gen\C1H3N1O1\BHAVUK\03-Jan-2023\0\\#p uw
 b97xd/chkbasis force guess=read geom=check scf=(maxcycle=900,verytight
 lineq,xqc) integral=grid=ultrafine symmetry=None density=current pop=(
 cm5,hlygat,mbs,npa) output=wfx\\0002_q000_m01_k00_opt_uwb97xd_def2svpd
 /0002_q000_m01_k00_force_uwb97xd_def2tzvpd stable-force\\0,1\C,0.93413
 59983,-0.0506101672,0.0533916633\N,2.2303561638,-0.0607282973,0.097152
 9523\H,2.7104299206,0.1445551233,-0.7929401941\O,2.9768985022,-0.28639
 76361,1.0755945973\H,0.4602474304,0.169181767,-0.8998201368\H,0.383341
 983,-0.2613407898,0.9669611147\\Version=ES64L-G16RevC.01\HF=-169.81342
 23\S2=0.\S2-1=0.\S2A=0.\RMSD=1.504e-09\RMSF=2.445e-03\Dipole=-0.827140
 7,0.2643306,-1.1461936\Quadrupole=-3.6332022,1.7261837,1.9070185,1.657
 6634,-6.9276654,0.0483357\PG=Unknown\\@
 The archive entry for this job was punched.

 Writing a WFNX file to "0002_q000_m01_k00_force_uwb97xd_def2tzvpd.wfx"


 OLD AGE AND TREACHERY WILL ALWAYS PREVAIL OVER YOUTH AND SKILL.
 Job cpu time:       0 days  0 hours  0 minutes 40.7 seconds.
 Elapsed time:       0 days  0 hours  0 minutes 20.3 seconds.
 File lengths (MBytes):  RWF=     16 Int=      0 D2E=      0 Chk=      4 Scr=      1
 Normal termination of Gaussian 16 at Tue Jan  3 09:07:29 2023.
