 Entering Gaussian System, Link 0=g16
 Input=0003_q000_m01_k00_force_uwb97xd_def2svpd.com
 Output=0003_q000_m01_k00_force_uwb97xd_def2svpd.log
 Initial command:
 /opt/software/gaussian/g16.c01/l1.exe "/localscratch/bhavuk.2151388.0/Gau-6995.inp" -scrdir="/localscratch/bhavuk.2151388.0/"
 Entering Link 1 = /opt/software/gaussian/g16.c01/l1.exe PID=      6996.
  
 Copyright (c) 1988-2019, Gaussian, Inc.  All Rights Reserved.
  
 This is part of the Gaussian(R) 16 program.  It is based on
 the Gaussian(R) 09 system (copyright 2009, Gaussian, Inc.),
 the Gaussian(R) 03 system (copyright 2003, Gaussian, Inc.),
 the Gaussian(R) 98 system (copyright 1998, Gaussian, Inc.),
 the Gaussian(R) 94 system (copyright 1995, Gaussian, Inc.),
 the Gaussian 92(TM) system (copyright 1992, Gaussian, Inc.),
 the Gaussian 90(TM) system (copyright 1990, Gaussian, Inc.),
 the Gaussian 88(TM) system (copyright 1988, Gaussian, Inc.),
 the Gaussian 86(TM) system (copyright 1986, Carnegie Mellon
 University), and the Gaussian 82(TM) system (copyright 1983,
 Carnegie Mellon University). Gaussian is a federally registered
 trademark of Gaussian, Inc.
  
 This software contains proprietary and confidential information,
 including trade secrets, belonging to Gaussian, Inc.
  
 This software is provided under written license and may be
 used, copied, transmitted, or stored only in accord with that
 written license.
  
 The following legend is applicable only to US Government
 contracts under FAR:
  
                    RESTRICTED RIGHTS LEGEND
  
 Use, reproduction and disclosure by the US Government is
 subject to restrictions as set forth in subparagraphs (a)
 and (c) of the Commercial Computer Software - Restricted
 Rights clause in FAR 52.227-19.
  
 Gaussian, Inc.
 340 Quinnipiac St., Bldg. 40, Wallingford CT 06492
  
  
 ---------------------------------------------------------------
 Warning -- This program may not be used in any manner that
 competes with the business of Gaussian, Inc. or will provide
 assistance to any competitor of Gaussian, Inc.  The licensee
 of this program is prohibited from giving any competitor of
 Gaussian, Inc. access to this program.  By using this program,
 the user acknowledges that Gaussian, Inc. is engaged in the
 business of creating and licensing software in the field of
 computational chemistry and represents and warrants to the
 licensee that it is not a competitor of Gaussian, Inc. and that
 it will not use this program in any manner prohibited above.
 ---------------------------------------------------------------
  

 Cite this work as:
 Gaussian 16, Revision C.01,
 M. J. Frisch, G. W. Trucks, H. B. Schlegel, G. E. Scuseria, 
 M. A. Robb, J. R. Cheeseman, G. Scalmani, V. Barone, 
 G. A. Petersson, H. Nakatsuji, X. Li, M. Caricato, A. V. Marenich, 
 J. Bloino, B. G. Janesko, R. Gomperts, B. Mennucci, H. P. Hratchian, 
 J. V. Ortiz, A. F. Izmaylov, J. L. Sonnenberg, D. Williams-Young, 
 F. Ding, F. Lipparini, F. Egidi, J. Goings, B. Peng, A. Petrone, 
 T. Henderson, D. Ranasinghe, V. G. Zakrzewski, J. Gao, N. Rega, 
 G. Zheng, W. Liang, M. Hada, M. Ehara, K. Toyota, R. Fukuda, 
 J. Hasegawa, M. Ishida, T. Nakajima, Y. Honda, O. Kitao, H. Nakai, 
 T. Vreven, K. Throssell, J. A. Montgomery, Jr., J. E. Peralta, 
 F. Ogliaro, M. J. Bearpark, J. J. Heyd, E. N. Brothers, K. N. Kudin, 
 V. N. Staroverov, T. A. Keith, R. Kobayashi, J. Normand, 
 K. Raghavachari, A. P. Rendell, J. C. Burant, S. S. Iyengar, 
 J. Tomasi, M. Cossi, J. M. Millam, M. Klene, C. Adamo, R. Cammi, 
 J. W. Ochterski, R. L. Martin, K. Morokuma, O. Farkas, 
 J. B. Foresman, and D. J. Fox, Gaussian, Inc., Wallingford CT, 2019.
 
 ******************************************
 Gaussian 16:  ES64L-G16RevC.01  3-Jul-2019
                 3-Jan-2023 
 ******************************************
 %chk=0003_q000_m01_k00_force_uwb97xd_def2svpd.chk
 %nprocshared=2
 Will use up to    2 processors via shared memory.
 %mem=4GB
 ----------------------------------------------------------------------
 #p uwb97xd/gen stable=opt scf=(maxcycle=900,verytightlineq,xqc) integr
 al=grid=ultrafine symmetry=None density=current iop(99/18=-1) output=w
 fn
 ----------------------------------------------------------------------
 1/38=1,172=1/1;
 2/12=2,15=3,17=6,18=5,40=1/2;
 3/5=7,11=2,25=1,30=1,74=-58,75=-5,116=2/1,2,3;
 4//1;
 5/5=2,7=900,8=3,13=1,17=3,38=5/2,8;
 6/7=2,8=2,9=2,10=2,22=-1,28=1/1;
 8/6=1,10=90,11=11/1;
 9/8=-3,42=1,46=1/14;
 5/5=2,7=900,8=3,17=43,38=5/8(-2);
 6/7=2,8=2,9=2,10=2,22=-1,28=1/1;
 99/5=1,6=100,9=1,18=-1/99;
 Leave Link    1 at Tue Jan  3 09:05:52 2023, MaxMem=   536870912 cpu:               0.1 elap:               0.1
 (Enter /opt/software/gaussian/g16.c01/l101.exe)
 ----------------------------------------------------------------------
 0003_q000_m01_k00_opt_uwb97xd_def2svpd/0003_q000_m01_k00_force_uwb97xd
 _def2svpd stable-force
 ----------------------------------------------------------------------
 Symbolic Z-matrix:
 Charge =  0 Multiplicity = 1
 C                     0.98383  -0.03256   0.04886 
 S                     2.60713   0.0992    0.0188 
 C                     3.22732   0.7362   -1.346 
 H                     0.57042  -0.45753   0.95974 
 H                     0.34381   0.27822  -0.77549 
 H                     2.61522   1.05648  -2.18774 
 H                     4.31046   0.82364  -1.36582 
 
 ITRead=  0  0  0  0  0  0  0
 MicOpt= -1 -1 -1 -1 -1 -1 -1
 NAtoms=      7 NQM=        7 NQMF=       0 NMMI=      0 NMMIF=      0
                NMic=       0 NMicF=      0.
                    Isotopes and Nuclear Properties:
 (Nuclear quadrupole moments (NQMom) in fm**2, nuclear magnetic moments (NMagM)
  in nuclear magnetons)

  Atom         1           2           3           4           5           6           7
 IAtWgt=          12          32          12           1           1           1           1
 AtmWgt=  12.0000000  31.9720718  12.0000000   1.0078250   1.0078250   1.0078250   1.0078250
 NucSpn=           0           0           0           1           1           1           1
 AtZEff=  -0.0000000  -0.0000000  -0.0000000  -0.0000000  -0.0000000  -0.0000000  -0.0000000
 NQMom=    0.0000000   0.0000000   0.0000000   0.0000000   0.0000000   0.0000000   0.0000000
 NMagM=    0.0000000   0.0000000   0.0000000   2.7928460   2.7928460   2.7928460   2.7928460
 AtZNuc=   6.0000000  16.0000000   6.0000000   1.0000000   1.0000000   1.0000000   1.0000000
 Leave Link  101 at Tue Jan  3 09:05:52 2023, MaxMem=   536870912 cpu:               0.5 elap:               0.2
 (Enter /opt/software/gaussian/g16.c01/l202.exe)
                          Input orientation:                          
 ---------------------------------------------------------------------
 Center     Atomic      Atomic             Coordinates (Angstroms)
 Number     Number       Type             X           Y           Z
 ---------------------------------------------------------------------
      1          6           0        0.983833   -0.032559    0.048858
      2         16           0        2.607130    0.099200    0.018798
      3          6           0        3.227323    0.736198   -1.346005
      4          1           0        0.570421   -0.457530    0.959745
      5          1           0        0.343807    0.278223   -0.775492
      6          1           0        2.615219    1.056484   -2.187742
      7          1           0        4.310457    0.823643   -1.365823
 ---------------------------------------------------------------------
                    Distance matrix (angstroms):
                    1          2          3          4          5
     1  C    0.000000
     2  S    1.628913   0.000000
     3  C    2.751341   1.628832   0.000000
     4  H    1.086841   2.311604   3.714915   0.000000
     5  H    1.088931   2.405323   2.974876   1.898350   0.000000
     6  H    2.974864   2.405260   1.088933   4.047234   2.785579
     7  H    3.714948   2.311562   1.086839   4.586670   4.047257
                    6          7
     6  H    0.000000
     7  H    1.898314   0.000000
 Symmetry turned off by external request.
 Stoichiometry    C2H4S
 Rotational constants (GHZ):          32.8865896           8.4327606           6.7117401
 Leave Link  202 at Tue Jan  3 09:05:52 2023, MaxMem=   536870912 cpu:               0.0 elap:               0.0
 (Enter /opt/software/gaussian/g16.c01/l301.exe)
 General basis read from cards:  (5D, 7F)
 Centers:       4      5      6      7
 S 3 1.00
     Exponent=  1.3010701000D+01 Coefficients=  1.9682158000D-02
     Exponent=  1.9622572000D+00 Coefficients=  1.3796524000D-01
     Exponent=  4.4453796000D-01 Coefficients=  4.7831935000D-01
 S 1 1.00
     Exponent=  1.2194962000D-01 Coefficients=  1.0000000000D+00
 P 1 1.00
     Exponent=  8.0000000000D-01 Coefficients=  1.0000000000D+00
 P 1 1.00
     Exponent=  1.1704099050D-01 Coefficients=  1.0000000000D+00
 ****
 Centers:       1      3
 S 5 1.00
     Exponent=  1.2384016938D+03 Coefficients=  5.4568832082D-03
     Exponent=  1.8629004992D+02 Coefficients=  4.0638409211D-02
     Exponent=  4.2251176346D+01 Coefficients=  1.8025593888D-01
     Exponent=  1.1676557932D+01 Coefficients=  4.6315121755D-01
     Exponent=  3.5930506482D+00 Coefficients=  4.4087173314D-01
 S 1 1.00
     Exponent=  4.0245147363D-01 Coefficients=  1.0000000000D+00
 S 1 1.00
     Exponent=  1.3090182668D-01 Coefficients=  1.0000000000D+00
 S 1 1.00
     Exponent=  6.7053540256D-02 Coefficients=  1.0000000000D+00
 P 3 1.00
     Exponent=  9.4680970621D+00 Coefficients=  3.8387871728D-02
     Exponent=  2.0103545142D+00 Coefficients=  2.1117025112D-01
     Exponent=  5.4771004707D-01 Coefficients=  5.1328172114D-01
 P 1 1.00
     Exponent=  1.5268613795D-01 Coefficients=  1.0000000000D+00
 D 1 1.00
     Exponent=  8.0000000000D-01 Coefficients=  1.0000000000D+00
 D 1 1.00
     Exponent=  1.1713185140D-01 Coefficients=  1.0000000000D+00
 ****
 Centers:       2
 S 5 1.00
     Exponent=  9.1849303010D+03 Coefficients= -2.2294387756D-03
     Exponent=  1.3815105503D+03 Coefficients= -1.6683029937D-02
     Exponent=  3.1387147580D+02 Coefficients= -7.5262436116D-02
     Exponent=  8.8053870623D+01 Coefficients= -1.9376827038D-01
     Exponent=  2.7039914905D+01 Coefficients= -1.7718020803D-01
 S 3 1.00
     Exponent=  4.5648731303D+01 Coefficients= -1.0736062573D-01
     Exponent=  4.9664522326D+00 Coefficients=  6.5066293018D-01
     Exponent=  2.0116242047D+00 Coefficients=  5.9712155354D-01
 S 1 1.00
     Exponent=  3.5661077013D-01 Coefficients=  1.0000000000D+00
 S 1 1.00
     Exponent=  1.3507221477D-01 Coefficients=  1.0000000000D+00
 S 1 1.00
     Exponent=  4.4999823506D-02 Coefficients=  1.0000000000D+00
 P 5 1.00
     Exponent=  2.6198233439D+02 Coefficients= -9.2729929822D-03
     Exponent=  6.1306894736D+01 Coefficients= -6.6547669241D-02
     Exponent=  1.9103729887D+01 Coefficients= -2.4828595903D-01
     Exponent=  6.6567720378D+00 Coefficients= -4.8703847402D-01
     Exponent=  2.3959635161D+00 Coefficients= -3.9337850312D-01
 P 1 1.00
     Exponent=  6.1776161679D-01 Coefficients=  1.0000000000D+00
 P 1 1.00
     Exponent=  1.6993376871D-01 Coefficients=  1.0000000000D+00
 P 1 1.00
     Exponent=  4.1706793676D-02 Coefficients=  1.0000000000D+00
 D 1 1.00
     Exponent=  5.5000000000D-01 Coefficients=  1.0000000000D+00
 D 1 1.00
     Exponent=  1.0172853717D-01 Coefficients=  1.0000000000D+00
 ****
 Ernie: Thresh=  0.10000D-02 Tol=  0.10000D-05 Strict=F.
    99 basis functions,   151 primitive gaussians,   105 cartesian basis functions
    16 alpha electrons       16 beta electrons
       nuclear repulsion energy       100.3080120317 Hartrees.
 IExCor= 4639 DFT=T Ex+Corr=wB97XD ExCW=0 ScaHFX=  1.000000
 ScaDFX=  1.000000  1.000000  1.000000  1.000000 ScalE2=  1.000000  1.000000
 IRadAn=      5 IRanWt=     -1 IRanGd=            0 ICorTp=0 IEmpDi=121
 HFx  wShort=  0.000000 wLong=  0.200000 cFull=  0.222036 cShort=  0.000000 cLong=  0.777964
 DFx  wShort=  0.000000 wLong=  0.200000 cFull=  0.000000 cShort=  0.000000 cLong=  1.000000
 NAtoms=    7 NActive=    7 NUniq=    7 SFac= 1.00D+00 NAtFMM=   60 NAOKFM=F Big=F
 Integral buffers will be    131072 words long.
 Raffenetti 2 integral format.
 Two-electron integral symmetry is turned off.
 R6Disp:  Grimme-D2 Dispersion energy=       -0.0011997330 Hartrees.
 Nuclear repulsion after empirical dispersion term =      100.3068122987 Hartrees.
 Leave Link  301 at Tue Jan  3 09:05:52 2023, MaxMem=   536870912 cpu:               0.1 elap:               0.1
 (Enter /opt/software/gaussian/g16.c01/l302.exe)
 NPDir=0 NMtPBC=     1 NCelOv=     1 NCel=       1 NClECP=     1 NCelD=      1
         NCelK=      1 NCelE2=     1 NClLst=     1 CellRange=     0.0.
 One-electron integrals computed using PRISM.
 NBasis=    99 RedAO= T EigKep=  4.04D-04  NBF=    99
 NBsUse=    99 1.00D-06 EigRej= -1.00D+00 NBFU=    99
 Precomputing XC quadrature grid using
 IXCGrd= 4 IRadAn=           5 IRanWt=          -1 IRanGd=           0 AccXCQ= 0.00D+00.
 Generated NRdTot=       0 NPtTot=           0 NUsed=           0 NTot=          32
 NSgBfM=   105   105   105   105   105 MxSgAt=     7 MxSgA2=     7.
 Leave Link  302 at Tue Jan  3 09:05:53 2023, MaxMem=   536870912 cpu:               0.4 elap:               0.2
 (Enter /opt/software/gaussian/g16.c01/l303.exe)
 DipDrv:  MaxL=1.
 Leave Link  303 at Tue Jan  3 09:05:53 2023, MaxMem=   536870912 cpu:               0.1 elap:               0.0
 (Enter /opt/software/gaussian/g16.c01/l401.exe)
 ExpMin= 4.17D-02 ExpMax= 9.18D+03 ExpMxC= 1.38D+03 IAcc=3 IRadAn=         5 AccDes= 0.00D+00
 Harris functional with IExCor= 4639 and IRadAn=       5 diagonalized for initial guess.
 HarFok:  IExCor= 4639 AccDes= 0.00D+00 IRadAn=         5 IDoV= 1 UseB2=F ITyADJ=14
 ICtDFT=  3500011 ScaDFX=  1.000000  1.000000  1.000000  1.000000
 FoFCou: FMM=F IPFlag=           0 FMFlag=      100000 FMFlg1=           0
         NFxFlg=           0 DoJE=T BraDBF=F KetDBF=T FulRan=T
         wScrn=  0.000000 ICntrl=       500 IOpCl=  0 I1Cent=   200000004 NGrid=           0
         NMat0=    1 NMatS0=      1 NMatT0=    0 NMatD0=    1 NMtDS0=    0 NMtDT0=    0
 Symmetry not used in FoFCou.
 Harris En= -465.719238436533    
 JPrj=0 DoOrth=F DoCkMO=F.
 Initial guess <Sx>= 0.0000 <Sy>= 0.0000 <Sz>= 0.0000 <S**2>= 0.0000 S= 0.0000
 Leave Link  401 at Tue Jan  3 09:05:53 2023, MaxMem=   536870912 cpu:               1.3 elap:               0.7
 (Enter /opt/software/gaussian/g16.c01/l502.exe)
 Keep R1 and R2 ints in memory in canonical form, NReq=51377165.
 FoFCou: FMM=F IPFlag=           0 FMFlag=           0 FMFlg1=           0
         NFxFlg=           0 DoJE=F BraDBF=F KetDBF=F FulRan=T
         wScrn=  0.000000 ICntrl=       600 IOpCl=  0 I1Cent=           0 NGrid=           0
         NMat0=    1 NMatS0=   4950 NMatT0=    0 NMatD0=    1 NMtDS0=    0 NMtDT0=    0
 Symmetry not used in FoFCou.
 Two-electron integral symmetry not used.
 UHF open shell SCF:
 Using DIIS extrapolation, IDIIS=  1040.
 NGot=   536870912 LenX=   487832277 LenY=   487820811
 Requested convergence on RMS density matrix=1.00D-08 within 128 cycles.
 Requested convergence on MAX density matrix=1.00D-06.
 Requested convergence on             energy=1.00D-06.
 No special actions if energy rises.

 Cycle   1  Pass 1  IDiag  1:
 E= -476.342432065053    
 DIIS: error= 4.45D-02 at cycle   1 NSaved=   1.
 NSaved= 1 IEnMin= 1 EnMin= -476.342432065053     IErMin= 1 ErrMin= 4.45D-02
 ErrMax= 4.45D-02  0.00D+00 EMaxC= 1.00D-01 BMatC= 1.09D+00 BMatP= 1.09D+00
 IDIUse=3 WtCom= 5.55D-01 WtEn= 4.45D-01
 Coeff-Com:  0.100D+01
 Coeff-En:   0.100D+01
 Coeff:      0.100D+01
 Gap=     0.206 Goal=   None    Shift=    0.000
 Gap=     0.206 Goal=   None    Shift=    0.000
 GapD=    0.206 DampG=1.000 DampE=0.500 DampFc=0.5000 IDamp=-1.
 Damping current iteration by 5.00D-01
 RMSDP=1.23D-02 MaxDP=3.62D-01              OVMax= 2.95D-01

 Cycle   2  Pass 1  IDiag  1:
 E= -476.427916392187     Delta-E=       -0.085484327134 Rises=F Damp=T
 DIIS: error= 1.68D-02 at cycle   2 NSaved=   2.
 NSaved= 2 IEnMin= 2 EnMin= -476.427916392187     IErMin= 2 ErrMin= 1.68D-02
 ErrMax= 1.68D-02  0.00D+00 EMaxC= 1.00D-01 BMatC= 1.06D-01 BMatP= 1.09D+00
 IDIUse=3 WtCom= 8.32D-01 WtEn= 1.68D-01
 Coeff-Com: -0.225D+00 0.122D+01
 Coeff-En:   0.000D+00 0.100D+01
 Coeff:     -0.187D+00 0.119D+01
 Gap=     0.287 Goal=   None    Shift=    0.000
 Gap=     0.287 Goal=   None    Shift=    0.000
 RMSDP=3.41D-03 MaxDP=6.64D-02 DE=-8.55D-02 OVMax= 1.49D-01

 Cycle   3  Pass 1  IDiag  1:
 E= -476.506363989926     Delta-E=       -0.078447597739 Rises=F Damp=F
 DIIS: error= 5.51D-03 at cycle   3 NSaved=   3.
 NSaved= 3 IEnMin= 3 EnMin= -476.506363989926     IErMin= 3 ErrMin= 5.51D-03
 ErrMax= 5.51D-03  0.00D+00 EMaxC= 1.00D-01 BMatC= 1.31D-02 BMatP= 1.06D-01
 IDIUse=3 WtCom= 9.45D-01 WtEn= 5.51D-02
 Coeff-Com: -0.126D+00 0.335D+00 0.790D+00
 Coeff-En:   0.000D+00 0.000D+00 0.100D+01
 Coeff:     -0.119D+00 0.317D+00 0.802D+00
 Gap=     0.282 Goal=   None    Shift=    0.000
 Gap=     0.282 Goal=   None    Shift=    0.000
 RMSDP=8.36D-04 MaxDP=1.36D-02 DE=-7.84D-02 OVMax= 3.00D-02

 Cycle   4  Pass 1  IDiag  1:
 E= -476.509996343477     Delta-E=       -0.003632353550 Rises=F Damp=F
 DIIS: error= 1.64D-03 at cycle   4 NSaved=   4.
 NSaved= 4 IEnMin= 4 EnMin= -476.509996343477     IErMin= 4 ErrMin= 1.64D-03
 ErrMax= 1.64D-03  0.00D+00 EMaxC= 1.00D-01 BMatC= 6.53D-04 BMatP= 1.31D-02
 IDIUse=3 WtCom= 9.84D-01 WtEn= 1.64D-02
 Coeff-Com: -0.230D-01 0.491D-01 0.256D+00 0.718D+00
 Coeff-En:   0.000D+00 0.000D+00 0.000D+00 0.100D+01
 Coeff:     -0.227D-01 0.483D-01 0.252D+00 0.723D+00
 Gap=     0.284 Goal=   None    Shift=    0.000
 Gap=     0.284 Goal=   None    Shift=    0.000
 RMSDP=1.83D-04 MaxDP=3.64D-03 DE=-3.63D-03 OVMax= 3.73D-03

 Cycle   5  Pass 1  IDiag  1:
 E= -476.510172154291     Delta-E=       -0.000175810814 Rises=F Damp=F
 DIIS: error= 2.19D-04 at cycle   5 NSaved=   5.
 NSaved= 5 IEnMin= 5 EnMin= -476.510172154291     IErMin= 5 ErrMin= 2.19D-04
 ErrMax= 2.19D-04  0.00D+00 EMaxC= 1.00D-01 BMatC= 2.41D-05 BMatP= 6.53D-04
 IDIUse=3 WtCom= 9.98D-01 WtEn= 2.19D-03
 Coeff-Com:  0.128D-01-0.315D-01-0.455D-01 0.471D-01 0.102D+01
 Coeff-En:   0.000D+00 0.000D+00 0.000D+00 0.000D+00 0.100D+01
 Coeff:      0.128D-01-0.314D-01-0.454D-01 0.470D-01 0.102D+01
 Gap=     0.284 Goal=   None    Shift=    0.000
 Gap=     0.284 Goal=   None    Shift=    0.000
 RMSDP=7.13D-05 MaxDP=1.60D-03 DE=-1.76D-04 OVMax= 1.24D-03

 Cycle   6  Pass 1  IDiag  1:
 E= -476.510183122546     Delta-E=       -0.000010968256 Rises=F Damp=F
 DIIS: error= 4.92D-05 at cycle   6 NSaved=   6.
 NSaved= 6 IEnMin= 6 EnMin= -476.510183122546     IErMin= 6 ErrMin= 4.92D-05
 ErrMax= 4.92D-05  0.00D+00 EMaxC= 1.00D-01 BMatC= 4.93D-07 BMatP= 2.41D-05
 IDIUse=1 WtCom= 1.00D+00 WtEn= 0.00D+00
 Coeff-Com:  0.662D-03-0.105D-02-0.790D-02-0.335D-01-0.708D-01 0.111D+01
 Coeff:      0.662D-03-0.105D-02-0.790D-02-0.335D-01-0.708D-01 0.111D+01
 Gap=     0.284 Goal=   None    Shift=    0.000
 Gap=     0.284 Goal=   None    Shift=    0.000
 RMSDP=1.33D-05 MaxDP=2.45D-04 DE=-1.10D-05 OVMax= 4.35D-04

 Cycle   7  Pass 1  IDiag  1:
 E= -476.510183510086     Delta-E=       -0.000000387540 Rises=F Damp=F
 DIIS: error= 7.47D-06 at cycle   7 NSaved=   7.
 NSaved= 7 IEnMin= 7 EnMin= -476.510183510086     IErMin= 7 ErrMin= 7.47D-06
 ErrMax= 7.47D-06  0.00D+00 EMaxC= 1.00D-01 BMatC= 1.63D-08 BMatP= 4.93D-07
 IDIUse=1 WtCom= 1.00D+00 WtEn= 0.00D+00
 Coeff-Com: -0.294D-03 0.694D-03 0.167D-02 0.176D-03-0.195D-01-0.198D-01
 Coeff-Com:  0.104D+01
 Coeff:     -0.294D-03 0.694D-03 0.167D-02 0.176D-03-0.195D-01-0.198D-01
 Coeff:      0.104D+01
 Gap=     0.284 Goal=   None    Shift=    0.000
 Gap=     0.284 Goal=   None    Shift=    0.000
 RMSDP=1.77D-06 MaxDP=3.36D-05 DE=-3.88D-07 OVMax= 6.74D-05

 Cycle   8  Pass 1  IDiag  1:
 E= -476.510183517581     Delta-E=       -0.000000007495 Rises=F Damp=F
 DIIS: error= 5.15D-06 at cycle   8 NSaved=   8.
 NSaved= 8 IEnMin= 8 EnMin= -476.510183517581     IErMin= 8 ErrMin= 5.15D-06
 ErrMax= 5.15D-06  0.00D+00 EMaxC= 1.00D-01 BMatC= 1.17D-08 BMatP= 1.63D-08
 IDIUse=1 WtCom= 1.00D+00 WtEn= 0.00D+00
 Coeff-Com: -0.188D-03 0.418D-03 0.140D-02 0.208D-02-0.649D-02-0.804D-01
 Coeff-Com:  0.537D+00 0.546D+00
 Coeff:     -0.188D-03 0.418D-03 0.140D-02 0.208D-02-0.649D-02-0.804D-01
 Coeff:      0.537D+00 0.546D+00
 Gap=     0.284 Goal=   None    Shift=    0.000
 Gap=     0.284 Goal=   None    Shift=    0.000
 RMSDP=6.93D-07 MaxDP=1.56D-05 DE=-7.50D-09 OVMax= 3.72D-05

 Cycle   9  Pass 1  IDiag  1:
 E= -476.510183520881     Delta-E=       -0.000000003300 Rises=F Damp=F
 DIIS: error= 1.45D-06 at cycle   9 NSaved=   9.
 NSaved= 9 IEnMin= 9 EnMin= -476.510183520881     IErMin= 9 ErrMin= 1.45D-06
 ErrMax= 1.45D-06  0.00D+00 EMaxC= 1.00D-01 BMatC= 1.12D-09 BMatP= 1.17D-08
 IDIUse=1 WtCom= 1.00D+00 WtEn= 0.00D+00
 Coeff-Com:  0.183D-05-0.732D-05 0.160D-03 0.582D-03 0.107D-02-0.246D-01
 Coeff-Com: -0.368D-01 0.219D+00 0.841D+00
 Coeff:      0.183D-05-0.732D-05 0.160D-03 0.582D-03 0.107D-02-0.246D-01
 Coeff:     -0.368D-01 0.219D+00 0.841D+00
 Gap=     0.284 Goal=   None    Shift=    0.000
 Gap=     0.284 Goal=   None    Shift=    0.000
 RMSDP=2.60D-07 MaxDP=4.91D-06 DE=-3.30D-09 OVMax= 8.63D-06

 Cycle  10  Pass 1  IDiag  1:
 E= -476.510183521284     Delta-E=       -0.000000000403 Rises=F Damp=F
 DIIS: error= 1.90D-07 at cycle  10 NSaved=  10.
 NSaved=10 IEnMin=10 EnMin= -476.510183521284     IErMin=10 ErrMin= 1.90D-07
 ErrMax= 1.90D-07  0.00D+00 EMaxC= 1.00D-01 BMatC= 8.13D-12 BMatP= 1.12D-09
 IDIUse=1 WtCom= 1.00D+00 WtEn= 0.00D+00
 Coeff-Com:  0.621D-05-0.147D-04-0.322D-04-0.252D-04 0.273D-03 0.149D-02
 Coeff-Com: -0.170D-01-0.139D-01 0.101D-01 0.102D+01
 Coeff:      0.621D-05-0.147D-04-0.322D-04-0.252D-04 0.273D-03 0.149D-02
 Coeff:     -0.170D-01-0.139D-01 0.101D-01 0.102D+01
 Gap=     0.284 Goal=   None    Shift=    0.000
 Gap=     0.284 Goal=   None    Shift=    0.000
 RMSDP=4.81D-08 MaxDP=7.17D-07 DE=-4.03D-10 OVMax= 1.50D-06

 Cycle  11  Pass 1  IDiag  1:
 E= -476.510183521287     Delta-E=       -0.000000000004 Rises=F Damp=F
 DIIS: error= 4.74D-08 at cycle  11 NSaved=  11.
 NSaved=11 IEnMin=11 EnMin= -476.510183521287     IErMin=11 ErrMin= 4.74D-08
 ErrMax= 4.74D-08  0.00D+00 EMaxC= 1.00D-01 BMatC= 6.92D-13 BMatP= 8.13D-12
 IDIUse=1 WtCom= 1.00D+00 WtEn= 0.00D+00
 Coeff-Com: -0.441D-06 0.129D-05-0.952D-05-0.405D-04-0.901D-04 0.199D-02
 Coeff-Com:  0.207D-02-0.184D-01-0.659D-01 0.130D+00 0.950D+00
 Coeff:     -0.441D-06 0.129D-05-0.952D-05-0.405D-04-0.901D-04 0.199D-02
 Coeff:      0.207D-02-0.184D-01-0.659D-01 0.130D+00 0.950D+00
 Gap=     0.284 Goal=   None    Shift=    0.000
 Gap=     0.284 Goal=   None    Shift=    0.000
 RMSDP=1.45D-08 MaxDP=2.01D-07 DE=-3.52D-12 OVMax= 3.55D-07

 Cycle  12  Pass 1  IDiag  1:
 E= -476.510183521288     Delta-E=       -0.000000000001 Rises=F Damp=F
 DIIS: error= 1.06D-08 at cycle  12 NSaved=  12.
 NSaved=12 IEnMin=12 EnMin= -476.510183521288     IErMin=12 ErrMin= 1.06D-08
 ErrMax= 1.06D-08  0.00D+00 EMaxC= 1.00D-01 BMatC= 1.19D-14 BMatP= 6.92D-13
 IDIUse=1 WtCom= 1.00D+00 WtEn= 0.00D+00
 Coeff-Com: -0.124D-07-0.290D-07 0.259D-05 0.973D-05 0.109D-04-0.465D-03
 Coeff-Com: -0.855D-04 0.441D-02 0.144D-01-0.553D-01-0.226D+00 0.126D+01
 Coeff:     -0.124D-07-0.290D-07 0.259D-05 0.973D-05 0.109D-04-0.465D-03
 Coeff:     -0.855D-04 0.441D-02 0.144D-01-0.553D-01-0.226D+00 0.126D+01
 Gap=     0.284 Goal=   None    Shift=    0.000
 Gap=     0.284 Goal=   None    Shift=    0.000
 RMSDP=3.33D-09 MaxDP=4.49D-08 DE=-9.09D-13 OVMax= 8.76D-08

 SCF Done:  E(UwB97XD) =  -476.510183521     A.U. after   12 cycles
            NFock= 12  Conv=0.33D-08     -V/T= 2.0044
 <Sx>= 0.0000 <Sy>= 0.0000 <Sz>= 0.0000 <S**2>=-0.0000 S=-0.0000
 <L.S>=  0.00000000000    
 KE= 4.743998867859D+02 PE=-1.327014547213D+03 EE= 2.757976646071D+02
 Annihilation of the first spin contaminant:
 S**2 before annihilation    -0.0000,   after    -0.0000
 Leave Link  502 at Tue Jan  3 09:06:05 2023, MaxMem=   536870912 cpu:              23.7 elap:              12.0
 (Enter /opt/software/gaussian/g16.c01/l508.exe)
 QCSCF skips out because SCF is already converged.
 Leave Link  508 at Tue Jan  3 09:06:05 2023, MaxMem=   536870912 cpu:               0.0 elap:               0.0
 (Enter /opt/software/gaussian/g16.c01/l601.exe)
 Copying SCF densities to generalized density rwf, IOpCl= 1 IROHF=0.

 **********************************************************************

            Population analysis using the SCF Density.

 **********************************************************************

 Alpha  occ. eigenvalues --  -89.09199 -10.31321 -10.31313  -8.13364  -6.08638
 Alpha  occ. eigenvalues --   -6.08482  -6.08179  -0.95460  -0.79223  -0.66202
 Alpha  occ. eigenvalues --   -0.56023  -0.54989  -0.48931  -0.45010  -0.41779
 Alpha  occ. eigenvalues --   -0.27427
 Alpha virt. eigenvalues --    0.00999   0.08588   0.09168   0.09921   0.12043
 Alpha virt. eigenvalues --    0.13858   0.14872   0.15269   0.16753   0.21593
 Alpha virt. eigenvalues --    0.23274   0.24450   0.25171   0.26798   0.27931
 Alpha virt. eigenvalues --    0.28627   0.29691   0.29991   0.31616   0.31780
 Alpha virt. eigenvalues --    0.35264   0.37401   0.39639   0.39803   0.40426
 Alpha virt. eigenvalues --    0.41324   0.43527   0.44909   0.46242   0.47679
 Alpha virt. eigenvalues --    0.48400   0.50322   0.51536   0.51597   0.51982
 Alpha virt. eigenvalues --    0.56699   0.58498   0.60672   0.62186   0.68497
 Alpha virt. eigenvalues --    0.82814   0.83940   0.85810   0.86061   0.87548
 Alpha virt. eigenvalues --    0.90932   0.92774   0.96634   0.97860   1.02672
 Alpha virt. eigenvalues --    1.04980   1.06918   1.07628   1.10400   1.13168
 Alpha virt. eigenvalues --    1.21710   1.22292   1.29924   1.35645   1.39356
 Alpha virt. eigenvalues --    1.50581   1.53138   1.59000   1.69562   1.71247
 Alpha virt. eigenvalues --    1.77150   1.83767   1.90139   1.93144   2.13124
 Alpha virt. eigenvalues --    2.15395   2.21099   2.21655   2.21828   2.25988
 Alpha virt. eigenvalues --    2.37299   2.37799   2.52897   2.61103   3.05823
 Alpha virt. eigenvalues --    3.06423   3.09146   3.09453
  Beta  occ. eigenvalues --  -89.09199 -10.31321 -10.31313  -8.13364  -6.08638
  Beta  occ. eigenvalues --   -6.08482  -6.08179  -0.95460  -0.79223  -0.66202
  Beta  occ. eigenvalues --   -0.56023  -0.54989  -0.48931  -0.45010  -0.41779
  Beta  occ. eigenvalues --   -0.27427
  Beta virt. eigenvalues --    0.00999   0.08588   0.09168   0.09921   0.12043
  Beta virt. eigenvalues --    0.13858   0.14872   0.15269   0.16753   0.21593
  Beta virt. eigenvalues --    0.23274   0.24450   0.25171   0.26798   0.27931
  Beta virt. eigenvalues --    0.28627   0.29691   0.29991   0.31616   0.31780
  Beta virt. eigenvalues --    0.35264   0.37401   0.39639   0.39803   0.40426
  Beta virt. eigenvalues --    0.41324   0.43527   0.44909   0.46242   0.47679
  Beta virt. eigenvalues --    0.48400   0.50322   0.51536   0.51597   0.51982
  Beta virt. eigenvalues --    0.56699   0.58498   0.60672   0.62186   0.68497
  Beta virt. eigenvalues --    0.82814   0.83940   0.85810   0.86061   0.87548
  Beta virt. eigenvalues --    0.90932   0.92774   0.96634   0.97860   1.02672
  Beta virt. eigenvalues --    1.04980   1.06918   1.07628   1.10400   1.13168
  Beta virt. eigenvalues --    1.21710   1.22292   1.29924   1.35645   1.39356
  Beta virt. eigenvalues --    1.50581   1.53138   1.59000   1.69562   1.71247
  Beta virt. eigenvalues --    1.77150   1.83767   1.90139   1.93144   2.13124
  Beta virt. eigenvalues --    2.15395   2.21099   2.21655   2.21828   2.25988
  Beta virt. eigenvalues --    2.37299   2.37799   2.52897   2.61103   3.05823
  Beta virt. eigenvalues --    3.06423   3.09146   3.09453
          Condensed to atoms (all electrons):
               1          2          3          4          5          6
     1  C    4.631169   0.335980  -0.122599   0.346219   0.469920  -0.052181
     2  S    0.335980  15.626109   0.335965  -0.015108  -0.068576  -0.068607
     3  C   -0.122599   0.335965   4.631197   0.021106  -0.052185   0.469924
     4  H    0.346219  -0.015108   0.021106   1.012181  -0.178632   0.003522
     5  H    0.469920  -0.068576  -0.052185  -0.178632   0.958363  -0.015439
     6  H   -0.052181  -0.068607   0.469924   0.003522  -0.015439   0.958305
     7  H    0.021103  -0.015113   0.346216  -0.001161   0.003522  -0.178607
               7
     1  C    0.021103
     2  S   -0.015113
     3  C    0.346216
     4  H   -0.001161
     5  H    0.003522
     6  H   -0.178607
     7  H    1.012134
          Atomic-Atomic Spin Densities.
               1          2          3          4          5          6
     1  C    0.000000   0.000000   0.000000   0.000000   0.000000   0.000000
     2  S    0.000000   0.000000   0.000000   0.000000   0.000000   0.000000
     3  C    0.000000   0.000000   0.000000   0.000000   0.000000   0.000000
     4  H    0.000000   0.000000   0.000000   0.000000   0.000000   0.000000
     5  H    0.000000   0.000000   0.000000   0.000000   0.000000   0.000000
     6  H    0.000000   0.000000   0.000000   0.000000   0.000000   0.000000
     7  H    0.000000   0.000000   0.000000   0.000000   0.000000   0.000000
               7
     1  C    0.000000
     2  S    0.000000
     3  C    0.000000
     4  H    0.000000
     5  H    0.000000
     6  H    0.000000
     7  H    0.000000
 Mulliken charges and spin densities:
               1          2
     1  C    0.370389   0.000000
     2  S   -0.130651   0.000000
     3  C    0.370375   0.000000
     4  H   -0.188126   0.000000
     5  H   -0.116975   0.000000
     6  H   -0.116918   0.000000
     7  H   -0.188094   0.000000
 Sum of Mulliken charges =  -0.00000   0.00000
 Mulliken charges and spin densities with hydrogens summed into heavy atoms:
               1          2
     1  C    0.065288   0.000000
     2  S   -0.130651   0.000000
     3  C    0.065363   0.000000
 Electronic spatial extent (au):  <R**2>=            871.0755
 Charge=             -0.0000 electrons
 Dipole moment (field-independent basis, Debye):
    X=             -0.2089    Y=              0.1056    Z=             -0.2784  Tot=              0.3637
 Quadrupole moment (field-independent basis, Debye-Ang):
   XX=            -25.4096   YY=            -28.5044   ZZ=            -25.0802
   XY=              0.5487   XZ=             -0.5646   YZ=             -1.8666
 Traceless Quadrupole moment (field-independent basis, Debye-Ang):
   XX=              0.9218   YY=             -2.1730   ZZ=              1.2512
   XY=              0.5487   XZ=             -0.5646   YZ=             -1.8666
 Octapole moment (field-independent basis, Debye-Ang**2):
  XXX=           -172.9799  YYY=            -21.2115  ZZZ=             25.8960  XYY=            -66.0881
  XXY=             -3.3799  XXZ=              6.3481  XZZ=            -60.7711  YZZ=             -3.9849
  YYZ=              9.5380  XYZ=             -3.3316
 Hexadecapole moment (field-independent basis, Debye-Ang**3):
 XXXX=           -949.8831 YYYY=            -67.8576 ZZZZ=           -119.3830 XXXY=            -44.8689
 XXXZ=             75.5304 YYYX=            -69.6280 YYYZ=             25.9607 ZZZX=             90.3291
 ZZZY=             16.8175 XXYY=           -194.5117 XXZZ=           -192.7406 YYZZ=            -29.9342
 XXYZ=             -1.8360 YYXZ=             32.4272 ZZXY=            -13.3497
 N-N= 1.003068122987D+02 E-N=-1.327014547172D+03  KE= 4.743998867859D+02
                          Isotropic Fermi Contact Couplings
        Atom                 a.u.       MegaHertz       Gauss      10(-4) cm-1
     1  C(13)              0.00000       0.00000       0.00000       0.00000
     2  S(33)              0.00000       0.00000       0.00000       0.00000
     3  C(13)              0.00000       0.00000       0.00000       0.00000
     4  H(1)               0.00000       0.00000       0.00000       0.00000
     5  H(1)               0.00000       0.00000       0.00000       0.00000
     6  H(1)               0.00000       0.00000       0.00000       0.00000
     7  H(1)               0.00000       0.00000       0.00000       0.00000
 --------------------------------------------------------
       Center         ----  Spin Dipole Couplings  ----
                      3XX-RR        3YY-RR        3ZZ-RR
 --------------------------------------------------------
     1   Atom        0.000000      0.000000      0.000000
     2   Atom        0.000000      0.000000      0.000000
     3   Atom        0.000000      0.000000      0.000000
     4   Atom        0.000000      0.000000      0.000000
     5   Atom        0.000000      0.000000      0.000000
     6   Atom        0.000000      0.000000      0.000000
     7   Atom        0.000000      0.000000      0.000000
 --------------------------------------------------------
                        XY            XZ            YZ
 --------------------------------------------------------
     1   Atom        0.000000      0.000000      0.000000
     2   Atom        0.000000      0.000000      0.000000
     3   Atom        0.000000      0.000000      0.000000
     4   Atom        0.000000      0.000000      0.000000
     5   Atom        0.000000      0.000000      0.000000
     6   Atom        0.000000      0.000000      0.000000
     7   Atom        0.000000      0.000000      0.000000
 --------------------------------------------------------


 ---------------------------------------------------------------------------------
              Anisotropic Spin Dipole Couplings in Principal Axis System
 ---------------------------------------------------------------------------------

       Atom             a.u.   MegaHertz   Gauss  10(-4) cm-1        Axes

              Baa     0.0000     0.000     0.000     0.000  1.0000  0.0000  0.0000
     1 C(13)  Bbb     0.0000     0.000     0.000     0.000 -0.0000  1.0000  0.0000
              Bcc     0.0000     0.000     0.000     0.000  0.0000  0.0000  1.0000
 
              Baa     0.0000     0.000     0.000     0.000  1.0000  0.0000  0.0000
     2 S(33)  Bbb     0.0000     0.000     0.000     0.000 -0.0000  1.0000  0.0000
              Bcc     0.0000     0.000     0.000     0.000  0.0000  0.0000  1.0000
 
              Baa     0.0000     0.000     0.000     0.000  1.0000  0.0000  0.0000
     3 C(13)  Bbb     0.0000     0.000     0.000     0.000 -0.0000  1.0000  0.0000
              Bcc     0.0000     0.000     0.000     0.000  0.0000  0.0000  1.0000
 
              Baa     0.0000     0.000     0.000     0.000  1.0000  0.0000  0.0000
     4 H(1)   Bbb     0.0000     0.000     0.000     0.000 -0.0000  1.0000  0.0000
              Bcc     0.0000     0.000     0.000     0.000  0.0000  0.0000  1.0000
 
              Baa     0.0000     0.000     0.000     0.000  1.0000  0.0000  0.0000
     5 H(1)   Bbb     0.0000     0.000     0.000     0.000 -0.0000  1.0000  0.0000
              Bcc     0.0000     0.000     0.000     0.000  0.0000  0.0000  1.0000
 
              Baa     0.0000     0.000     0.000     0.000  1.0000  0.0000  0.0000
     6 H(1)   Bbb     0.0000     0.000     0.000     0.000 -0.0000  1.0000  0.0000
              Bcc     0.0000     0.000     0.000     0.000  0.0000  0.0000  1.0000
 
              Baa     0.0000     0.000     0.000     0.000  1.0000  0.0000  0.0000
     7 H(1)   Bbb     0.0000     0.000     0.000     0.000 -0.0000  1.0000  0.0000
              Bcc     0.0000     0.000     0.000     0.000  0.0000  0.0000  1.0000
 

 ---------------------------------------------------------------------------------

 No NMR shielding tensors so no spin-rotation constants.
 Leave Link  601 at Tue Jan  3 09:06:06 2023, MaxMem=   536870912 cpu:               0.3 elap:               0.1
 (Enter /opt/software/gaussian/g16.c01/l801.exe)
 DoSCS=F DFT=T ScalE2(SS,OS)=  1.000000  1.000000
 Range of M.O.s used for correlation:     1    99
 NBasis=    99 NAE=    16 NBE=    16 NFC=     0 NFV=     0
 NROrb=     99 NOA=    16 NOB=    16 NVA=    83 NVB=    83

 **** Warning!!: The largest alpha MO coefficient is  0.13861815D+02


 **** Warning!!: The largest beta MO coefficient is  0.13861815D+02

 Leave Link  801 at Tue Jan  3 09:06:06 2023, MaxMem=   536870912 cpu:               0.1 elap:               0.0
 (Enter /opt/software/gaussian/g16.c01/l914.exe)
 UHF ground state
 Doing stability rather than CIS.
 Keep R1 and R2 ints in memory in canonical form, NReq=52990351.
 FoFCou: FMM=F IPFlag=           0 FMFlag=           0 FMFlg1=           0
         NFxFlg=           0 DoJE=F BraDBF=F KetDBF=F FulRan=T
         wScrn=  0.000000 ICntrl=       600 IOpCl=  0 I1Cent=           0 NGrid=           0
         NMat0=    1 NMatS0=   4950 NMatT0=    0 NMatD0=    1 NMtDS0=    0 NMtDT0=    0
 Symmetry not used in FoFCou.
 Two-electron integral symmetry not used.
 MDV=   536870912 DFT=T DoStab=T Mixed=T DoRPA=F DoScal=F NonHer=F
 Making orbital integer symmetry assigments:
    12 initial guesses have been made.
 Convergence on wavefunction:    0.001000000000000
 Davidson Disk Diagonalization:  ConvIn= 1.00D-03 SkipCon=T Conv= 1.00D-03.
 Max sub-space:  2000 roots to seek:    12 dimension of matrix:         2656
 Iteration     1 Dimension    12 NMult     0 NNew     12
 CISAX will form    12 AO SS matrices at one time.
 NMat=    12 NSing=    12 JSym2X= 0.
 Excitation Energies [eV] at current iteration:
 Root      1 :     0.607584696284229
 Root      2 :     5.545703092096543
 Root      3 :     5.567601153642833
 Root      4 :     5.859123046021698
 Root      5 :     6.047789657872078
 Root      6 :     6.258870874493351
 Root      7 :     6.273119063079436
 Root      8 :     6.480148605569604
 Root      9 :     6.675845974555148
 Root     10 :     6.892301722288143
 Root     11 :     7.302538995719186
 Root     12 :    10.383819173818354
 Iteration     2 Dimension    24 NMult    12 NNew     12
 CISAX will form    12 AO SS matrices at one time.
 NMat=    12 NSing=    12 JSym2X= 0.
 Root      1 not converged, maximum delta is    0.067999396399879
 Excitation Energies [eV] at current iteration:
 Root      1 :     0.167075191691511   Change is   -0.440509504592717
 Root      2 :     5.211187942599442   Change is   -5.172631231218913
 Root      3 :     5.315404449636993   Change is   -0.252196704005841
 Root      4 :     5.321525153179926   Change is   -0.537597892841772
 Root      5 :     5.415424801589579   Change is   -0.130278290506965
 Root      6 :     5.822879224866677   Change is   -0.224910433005401
 Root      7 :     6.051781702287261   Change is   -0.207089172206089
 Root      8 :     6.159786860783585   Change is   -0.113332202295851
 Root      9 :     6.305872799660593   Change is   -0.586428922627550
 Root     10 :     6.598935986010422   Change is   -0.076909988544726
 Root     11 :     6.726677081603357   Change is    0.246528476033753
 Root     12 :     7.014560973116294   Change is   -0.287978022602892
 Iteration     3 Dimension    27 NMult    24 NNew      3
 CISAX will form     3 AO SS matrices at one time.
 NMat=     3 NSing=     3 JSym2X= 0.
 Root      1 not converged, maximum delta is    0.007596863196498
 Excitation Energies [eV] at current iteration:
 Root      1 :     0.159675280036761   Change is   -0.007399911654750
 Root      2 :     5.138690845889839   Change is   -0.072497096709603
 Root      3 :     5.278206522276048   Change is   -0.037197927360944
 Iteration     4 Dimension    30 NMult    27 NNew      3
 CISAX will form     3 AO SS matrices at one time.
 NMat=     3 NSing=     3 JSym2X= 0.
 Root      1 has converged.
 Excitation Energies [eV] at current iteration:
 Root      1 :     0.159449438311935   Change is   -0.000225841724826
 Root      2 :     5.132234827788807   Change is   -0.006456018101031
 Root      3 :     5.256326523402251   Change is   -0.021879998873798
 Convergence achieved on expansion vectors.
 ***********************************************************************
 Stability analysis using <AA,BB:AA,BB> singles matrix:
 ***********************************************************************
 1PDM for each excited state written to RWF  633
 Ground to excited state transition densities written to RWF  633

 Eigenvectors of the stability matrix:
 
 Excited state symmetry could not be determined.
 Eigenvector   1:  3.000-?Sym  Eigenvalue= 0.0058597  <S**2>=2.000
     16A -> 17A        0.69242
     16B -> 17B       -0.69242
 The wavefunction is stable under the perturbations considered.
 Leave Link  914 at Tue Jan  3 09:06:43 2023, MaxMem=   536870912 cpu:              74.9 elap:              37.5
 (Enter /opt/software/gaussian/g16.c01/l508.exe)
 The wavefunction is already stable.
 Leave Link  508 at Tue Jan  3 09:06:43 2023, MaxMem=   536870912 cpu:               0.0 elap:               0.0
 (Enter /opt/software/gaussian/g16.c01/l601.exe)
 Copying SCF densities to generalized density rwf, IOpCl= 1 IROHF=0.

 **********************************************************************

            Population analysis using the SCF Density.

 **********************************************************************

 Alpha  occ. eigenvalues --  -89.09199 -10.31321 -10.31313  -8.13364  -6.08638
 Alpha  occ. eigenvalues --   -6.08482  -6.08179  -0.95460  -0.79223  -0.66202
 Alpha  occ. eigenvalues --   -0.56023  -0.54989  -0.48931  -0.45010  -0.41779
 Alpha  occ. eigenvalues --   -0.27427
 Alpha virt. eigenvalues --    0.00999   0.08588   0.09168   0.09921   0.12043
 Alpha virt. eigenvalues --    0.13858   0.14872   0.15269   0.16753   0.21593
 Alpha virt. eigenvalues --    0.23274   0.24450   0.25171   0.26798   0.27931
 Alpha virt. eigenvalues --    0.28627   0.29691   0.29991   0.31616   0.31780
 Alpha virt. eigenvalues --    0.35264   0.37401   0.39639   0.39803   0.40426
 Alpha virt. eigenvalues --    0.41324   0.43527   0.44909   0.46242   0.47679
 Alpha virt. eigenvalues --    0.48400   0.50322   0.51536   0.51597   0.51982
 Alpha virt. eigenvalues --    0.56699   0.58498   0.60672   0.62186   0.68497
 Alpha virt. eigenvalues --    0.82814   0.83940   0.85810   0.86061   0.87548
 Alpha virt. eigenvalues --    0.90932   0.92774   0.96634   0.97860   1.02672
 Alpha virt. eigenvalues --    1.04980   1.06918   1.07628   1.10400   1.13168
 Alpha virt. eigenvalues --    1.21710   1.22292   1.29924   1.35645   1.39356
 Alpha virt. eigenvalues --    1.50581   1.53138   1.59000   1.69562   1.71247
 Alpha virt. eigenvalues --    1.77150   1.83767   1.90139   1.93144   2.13124
 Alpha virt. eigenvalues --    2.15395   2.21099   2.21655   2.21828   2.25988
 Alpha virt. eigenvalues --    2.37299   2.37799   2.52897   2.61103   3.05823
 Alpha virt. eigenvalues --    3.06423   3.09146   3.09453
  Beta  occ. eigenvalues --  -89.09199 -10.31321 -10.31313  -8.13364  -6.08638
  Beta  occ. eigenvalues --   -6.08482  -6.08179  -0.95460  -0.79223  -0.66202
  Beta  occ. eigenvalues --   -0.56023  -0.54989  -0.48931  -0.45010  -0.41779
  Beta  occ. eigenvalues --   -0.27427
  Beta virt. eigenvalues --    0.00999   0.08588   0.09168   0.09921   0.12043
  Beta virt. eigenvalues --    0.13858   0.14872   0.15269   0.16753   0.21593
  Beta virt. eigenvalues --    0.23274   0.24450   0.25171   0.26798   0.27931
  Beta virt. eigenvalues --    0.28627   0.29691   0.29991   0.31616   0.31780
  Beta virt. eigenvalues --    0.35264   0.37401   0.39639   0.39803   0.40426
  Beta virt. eigenvalues --    0.41324   0.43527   0.44909   0.46242   0.47679
  Beta virt. eigenvalues --    0.48400   0.50322   0.51536   0.51597   0.51982
  Beta virt. eigenvalues --    0.56699   0.58498   0.60672   0.62186   0.68497
  Beta virt. eigenvalues --    0.82814   0.83940   0.85810   0.86061   0.87548
  Beta virt. eigenvalues --    0.90932   0.92774   0.96634   0.97860   1.02672
  Beta virt. eigenvalues --    1.04980   1.06918   1.07628   1.10400   1.13168
  Beta virt. eigenvalues --    1.21710   1.22292   1.29924   1.35645   1.39356
  Beta virt. eigenvalues --    1.50581   1.53138   1.59000   1.69562   1.71247
  Beta virt. eigenvalues --    1.77150   1.83767   1.90139   1.93144   2.13124
  Beta virt. eigenvalues --    2.15395   2.21099   2.21655   2.21828   2.25988
  Beta virt. eigenvalues --    2.37299   2.37799   2.52897   2.61103   3.05823
  Beta virt. eigenvalues --    3.06423   3.09146   3.09453
          Condensed to atoms (all electrons):
               1          2          3          4          5          6
     1  C    4.631169   0.335980  -0.122599   0.346219   0.469920  -0.052181
     2  S    0.335980  15.626109   0.335965  -0.015108  -0.068576  -0.068607
     3  C   -0.122599   0.335965   4.631197   0.021106  -0.052185   0.469924
     4  H    0.346219  -0.015108   0.021106   1.012181  -0.178632   0.003522
     5  H    0.469920  -0.068576  -0.052185  -0.178632   0.958363  -0.015439
     6  H   -0.052181  -0.068607   0.469924   0.003522  -0.015439   0.958305
     7  H    0.021103  -0.015113   0.346216  -0.001161   0.003522  -0.178607
               7
     1  C    0.021103
     2  S   -0.015113
     3  C    0.346216
     4  H   -0.001161
     5  H    0.003522
     6  H   -0.178607
     7  H    1.012134
          Atomic-Atomic Spin Densities.
               1          2          3          4          5          6
     1  C    0.000000   0.000000   0.000000   0.000000   0.000000   0.000000
     2  S    0.000000   0.000000   0.000000   0.000000   0.000000   0.000000
     3  C    0.000000   0.000000   0.000000   0.000000   0.000000   0.000000
     4  H    0.000000   0.000000   0.000000   0.000000   0.000000   0.000000
     5  H    0.000000   0.000000   0.000000   0.000000   0.000000   0.000000
     6  H    0.000000   0.000000   0.000000   0.000000   0.000000   0.000000
     7  H    0.000000   0.000000   0.000000   0.000000   0.000000   0.000000
               7
     1  C    0.000000
     2  S    0.000000
     3  C    0.000000
     4  H    0.000000
     5  H    0.000000
     6  H    0.000000
     7  H    0.000000
 Mulliken charges and spin densities:
               1          2
     1  C    0.370389   0.000000
     2  S   -0.130651   0.000000
     3  C    0.370375   0.000000
     4  H   -0.188126   0.000000
     5  H   -0.116975   0.000000
     6  H   -0.116918   0.000000
     7  H   -0.188094   0.000000
 Sum of Mulliken charges =  -0.00000   0.00000
 Mulliken charges and spin densities with hydrogens summed into heavy atoms:
               1          2
     1  C    0.065288   0.000000
     2  S   -0.130651   0.000000
     3  C    0.065363   0.000000
 Electronic spatial extent (au):  <R**2>=            871.0755
 Charge=             -0.0000 electrons
 Dipole moment (field-independent basis, Debye):
    X=             -0.2089    Y=              0.1056    Z=             -0.2784  Tot=              0.3637
 Quadrupole moment (field-independent basis, Debye-Ang):
   XX=            -25.4096   YY=            -28.5044   ZZ=            -25.0802
   XY=              0.5487   XZ=             -0.5646   YZ=             -1.8666
 Traceless Quadrupole moment (field-independent basis, Debye-Ang):
   XX=              0.9218   YY=             -2.1730   ZZ=              1.2512
   XY=              0.5487   XZ=             -0.5646   YZ=             -1.8666
 Octapole moment (field-independent basis, Debye-Ang**2):
  XXX=           -172.9799  YYY=            -21.2115  ZZZ=             25.8960  XYY=            -66.0881
  XXY=             -3.3799  XXZ=              6.3481  XZZ=            -60.7711  YZZ=             -3.9849
  YYZ=              9.5380  XYZ=             -3.3316
 Hexadecapole moment (field-independent basis, Debye-Ang**3):
 XXXX=           -949.8831 YYYY=            -67.8576 ZZZZ=           -119.3830 XXXY=            -44.8689
 XXXZ=             75.5304 YYYX=            -69.6280 YYYZ=             25.9607 ZZZX=             90.3291
 ZZZY=             16.8175 XXYY=           -194.5117 XXZZ=           -192.7406 YYZZ=            -29.9342
 XXYZ=             -1.8360 YYXZ=             32.4272 ZZXY=            -13.3497
 N-N= 1.003068122987D+02 E-N=-1.327014547172D+03  KE= 4.743998867859D+02
                          Isotropic Fermi Contact Couplings
        Atom                 a.u.       MegaHertz       Gauss      10(-4) cm-1
     1  C(13)              0.00000       0.00000       0.00000       0.00000
     2  S(33)              0.00000       0.00000       0.00000       0.00000
     3  C(13)              0.00000       0.00000       0.00000       0.00000
     4  H(1)               0.00000       0.00000       0.00000       0.00000
     5  H(1)               0.00000       0.00000       0.00000       0.00000
     6  H(1)               0.00000       0.00000       0.00000       0.00000
     7  H(1)               0.00000       0.00000       0.00000       0.00000
 --------------------------------------------------------
       Center         ----  Spin Dipole Couplings  ----
                      3XX-RR        3YY-RR        3ZZ-RR
 --------------------------------------------------------
     1   Atom        0.000000      0.000000      0.000000
     2   Atom        0.000000      0.000000      0.000000
     3   Atom        0.000000      0.000000      0.000000
     4   Atom        0.000000      0.000000      0.000000
     5   Atom        0.000000      0.000000      0.000000
     6   Atom        0.000000      0.000000      0.000000
     7   Atom        0.000000      0.000000      0.000000
 --------------------------------------------------------
                        XY            XZ            YZ
 --------------------------------------------------------
     1   Atom        0.000000      0.000000      0.000000
     2   Atom        0.000000      0.000000      0.000000
     3   Atom        0.000000      0.000000      0.000000
     4   Atom        0.000000      0.000000      0.000000
     5   Atom        0.000000      0.000000      0.000000
     6   Atom        0.000000      0.000000      0.000000
     7   Atom        0.000000      0.000000      0.000000
 --------------------------------------------------------


 ---------------------------------------------------------------------------------
              Anisotropic Spin Dipole Couplings in Principal Axis System
 ---------------------------------------------------------------------------------

       Atom             a.u.   MegaHertz   Gauss  10(-4) cm-1        Axes

              Baa     0.0000     0.000     0.000     0.000  1.0000  0.0000  0.0000
     1 C(13)  Bbb     0.0000     0.000     0.000     0.000 -0.0000  1.0000  0.0000
              Bcc     0.0000     0.000     0.000     0.000  0.0000  0.0000  1.0000
 
              Baa     0.0000     0.000     0.000     0.000  1.0000  0.0000  0.0000
     2 S(33)  Bbb     0.0000     0.000     0.000     0.000 -0.0000  1.0000  0.0000
              Bcc     0.0000     0.000     0.000     0.000  0.0000  0.0000  1.0000
 
              Baa     0.0000     0.000     0.000     0.000  1.0000  0.0000  0.0000
     3 C(13)  Bbb     0.0000     0.000     0.000     0.000 -0.0000  1.0000  0.0000
              Bcc     0.0000     0.000     0.000     0.000  0.0000  0.0000  1.0000
 
              Baa     0.0000     0.000     0.000     0.000  1.0000  0.0000  0.0000
     4 H(1)   Bbb     0.0000     0.000     0.000     0.000 -0.0000  1.0000  0.0000
              Bcc     0.0000     0.000     0.000     0.000  0.0000  0.0000  1.0000
 
              Baa     0.0000     0.000     0.000     0.000  1.0000  0.0000  0.0000
     5 H(1)   Bbb     0.0000     0.000     0.000     0.000 -0.0000  1.0000  0.0000
              Bcc     0.0000     0.000     0.000     0.000  0.0000  0.0000  1.0000
 
              Baa     0.0000     0.000     0.000     0.000  1.0000  0.0000  0.0000
     6 H(1)   Bbb     0.0000     0.000     0.000     0.000 -0.0000  1.0000  0.0000
              Bcc     0.0000     0.000     0.000     0.000  0.0000  0.0000  1.0000
 
              Baa     0.0000     0.000     0.000     0.000  1.0000  0.0000  0.0000
     7 H(1)   Bbb     0.0000     0.000     0.000     0.000 -0.0000  1.0000  0.0000
              Bcc     0.0000     0.000     0.000     0.000  0.0000  0.0000  1.0000
 

 ---------------------------------------------------------------------------------

 No NMR shielding tensors so no spin-rotation constants.
 Leave Link  601 at Tue Jan  3 09:06:43 2023, MaxMem=   536870912 cpu:               0.3 elap:               0.1
 (Enter /opt/software/gaussian/g16.c01/l9999.exe)

 Test job not archived.
 1\1\GINC-GRA782\Stability\UwB97XD\Gen\C2H4S1\BHAVUK\03-Jan-2023\0\\#p 
 uwb97xd/gen stable=opt scf=(maxcycle=900,verytightlineq,xqc) integral=
 grid=ultrafine symmetry=None density=current iop(99/18=-1) output=wfn\
 \0003_q000_m01_k00_opt_uwb97xd_def2svpd/0003_q000_m01_k00_force_uwb97x
 d_def2svpd stable-force\\0,1\C,0,0.9838325225,-0.0325586033,0.04885801
 78\S,0,2.6071301422,0.0991997065,0.0187984451\C,0,3.2273228911,0.73619
 7977,-1.3460048506\H,0,0.570421034,-0.4575297175,0.9597448627\H,0,0.34
 38072589,0.2782232167,-0.7754915598\H,0,2.615218944,1.0564841772,-2.18
 77415072\H,0,4.3104572053,0.8236432464,-1.365823405\\Version=ES64L-G16
 RevC.01\HF=-476.5101835\S2=0.\S2-1=0.\S2A=0.\RMSD=3.326e-09\Dipole=-0.
 082186,0.0415295,-0.1095326\Quadrupole=0.685328,-1.6155658,0.9302378,0
 .407934,-0.4197662,-1.3878077\PG=Unknown\\@

 Writing a WFN file to "0003_q000_m01_k00_force_uwb97xd_def2svpd.wfn"


 I KNOW YOU BELIEVE YOU UNDERSTAND WHAT YOU THINK I SAID,
 BUT I AM NOT SURE YOU REALIZE THAT WHAT YOU HEARD IS NOT WHAT I MEANT.
 Job cpu time:       0 days  0 hours  1 minutes 42.2 seconds.
 Elapsed time:       0 days  0 hours  0 minutes 51.2 seconds.
 File lengths (MBytes):  RWF=     84 Int=      0 D2E=      0 Chk=      3 Scr=      1
 Normal termination of Gaussian 16 at Tue Jan  3 09:06:43 2023.
 Initial command:
 /opt/software/gaussian/g16.c01/l1.exe "/localscratch/bhavuk.2151388.0/Gau-6995.inp" -scrdir="/localscratch/bhavuk.2151388.0/"
 Entering Link 1 = /opt/software/gaussian/g16.c01/l1.exe PID=      7267.
  
 Copyright (c) 1988-2019, Gaussian, Inc.  All Rights Reserved.
  
 This is part of the Gaussian(R) 16 program.  It is based on
 the Gaussian(R) 09 system (copyright 2009, Gaussian, Inc.),
 the Gaussian(R) 03 system (copyright 2003, Gaussian, Inc.),
 the Gaussian(R) 98 system (copyright 1998, Gaussian, Inc.),
 the Gaussian(R) 94 system (copyright 1995, Gaussian, Inc.),
 the Gaussian 92(TM) system (copyright 1992, Gaussian, Inc.),
 the Gaussian 90(TM) system (copyright 1990, Gaussian, Inc.),
 the Gaussian 88(TM) system (copyright 1988, Gaussian, Inc.),
 the Gaussian 86(TM) system (copyright 1986, Carnegie Mellon
 University), and the Gaussian 82(TM) system (copyright 1983,
 Carnegie Mellon University). Gaussian is a federally registered
 trademark of Gaussian, Inc.
  
 This software contains proprietary and confidential information,
 including trade secrets, belonging to Gaussian, Inc.
  
 This software is provided under written license and may be
 used, copied, transmitted, or stored only in accord with that
 written license.
  
 The following legend is applicable only to US Government
 contracts under FAR:
  
                    RESTRICTED RIGHTS LEGEND
  
 Use, reproduction and disclosure by the US Government is
 subject to restrictions as set forth in subparagraphs (a)
 and (c) of the Commercial Computer Software - Restricted
 Rights clause in FAR 52.227-19.
  
 Gaussian, Inc.
 340 Quinnipiac St., Bldg. 40, Wallingford CT 06492
  
  
 ---------------------------------------------------------------
 Warning -- This program may not be used in any manner that
 competes with the business of Gaussian, Inc. or will provide
 assistance to any competitor of Gaussian, Inc.  The licensee
 of this program is prohibited from giving any competitor of
 Gaussian, Inc. access to this program.  By using this program,
 the user acknowledges that Gaussian, Inc. is engaged in the
 business of creating and licensing software in the field of
 computational chemistry and represents and warrants to the
 licensee that it is not a competitor of Gaussian, Inc. and that
 it will not use this program in any manner prohibited above.
 ---------------------------------------------------------------
  

 Cite this work as:
 Gaussian 16, Revision C.01,
 M. J. Frisch, G. W. Trucks, H. B. Schlegel, G. E. Scuseria, 
 M. A. Robb, J. R. Cheeseman, G. Scalmani, V. Barone, 
 G. A. Petersson, H. Nakatsuji, X. Li, M. Caricato, A. V. Marenich, 
 J. Bloino, B. G. Janesko, R. Gomperts, B. Mennucci, H. P. Hratchian, 
 J. V. Ortiz, A. F. Izmaylov, J. L. Sonnenberg, D. Williams-Young, 
 F. Ding, F. Lipparini, F. Egidi, J. Goings, B. Peng, A. Petrone, 
 T. Henderson, D. Ranasinghe, V. G. Zakrzewski, J. Gao, N. Rega, 
 G. Zheng, W. Liang, M. Hada, M. Ehara, K. Toyota, R. Fukuda, 
 J. Hasegawa, M. Ishida, T. Nakajima, Y. Honda, O. Kitao, H. Nakai, 
 T. Vreven, K. Throssell, J. A. Montgomery, Jr., J. E. Peralta, 
 F. Ogliaro, M. J. Bearpark, J. J. Heyd, E. N. Brothers, K. N. Kudin, 
 V. N. Staroverov, T. A. Keith, R. Kobayashi, J. Normand, 
 K. Raghavachari, A. P. Rendell, J. C. Burant, S. S. Iyengar, 
 J. Tomasi, M. Cossi, J. M. Millam, M. Klene, C. Adamo, R. Cammi, 
 J. W. Ochterski, R. L. Martin, K. Morokuma, O. Farkas, 
 J. B. Foresman, and D. J. Fox, Gaussian, Inc., Wallingford CT, 2019.
 
 ******************************************
 Gaussian 16:  ES64L-G16RevC.01  3-Jul-2019
                 3-Jan-2023 
 ******************************************
 %chk=0003_q000_m01_k00_force_uwb97xd_def2svpd.chk
 %nprocshared=2
 Will use up to    2 processors via shared memory.
 %mem=4GB
 ----------------------------------------------------------------------
 #p uwb97xd/chkbasis force guess=read geom=check scf=(maxcycle=900,very
 tightlineq,xqc) integral=grid=ultrafine symmetry=None density=current 
 pop=(cm5,hlygat,mbs,npa) output=wfx
 ----------------------------------------------------------------------
 1/10=7,29=2,30=1,38=1/1,3;
 2/12=2,15=3,40=1/2;
 3/5=7,6=2,11=2,14=-4,25=1,30=1,67=1,71=1,74=-58,75=-5,116=2/1,2,3;
 4/5=1/1;
 5/5=2,7=900,8=3,13=1,17=3,38=6/2,8;
 6/7=2,8=2,9=2,10=2,15=8,20=15,22=-1,27=100,28=1,40=-1,79=1/1,2,7;
 7/29=1,30=1/1,2,3,16;
 1/10=7,30=1/3;
 99/6=200/99;
 Leave Link    1 at Tue Jan  3 09:06:44 2023, MaxMem=   536870912 cpu:               0.2 elap:               0.1
 (Enter /opt/software/gaussian/g16.c01/l101.exe)
 ----------------------------------------------------------------------
 0003_q000_m01_k00_opt_uwb97xd_def2svpd/0003_q000_m01_k00_force_uwb97xd
 _def2svpd stable-force
 ----------------------------------------------------------------------
 Structure from the checkpoint file:  "0003_q000_m01_k00_force_uwb97xd_def2svpd.chk"
 Charge =  0 Multiplicity = 1
 Z-Matrix found in chk file.
 C,0,0.9838325225,-0.0325586033,0.0488580178
 S,0,2.6071301422,0.0991997065,0.0187984451
 C,0,3.2273228911,0.736197977,-1.3460048506
 H,0,0.570421034,-0.4575297175,0.9597448627
 H,0,0.3438072589,0.2782232167,-0.7754915598
 H,0,2.615218944,1.0564841772,-2.1877415072
 H,0,4.3104572053,0.8236432464,-1.365823405
 Recover connectivity data from disk.
 ITRead=  0  0  0  0  0  0  0
 MicOpt= -1 -1 -1 -1 -1 -1 -1
 NAtoms=      7 NQM=        7 NQMF=       0 NMMI=      0 NMMIF=      0
                NMic=       0 NMicF=      0.
                    Isotopes and Nuclear Properties:
 (Nuclear quadrupole moments (NQMom) in fm**2, nuclear magnetic moments (NMagM)
  in nuclear magnetons)

  Atom         1           2           3           4           5           6           7
 IAtWgt=          12          32          12           1           1           1           1
 AtmWgt=  12.0000000  31.9720718  12.0000000   1.0078250   1.0078250   1.0078250   1.0078250
 NucSpn=           0           0           0           1           1           1           1
 AtZEff=   3.6000000  13.6000000   3.6000000   1.0000000   1.0000000   1.0000000   1.0000000
 NQMom=    0.0000000   0.0000000   0.0000000   0.0000000   0.0000000   0.0000000   0.0000000
 NMagM=    0.0000000   0.0000000   0.0000000   2.7928460   2.7928460   2.7928460   2.7928460
 AtZNuc=   6.0000000  16.0000000   6.0000000   1.0000000   1.0000000   1.0000000   1.0000000
 Leave Link  101 at Tue Jan  3 09:06:44 2023, MaxMem=   536870912 cpu:               0.4 elap:               0.2
 (Enter /opt/software/gaussian/g16.c01/l103.exe)

 GradGradGradGradGradGradGradGradGradGradGradGradGradGradGradGradGradGrad
 Berny optimization.
 Initialization pass.
 Trust Radius=3.00D-01 FncErr=1.00D-07 GrdErr=1.00D-07 EigMax=2.50D+02 EigMin=1.00D-04
 Number of steps in this run=      2 maximum allowed number of steps=      2.
 GradGradGradGradGradGradGradGradGradGradGradGradGradGradGradGradGradGrad

 Leave Link  103 at Tue Jan  3 09:06:44 2023, MaxMem=   536870912 cpu:               0.0 elap:               0.0
 (Enter /opt/software/gaussian/g16.c01/l202.exe)
                          Input orientation:                          
 ---------------------------------------------------------------------
 Center     Atomic      Atomic             Coordinates (Angstroms)
 Number     Number       Type             X           Y           Z
 ---------------------------------------------------------------------
      1          6           0        0.983833   -0.032559    0.048858
      2         16           0        2.607130    0.099200    0.018798
      3          6           0        3.227323    0.736198   -1.346005
      4          1           0        0.570421   -0.457530    0.959745
      5          1           0        0.343807    0.278223   -0.775492
      6          1           0        2.615219    1.056484   -2.187742
      7          1           0        4.310457    0.823643   -1.365823
 ---------------------------------------------------------------------
                    Distance matrix (angstroms):
                    1          2          3          4          5
     1  C    0.000000
     2  S    1.628913   0.000000
     3  C    2.751341   1.628832   0.000000
     4  H    1.086841   2.311604   3.714915   0.000000
     5  H    1.088931   2.405323   2.974876   1.898350   0.000000
     6  H    2.974864   2.405260   1.088933   4.047234   2.785579
     7  H    3.714948   2.311562   1.086839   4.586670   4.047257
                    6          7
     6  H    0.000000
     7  H    1.898314   0.000000
 Symmetry turned off by external request.
 Stoichiometry    C2H4S
 Rotational constants (GHZ):          32.8865896           8.4327606           6.7117401
 Leave Link  202 at Tue Jan  3 09:06:44 2023, MaxMem=   536870912 cpu:               0.0 elap:               0.0
 (Enter /opt/software/gaussian/g16.c01/l301.exe)
 Basis read from chk: "0003_q000_m01_k00_force_uwb97xd_def2svpd.chk" (5D, 7F)
 No pseudopotential information found on chk file.
    99 basis functions,   151 primitive gaussians,   105 cartesian basis functions
    16 alpha electrons       16 beta electrons
       nuclear repulsion energy       100.3080120317 Hartrees.
 IExCor= 4639 DFT=T Ex+Corr=wB97XD ExCW=0 ScaHFX=  1.000000
 ScaDFX=  1.000000  1.000000  1.000000  1.000000 ScalE2=  1.000000  1.000000
 IRadAn=      5 IRanWt=     -1 IRanGd=            0 ICorTp=0 IEmpDi=121
 HFx  wShort=  0.000000 wLong=  0.200000 cFull=  0.222036 cShort=  0.000000 cLong=  0.777964
 DFx  wShort=  0.000000 wLong=  0.200000 cFull=  0.000000 cShort=  0.000000 cLong=  1.000000
 NAtoms=    7 NActive=    7 NUniq=    7 SFac= 1.00D+00 NAtFMM=   60 NAOKFM=F Big=F
 Integral buffers will be    131072 words long.
 Raffenetti 2 integral format.
 Two-electron integral symmetry is turned off.
 R6Disp:  Grimme-D2 Dispersion energy=       -0.0011997330 Hartrees.
 Nuclear repulsion after empirical dispersion term =      100.3068122987 Hartrees.
 No density basis found on file  20724.
 Leave Link  301 at Tue Jan  3 09:06:44 2023, MaxMem=   536870912 cpu:               0.1 elap:               0.1
 (Enter /opt/software/gaussian/g16.c01/l302.exe)
 NPDir=0 NMtPBC=     1 NCelOv=     1 NCel=       1 NClECP=     1 NCelD=      1
         NCelK=      1 NCelE2=     1 NClLst=     1 CellRange=     0.0.
 One-electron integrals computed using PRISM.
 NBasis=    99 RedAO= T EigKep=  4.04D-04  NBF=    99
 NBsUse=    99 1.00D-06 EigRej= -1.00D+00 NBFU=    99
 Precomputing XC quadrature grid using
 IXCGrd= 4 IRadAn=           5 IRanWt=          -1 IRanGd=           0 AccXCQ= 0.00D+00.
 Generated NRdTot=       0 NPtTot=           0 NUsed=           0 NTot=          32
 NSgBfM=   105   105   105   105   105 MxSgAt=     7 MxSgA2=     7.
 Leave Link  302 at Tue Jan  3 09:06:44 2023, MaxMem=   536870912 cpu:               0.3 elap:               0.2
 (Enter /opt/software/gaussian/g16.c01/l303.exe)
 DipDrv:  MaxL=1.
 Leave Link  303 at Tue Jan  3 09:06:44 2023, MaxMem=   536870912 cpu:               0.1 elap:               0.0
 (Enter /opt/software/gaussian/g16.c01/l401.exe)
 Initial guess from the checkpoint file:  "0003_q000_m01_k00_force_uwb97xd_def2svpd.chk"
 B after Tr=     0.000000    0.000000    0.000000
         Rot=    1.000000    0.000000    0.000000    0.000000 Ang=   0.00 deg.
 Guess basis will be translated and rotated to current coordinates.
 JPrj=2 DoOrth=T DoCkMO=T.
 Initial guess <Sx>= 0.0000 <Sy>= 0.0000 <Sz>= 0.0000 <S**2>= 0.0000 S= 0.0000
 Leave Link  401 at Tue Jan  3 09:06:44 2023, MaxMem=   536870912 cpu:               0.2 elap:               0.1
 (Enter /opt/software/gaussian/g16.c01/l502.exe)
 Keep R1 and R2 ints in memory in canonical form, NReq=51377165.
 FoFCou: FMM=F IPFlag=           0 FMFlag=           0 FMFlg1=           0
         NFxFlg=           0 DoJE=F BraDBF=F KetDBF=F FulRan=T
         wScrn=  0.000000 ICntrl=       600 IOpCl=  0 I1Cent=           0 NGrid=           0
         NMat0=    1 NMatS0=   4950 NMatT0=    0 NMatD0=    1 NMtDS0=    0 NMtDT0=    0
 Symmetry not used in FoFCou.
 Two-electron integral symmetry not used.
 UHF open shell SCF:
 Using DIIS extrapolation, IDIIS=  1040.
 NGot=   536870912 LenX=   487832277 LenY=   487820811
 Requested convergence on RMS density matrix=1.00D-08 within 128 cycles.
 Requested convergence on MAX density matrix=1.00D-06.
 Requested convergence on             energy=1.00D-06.
 No special actions if energy rises.

 Cycle   1  Pass 1  IDiag  1:
 E= -476.510183521288    
 DIIS: error= 8.49D-10 at cycle   1 NSaved=   1.
 NSaved= 1 IEnMin= 1 EnMin= -476.510183521288     IErMin= 1 ErrMin= 8.49D-10
 ErrMax= 8.49D-10  0.00D+00 EMaxC= 1.00D-01 BMatC= 1.25D-16 BMatP= 1.25D-16
 IDIUse=1 WtCom= 1.00D+00 WtEn= 0.00D+00
 Coeff-Com:  0.100D+01
 Coeff:      0.100D+01
 Gap=     0.284 Goal=   None    Shift=    0.000
 Gap=     0.284 Goal=   None    Shift=    0.000
 RMSDP=2.29D-10 MaxDP=3.11D-09              OVMax= 5.44D-09

 SCF Done:  E(UwB97XD) =  -476.510183521     A.U. after    1 cycles
            NFock=  1  Conv=0.23D-09     -V/T= 2.0044
 <Sx>= 0.0000 <Sy>= 0.0000 <Sz>= 0.0000 <S**2>= 0.0000 S= 0.0000
 <L.S>=  0.00000000000    
 KE= 4.743998867773D+02 PE=-1.327014547163D+03 EE= 2.757976645658D+02
 Annihilation of the first spin contaminant:
 S**2 before annihilation    -0.0000,   after    -0.0000
 Leave Link  502 at Tue Jan  3 09:06:46 2023, MaxMem=   536870912 cpu:               3.8 elap:               1.9
 (Enter /opt/software/gaussian/g16.c01/l508.exe)
 QCSCF skips out because SCF is already converged.
 Leave Link  508 at Tue Jan  3 09:06:46 2023, MaxMem=   536870912 cpu:               0.0 elap:               0.0
 (Enter /opt/software/gaussian/g16.c01/l601.exe)
 Copying SCF densities to generalized density rwf, IOpCl= 1 IROHF=0.

 **********************************************************************

            Population analysis using the SCF Density.

 **********************************************************************

 Alpha  occ. eigenvalues --  -89.09199 -10.31321 -10.31313  -8.13364  -6.08638
 Alpha  occ. eigenvalues --   -6.08482  -6.08179  -0.95460  -0.79223  -0.66202
 Alpha  occ. eigenvalues --   -0.56023  -0.54989  -0.48931  -0.45010  -0.41779
 Alpha  occ. eigenvalues --   -0.27427
 Alpha virt. eigenvalues --    0.00999   0.08588   0.09168   0.09921   0.12043
 Alpha virt. eigenvalues --    0.13858   0.14872   0.15269   0.16753   0.21593
 Alpha virt. eigenvalues --    0.23274   0.24450   0.25171   0.26798   0.27931
 Alpha virt. eigenvalues --    0.28627   0.29691   0.29991   0.31616   0.31780
 Alpha virt. eigenvalues --    0.35264   0.37401   0.39639   0.39803   0.40426
 Alpha virt. eigenvalues --    0.41324   0.43527   0.44909   0.46242   0.47679
 Alpha virt. eigenvalues --    0.48400   0.50322   0.51536   0.51597   0.51982
 Alpha virt. eigenvalues --    0.56699   0.58498   0.60672   0.62186   0.68497
 Alpha virt. eigenvalues --    0.82814   0.83940   0.85810   0.86061   0.87548
 Alpha virt. eigenvalues --    0.90932   0.92774   0.96634   0.97860   1.02672
 Alpha virt. eigenvalues --    1.04980   1.06918   1.07628   1.10400   1.13168
 Alpha virt. eigenvalues --    1.21710   1.22292   1.29924   1.35645   1.39356
 Alpha virt. eigenvalues --    1.50581   1.53138   1.59000   1.69562   1.71247
 Alpha virt. eigenvalues --    1.77150   1.83767   1.90139   1.93144   2.13124
 Alpha virt. eigenvalues --    2.15395   2.21099   2.21655   2.21828   2.25988
 Alpha virt. eigenvalues --    2.37299   2.37799   2.52897   2.61103   3.05823
 Alpha virt. eigenvalues --    3.06423   3.09146   3.09453
  Beta  occ. eigenvalues --  -89.09199 -10.31321 -10.31313  -8.13364  -6.08638
  Beta  occ. eigenvalues --   -6.08482  -6.08179  -0.95460  -0.79223  -0.66202
  Beta  occ. eigenvalues --   -0.56023  -0.54989  -0.48931  -0.45010  -0.41779
  Beta  occ. eigenvalues --   -0.27427
  Beta virt. eigenvalues --    0.00999   0.08588   0.09168   0.09921   0.12043
  Beta virt. eigenvalues --    0.13858   0.14872   0.15269   0.16753   0.21593
  Beta virt. eigenvalues --    0.23274   0.24450   0.25171   0.26798   0.27931
  Beta virt. eigenvalues --    0.28627   0.29691   0.29991   0.31616   0.31780
  Beta virt. eigenvalues --    0.35264   0.37401   0.39639   0.39803   0.40426
  Beta virt. eigenvalues --    0.41324   0.43527   0.44909   0.46242   0.47679
  Beta virt. eigenvalues --    0.48400   0.50322   0.51536   0.51597   0.51982
  Beta virt. eigenvalues --    0.56699   0.58498   0.60672   0.62186   0.68497
  Beta virt. eigenvalues --    0.82814   0.83940   0.85810   0.86061   0.87548
  Beta virt. eigenvalues --    0.90932   0.92774   0.96634   0.97860   1.02672
  Beta virt. eigenvalues --    1.04980   1.06918   1.07628   1.10400   1.13168
  Beta virt. eigenvalues --    1.21710   1.22292   1.29924   1.35645   1.39356
  Beta virt. eigenvalues --    1.50581   1.53138   1.59000   1.69562   1.71247
  Beta virt. eigenvalues --    1.77150   1.83767   1.90139   1.93144   2.13124
  Beta virt. eigenvalues --    2.15395   2.21099   2.21655   2.21828   2.25988
  Beta virt. eigenvalues --    2.37299   2.37799   2.52897   2.61103   3.05823
  Beta virt. eigenvalues --    3.06423   3.09146   3.09453
          Condensed to atoms (all electrons):
               1          2          3          4          5          6
     1  C    4.631169   0.335980  -0.122599   0.346219   0.469920  -0.052181
     2  S    0.335980  15.626109   0.335965  -0.015108  -0.068576  -0.068607
     3  C   -0.122599   0.335965   4.631197   0.021106  -0.052185   0.469924
     4  H    0.346219  -0.015108   0.021106   1.012181  -0.178632   0.003522
     5  H    0.469920  -0.068576  -0.052185  -0.178632   0.958363  -0.015439
     6  H   -0.052181  -0.068607   0.469924   0.003522  -0.015439   0.958305
     7  H    0.021103  -0.015113   0.346216  -0.001161   0.003522  -0.178607
               7
     1  C    0.021103
     2  S   -0.015113
     3  C    0.346216
     4  H   -0.001161
     5  H    0.003522
     6  H   -0.178607
     7  H    1.012134
          Atomic-Atomic Spin Densities.
               1          2          3          4          5          6
     1  C    0.000000   0.000000   0.000000   0.000000   0.000000   0.000000
     2  S    0.000000   0.000000   0.000000   0.000000   0.000000   0.000000
     3  C    0.000000   0.000000   0.000000   0.000000   0.000000   0.000000
     4  H    0.000000   0.000000   0.000000   0.000000   0.000000   0.000000
     5  H    0.000000   0.000000   0.000000   0.000000   0.000000   0.000000
     6  H    0.000000   0.000000   0.000000   0.000000   0.000000   0.000000
     7  H    0.000000   0.000000   0.000000   0.000000   0.000000   0.000000
               7
     1  C    0.000000
     2  S    0.000000
     3  C    0.000000
     4  H    0.000000
     5  H    0.000000
     6  H    0.000000
     7  H    0.000000
 Mulliken charges and spin densities:
               1          2
     1  C    0.370389   0.000000
     2  S   -0.130651   0.000000
     3  C    0.370375   0.000000
     4  H   -0.188126   0.000000
     5  H   -0.116975   0.000000
     6  H   -0.116918   0.000000
     7  H   -0.188094   0.000000
 Sum of Mulliken charges =  -0.00000   0.00000
 Mulliken charges and spin densities with hydrogens summed into heavy atoms:
               1          2
     1  C    0.065288   0.000000
     2  S   -0.130651   0.000000
     3  C    0.065363   0.000000
 Electronic spatial extent (au):  <R**2>=            871.0755
 Charge=              0.0000 electrons
 Dipole moment (field-independent basis, Debye):
    X=             -0.2089    Y=              0.1056    Z=             -0.2784  Tot=              0.3637
 Quadrupole moment (field-independent basis, Debye-Ang):
   XX=            -25.4096   YY=            -28.5044   ZZ=            -25.0802
   XY=              0.5487   XZ=             -0.5646   YZ=             -1.8666
 Traceless Quadrupole moment (field-independent basis, Debye-Ang):
   XX=              0.9218   YY=             -2.1730   ZZ=              1.2512
   XY=              0.5487   XZ=             -0.5646   YZ=             -1.8666
 Octapole moment (field-independent basis, Debye-Ang**2):
  XXX=           -172.9799  YYY=            -21.2115  ZZZ=             25.8960  XYY=            -66.0881
  XXY=             -3.3799  XXZ=              6.3481  XZZ=            -60.7711  YZZ=             -3.9849
  YYZ=              9.5380  XYZ=             -3.3316
 Hexadecapole moment (field-independent basis, Debye-Ang**3):
 XXXX=           -949.8831 YYYY=            -67.8576 ZZZZ=           -119.3830 XXXY=            -44.8689
 XXXZ=             75.5304 YYYX=            -69.6280 YYYZ=             25.9607 ZZZX=             90.3291
 ZZZY=             16.8175 XXYY=           -194.5117 XXZZ=           -192.7406 YYZZ=            -29.9342
 XXYZ=             -1.8360 YYXZ=             32.4272 ZZXY=            -13.3497
 N-N= 1.003068122987D+02 E-N=-1.327014547143D+03  KE= 4.743998867773D+02
 There are a total of      158266 grid points.
 ElSum from          density=       31.9999995942
 ElSum from atomic densities=       32.0000007239

 Hirshfeld populations at iteration   1 (CX, CA, CB, DipXYZ):
               1          2          3          4          5          6
     1  C    0.000000   3.080787   3.080787  -0.053637   0.007366  -0.025938
     2  S    0.000005   7.917137   7.917137  -0.018230   0.009201  -0.024263
     3  C    0.000000   3.080780   3.080780  -0.007102   0.023242  -0.054901
     4  H    0.000002   0.481724   0.481724  -0.082693  -0.067782   0.142446
     5  H    0.000000   0.478928   0.478928  -0.109316   0.047270  -0.127403
     6  H    0.000000   0.478925   0.478925  -0.090823   0.053595  -0.138902
     7  H    0.000002   0.481720   0.481720   0.175936   0.020775  -0.018394
       Tot   0.000010  16.000000  16.000000  -0.185866   0.093667  -0.247355

 Dip from Atomic Chgs              0.103681  -0.052144   0.137818
         Total Dipole             -0.082186   0.041523  -0.109537

 Hirshfeld charges, spin densities, dipoles, and CM5 charges using IRadAn=      5:
              Q-H        S-H        Dx         Dy         Dz        Q-CM5   
     1  C   -0.161573   0.000000  -0.053637   0.007366  -0.025938  -0.240424
     2  S    0.165726   0.000000  -0.018230   0.009201  -0.024263   0.109120
     3  C   -0.161560   0.000000  -0.007102   0.023242  -0.054901  -0.240407
     4  H    0.036552   0.000000  -0.082693  -0.067782   0.142446   0.090673
     5  H    0.042145   0.000000  -0.109316   0.047270  -0.127403   0.095176
     6  H    0.042151   0.000000  -0.090823   0.053595  -0.138902   0.095182
     7  H    0.036559   0.000000   0.175936   0.020775  -0.018394   0.090681
       Tot   0.000000   0.000000  -0.185866   0.093667  -0.247355   0.000000
 Hirshfeld charges and spin densities with hydrogens summed into heavy atoms:
              Q-H        S-H       Q-CM5   
     1  C   -0.082877   0.000000  -0.054576
     2  S    0.165726   0.000000   0.109120
     3  C   -0.082849   0.000000  -0.054544
 
 EQQ=  0.00000000000     EQD=  0.00000000000     EDD= 0.204764970176E-02
 EQQ+QD+DD= 0.204764970176E-02
 
 GSVD:  LWork=       -1008 too small for GESVD, short by        4340 words or        4340 for optimal perf.
          MBS Condensed to atoms (all electrons):
               1          2          3          4          5          6
     1  C    5.095261   0.474335  -0.018482   0.385665   0.380375  -0.001953
     2  S    0.474335  14.998665   0.474368  -0.022971  -0.016777  -0.016778
     3  C   -0.018482   0.474368   5.095196   0.000708  -0.001953   0.380372
     4  H    0.385665  -0.022971   0.000708   0.525023  -0.017750  -0.000000
     5  H    0.380375  -0.016777  -0.001953  -0.017750   0.534451   0.001173
     6  H   -0.001953  -0.016778   0.380372  -0.000000   0.001173   0.534455
     7  H    0.000708  -0.022972   0.385664  -0.000019  -0.000000  -0.017751
               7
     1  C    0.000708
     2  S   -0.022972
     3  C    0.385664
     4  H   -0.000019
     5  H   -0.000000
     6  H   -0.017751
     7  H    0.525024
          MBS Atomic-Atomic Spin Densities.
               1          2          3          4          5          6
     1  C   -0.000000   0.000000   0.000000  -0.000000  -0.000000   0.000000
     2  S    0.000000   0.000000  -0.000000   0.000000  -0.000000   0.000000
     3  C    0.000000  -0.000000   0.000000  -0.000000   0.000000  -0.000000
     4  H   -0.000000   0.000000  -0.000000   0.000000   0.000000   0.000000
     5  H   -0.000000  -0.000000   0.000000   0.000000   0.000000  -0.000000
     6  H    0.000000   0.000000  -0.000000   0.000000  -0.000000  -0.000000
     7  H    0.000000  -0.000000   0.000000   0.000000  -0.000000  -0.000000
               7
     1  C    0.000000
     2  S   -0.000000
     3  C    0.000000
     4  H    0.000000
     5  H   -0.000000
     6  H   -0.000000
     7  H    0.000000
 MBS Mulliken charges and spin densities:
               1          2
     1  C   -0.315908  -0.000000
     2  S    0.132130  -0.000000
     3  C   -0.315873  -0.000000
     4  H    0.129344  -0.000000
     5  H    0.120480  -0.000000
     6  H    0.120481  -0.000000
     7  H    0.129346  -0.000000
 Sum of MBS Mulliken charges =   0.00000  -0.00000
 MBS Mulliken charges and spin densities with hydrogens summed into heavy atoms:
               1          2
     1  C   -0.066084  -0.000000
     2  S    0.132130  -0.000000
     3  C   -0.066046  -0.000000
 MBS Atomic Valencies and Mayer Atomic Bond Orders:
               1          2          3          4          5          6
     1  C    3.863611   1.621342   0.332836   0.948035   0.949833   0.002676
     2  S    1.621342   3.341835   1.621405   0.021403   0.028138   0.028141
     3  C    0.332836   1.621405   3.863660   0.008884   0.002675   0.949830
     4  H    0.948035   0.021403   0.008884   0.983270   0.003106   0.000002
     5  H    0.949833   0.028138   0.002675   0.003106   0.985484   0.001731
     6  H    0.002676   0.028141   0.949830   0.000002   0.001731   0.985484
     7  H    0.008888   0.021405   0.948030   0.001839   0.000002   0.003104
               7
     1  C    0.008888
     2  S    0.021405
     3  C    0.948030
     4  H    0.001839
[...]


 ***************************************************
 *******         Beta  spin orbitals         *******
 ***************************************************


 NATURAL POPULATIONS:  Natural atomic orbital occupancies 
                                                          
   NAO  Atom  No  lang   Type(AO)    Occupancy      Energy
 ----------------------------------------------------------
     1    C    1  S      Cor( 1S)     0.99979     -10.21413
     2    C    1  S      Val( 2S)     0.57793      -0.35968
     3    C    1  S      Ryd( 4S)     0.00063       0.87658
     4    C    1  S      Ryd( 3S)     0.00003       0.82243
     5    C    1  px     Val( 2p)     0.52573      -0.15210
     6    C    1  px     Ryd( 3p)     0.00309       0.79424
     7    C    1  py     Val( 2p)     0.66599      -0.18548
     8    C    1  py     Ryd( 3p)     0.00338       0.74664
     9    C    1  pz     Val( 2p)     0.64104      -0.12887
    10    C    1  pz     Ryd( 3p)     0.00150       0.90925
    11    C    1  dxy    Ryd( 4d)     0.00114       1.63585
    12    C    1  dxy    Ryd( 3d)     0.00017       0.98106
    13    C    1  dxz    Ryd( 4d)     0.00040       2.14057
    14    C    1  dxz    Ryd( 3d)     0.00016       1.06700
    15    C    1  dyz    Ryd( 4d)     0.00022       1.59234
    16    C    1  dyz    Ryd( 3d)     0.00013       1.09804
    17    C    1  dx2y2  Ryd( 4d)     0.00137       1.84747
    18    C    1  dx2y2  Ryd( 3d)     0.00004       0.96470
    19    C    1  dz2    Ryd( 4d)     0.00072       1.86781
    20    C    1  dz2    Ryd( 3d)     0.00010       0.97973
 
    21    S    2  S      Cor( 1S)     1.00000     -88.46170
    22    S    2  S      Cor( 2S)     0.99949      -8.46562
    23    S    2  S      Val( 3S)     0.74925      -0.74842
    24    S    2  S      Ryd( 5S)     0.00482       0.82532
    25    S    2  S      Ryd( 4S)     0.00008       0.34870
    26    S    2  px     Cor( 2p)     0.99985      -6.07452
    27    S    2  px     Val( 3p)     0.56504      -0.19318
    28    S    2  px     Ryd( 5p)     0.00269       0.95350
    29    S    2  px     Ryd( 4p)     0.00004       0.28816
    30    S    2  py     Cor( 2p)     0.99990      -6.07758
    31    S    2  py     Val( 3p)     0.62267      -0.26278
    32    S    2  py     Ryd( 5p)     0.00062       0.85628
    33    S    2  py     Ryd( 4p)     0.00001       0.26223
    34    S    2  pz     Cor( 2p)     0.99988      -6.07472
    35    S    2  pz     Val( 3p)     0.65956      -0.24650
    36    S    2  pz     Ryd( 5p)     0.00195       0.91744
    37    S    2  pz     Ryd( 4p)     0.00003       0.27971
    38    S    2  dxy    Ryd( 4d)     0.00992       0.77958
    39    S    2  dxy    Ryd( 3d)     0.00002       0.65311
    40    S    2  dxz    Ryd( 4d)     0.00434       0.94672
    41    S    2  dxz    Ryd( 3d)     0.00006       0.72367
    42    S    2  dyz    Ryd( 4d)     0.00530       0.79764
    43    S    2  dyz    Ryd( 3d)     0.00003       0.68390
    44    S    2  dx2y2  Ryd( 4d)     0.00652       0.94778
    45    S    2  dx2y2  Ryd( 3d)     0.00007       0.74861
    46    S    2  dz2    Ryd( 4d)     0.00639       0.93149
    47    S    2  dz2    Ryd( 3d)     0.00005       0.71077
 
    48    C    3  S      Cor( 1S)     0.99979     -10.21413
    49    C    3  S      Val( 2S)     0.57792      -0.35968
    50    C    3  S      Ryd( 4S)     0.00063       0.87659
    51    C    3  S      Ryd( 3S)     0.00002       0.82242
    52    C    3  px     Val( 2p)     0.61707      -0.12496
    53    C    3  px     Ryd( 3p)     0.00148       0.91739
    54    C    3  py     Val( 2p)     0.65021      -0.19017
    55    C    3  py     Ryd( 3p)     0.00366       0.72538
    56    C    3  pz     Val( 2p)     0.56548      -0.15137
    57    C    3  pz     Ryd( 3p)     0.00283       0.80735
    58    C    3  dxy    Ryd( 4d)     0.00024       1.62614
    59    C    3  dxy    Ryd( 3d)     0.00005       0.93791
    60    C    3  dxz    Ryd( 4d)     0.00100       2.10568
    61    C    3  dxz    Ryd( 3d)     0.00014       0.96013
    62    C    3  dyz    Ryd( 4d)     0.00115       1.67369
    63    C    3  dyz    Ryd( 3d)     0.00011       0.99721
    64    C    3  dx2y2  Ryd( 4d)     0.00044       1.73004
    65    C    3  dx2y2  Ryd( 3d)     0.00020       1.22655
    66    C    3  dz2    Ryd( 4d)     0.00103       1.94868
    67    C    3  dz2    Ryd( 3d)     0.00010       0.96850
 
    68    H    4  S      Val( 1S)     0.37260       0.07556
    69    H    4  S      Ryd( 2S)     0.00028       0.50580
    70    H    4  px     Ryd( 2p)     0.00099       0.83007
    71    H    4  px     Ryd( 3p)     0.00016       1.71932
    72    H    4  py     Ryd( 2p)     0.00020       0.80345
    73    H    4  py     Ryd( 3p)     0.00006       1.61204
    74    H    4  pz     Ryd( 2p)     0.00053       1.01541
    75    H    4  pz     Ryd( 3p)     0.00011       1.77139
 
    76    H    5  S      Val( 1S)     0.38027       0.07310
    77    H    5  S      Ryd( 2S)     0.00053       0.54762
    78    H    5  px     Ryd( 2p)     0.00057       1.03844
    79    H    5  px     Ryd( 3p)     0.00015       1.69886
    80    H    5  py     Ryd( 2p)     0.00007       0.82815
    81    H    5  py     Ryd( 3p)     0.00012       1.57376
    82    H    5  pz     Ryd( 2p)     0.00040       1.03457
    83    H    5  pz     Ryd( 3p)     0.00012       1.76067
 
    84    H    6  S      Val( 1S)     0.38027       0.07309
    85    H    6  S      Ryd( 2S)     0.00053       0.54764
    86    H    6  px     Ryd( 2p)     0.00040       0.96934
    87    H    6  px     Ryd( 3p)     0.00013       1.72252
    88    H    6  py     Ryd( 2p)     0.00010       0.83973
    89    H    6  py     Ryd( 3p)     0.00012       1.56998
    90    H    6  pz     Ryd( 2p)     0.00055       1.09108
    91    H    6  pz     Ryd( 3p)     0.00013       1.74178
 
    92    H    7  S      Val( 1S)     0.37260       0.07555
    93    H    7  S      Ryd( 2S)     0.00028       0.50582
    94    H    7  px     Ryd( 2p)     0.00072       1.11809
    95    H    7  px     Ryd( 3p)     0.00012       1.85802
    96    H    7  py     Ryd( 2p)     0.00025       0.75363
    97    H    7  py     Ryd( 3p)     0.00007       1.58825
    98    H    7  pz     Ryd( 2p)     0.00076       0.77683
    99    H    7  pz     Ryd( 3p)     0.00015       1.65689

 WARNING:  Population inversion found on atom  C    1
           Population inversion found on atom  S    2
           Population inversion found on atom  C    3
           Population inversion found on atom  H    5
           Population inversion found on atom  H    6


 Summary of Natural Population Analysis:                  
                                                          
                                       Natural Population 
                Natural  -----------------------------------------------
    Atom  No    Charge         Core      Valence    Rydberg      Total
 -----------------------------------------------------------------------
      C    1   -0.42353      0.99979     2.41069    0.01305     3.42353
      S    2    0.36140      4.99913     2.59652    0.04295     7.63860
      C    3   -0.42353      0.99979     2.41068    0.01306     3.42353
      H    4    0.12505      0.00000     0.37260    0.00235     0.37495
      H    5    0.11777      0.00000     0.38027    0.00196     0.38223
      H    6    0.11778      0.00000     0.38027    0.00196     0.38222
      H    7    0.12506      0.00000     0.37260    0.00235     0.37494
 =======================================================================
   * Total *   -0.00000      6.99871     8.92362    0.07767    16.00000

                                 Natural Population      
 --------------------------------------------------------
   Core                       6.99871 ( 99.9815% of   7)
   Valence                    8.92362 ( 99.1513% of   9)
   Natural Minimal Basis     15.92233 ( 99.5146% of  16)
   Natural Rydberg Basis      0.07767 (  0.4854% of  16)
 --------------------------------------------------------

    Atom  No          Natural Electron Configuration
 ----------------------------------------------------------------------------
      C    1      [core]2S( 0.58)2p( 1.83)3p( 0.01)
      S    2      [core]3S( 0.75)3p( 1.85)4d( 0.03)5p( 0.01)
      C    3      [core]2S( 0.58)2p( 1.83)3p( 0.01)
      H    4            1S( 0.37)
      H    5            1S( 0.38)
      H    6            1S( 0.38)
      H    7            1S( 0.37)


 NBO analysis skipped by request.
 Leave Link  607 at Tue Jan  3 09:06:49 2023, MaxMem=   536870912 cpu:               3.6 elap:               1.8
 (Enter /opt/software/gaussian/g16.c01/l701.exe)
 ... and contract with generalized density number  0.
 Compute integral first derivatives.
 R6Disp: Adding Grimme-D2 dispersion energy 1st derivatives to the gradient.
 Leave Link  701 at Tue Jan  3 09:06:49 2023, MaxMem=   536870912 cpu:               0.2 elap:               0.1
 (Enter /opt/software/gaussian/g16.c01/l702.exe)
 L702 exits ... SP integral derivatives will be done elsewhere.
 Leave Link  702 at Tue Jan  3 09:06:49 2023, MaxMem=   536870912 cpu:               0.1 elap:               0.0
 (Enter /opt/software/gaussian/g16.c01/l703.exe)
 Integral derivatives from FoFJK, PRISM(SPDF).
 Compute integral first derivatives, UseDBF=F ICtDFT=           0.
 Calling FoFJK, ICntrl=      2127 FMM=F ISym2X=0 I1Cent= 0 IOpClX= 1 NMat=1 NMatS=1 NMatT=0.
 FoFJK:  IHMeth= 1 ICntrl=    2127 DoSepK=T KAlg= 0 I1Cent=           0 FoldK=F
 IRaf=         1 NMat=       1 IRICut=       1 DoRegI=T DoRafI=F ISym2E= 0 IDoP0=0 IntGTp=1.
 FoFCou: FMM=F IPFlag=           0 FMFlag=      100000 FMFlg1=         800
         NFxFlg=           0 DoJE=F BraDBF=F KetDBF=F FulRan=T
         wScrn=  0.000000 ICntrl=      2527 IOpCl=  0 I1Cent=           0 NGrid=           0
         NMat0=    1 NMatS0=      1 NMatT0=    0 NMatD0=    1 NMtDS0=    0 NMtDT0=    0
 Symmetry not used in FoFCou.
 Leave Link  703 at Tue Jan  3 09:06:53 2023, MaxMem=   536870912 cpu:               7.1 elap:               3.5
 (Enter /opt/software/gaussian/g16.c01/l716.exe)
 Dipole        =-8.21860307D-02 4.15295285D-02-1.09532633D-01
 -------------------------------------------------------------------
 Center     Atomic                   Forces (Hartrees/Bohr)
 Number     Number              X              Y              Z
 -------------------------------------------------------------------
      1        6           0.000002949   -0.000000885   -0.000001519
      2       16           0.000000432    0.000004870    0.000001636
      3        6          -0.000001546   -0.000001410    0.000004095
      4        1          -0.000002321    0.000001631   -0.000000186
      5        1          -0.000001520   -0.000005670   -0.000001931
      6        1           0.000002085   -0.000002968   -0.000002768
      7        1          -0.000000080    0.000004431    0.000000671
 -------------------------------------------------------------------
 Cartesian Forces:  Max     0.000005670 RMS     0.000002643
 Z-matrix is all fixed cartesians, so copy forces.
 Force constants in Cartesian coordinates: 
                1             2             3             4             5 
      1  0.799457D+00
      2  0.386953D-01  0.202300D+00
      3  0.262318D-01 -0.197489D+00  0.573805D+00
      4 -0.458605D+00 -0.232735D-01 -0.165583D-01  0.577555D+00
      5 -0.320482D-01 -0.525335D-01  0.183029D-01  0.867656D-01  0.122175D+00
      6  0.365769D-02  0.197847D-01 -0.872720D-01 -0.110154D+00 -0.165608D+00
      7  0.122699D-02 -0.100692D-01  0.221250D-01 -0.139616D+00 -0.489763D-01
      8 -0.597775D-03  0.748286D-02  0.517705D-03 -0.577409D-01 -0.107626D+00
      9  0.278568D-03 -0.108316D-02  0.102956D-01  0.116790D+00  0.142526D+00
     10 -0.144909D+00 -0.441803D-01  0.836168D-01  0.115252D-02 -0.932375D-02
     11 -0.404522D-01 -0.846163D-01  0.105218D+00 -0.241587D-03  0.264194D-02
     12  0.750267D-01  0.104603D+00 -0.264763D+00  0.410365D-03 -0.299905D-02
     13 -0.197168D+00  0.388020D-01 -0.115426D+00 -0.916549D-03  0.691836D-02
     14  0.343779D-01 -0.722913D-01  0.735979D-01 -0.146773D-02  0.180903D-01
     15 -0.105206D+00  0.743316D-01 -0.232001D+00  0.158269D-03  0.144866D-02
     16 -0.246017D-04  0.336366D-03  0.145813D-03  0.192862D-01 -0.309494D-02
     17  0.337132D-03 -0.460942D-02 -0.199817D-02  0.528610D-02  0.146053D-01
     18  0.146171D-03 -0.199852D-02 -0.866351D-03 -0.120134D-01  0.780803D-02
     19  0.227250D-04 -0.310706D-03 -0.134690D-03  0.114404D-02 -0.240739D-03
     20 -0.312161D-03  0.426801D-02  0.185017D-02 -0.932793D-02  0.264671D-02
     21 -0.135369D-03  0.185083D-02  0.802328D-03  0.213670D-01 -0.147893D-02
                6             7             8             9            10 
      6  0.407473D+00
      7  0.965700D-01  0.667382D+00
      8  0.141042D+00  0.492959D-01  0.225135D+00
      9 -0.351317D+00 -0.206782D-01 -0.248346D+00  0.683203D+00
     10  0.213707D-01  0.228255D-04 -0.312081D-03 -0.135286D-03  0.115530D+00
     11 -0.146606D-02 -0.312069D-03  0.426675D-02  0.184962D-02  0.445604D-01
     12  0.901525D-02 -0.135235D-03  0.184900D-02  0.801534D-03 -0.864441D-01
     13 -0.191712D-01 -0.246447D-04  0.336954D-03  0.146068D-03  0.282041D-01
     14  0.324183D-04  0.336979D-03 -0.460733D-02 -0.199726D-02  0.925576D-02
     15  0.148968D-01  0.146176D-03 -0.199858D-02 -0.866379D-03 -0.184082D-01
     16  0.731953D-02 -0.179623D+00  0.329496D-01 -0.989913D-01  0.000000D+00
     17  0.921888D-02  0.373763D-01 -0.753070D-01  0.810589D-01  0.000000D+00
     18 -0.181486D-02 -0.109211D+00  0.803191D-01 -0.246533D+00  0.000000D+00
     19  0.407512D-03 -0.349368D+00 -0.239317D-01  0.258983D-02  0.000000D+00
     20 -0.300348D-02 -0.276515D-01 -0.493443D-01  0.259912D-01  0.000000D+00
     21  0.901933D-02  0.111835D-01  0.266169D-01 -0.955832D-01  0.000000D+00
               11            12            13            14            15 
     11  0.698063D-01
     12 -0.111340D+00  0.260624D+00
     13 -0.355446D-02  0.111423D-01  0.169905D+00
     14  0.790132D-02  0.788712D-02 -0.425029D-01  0.509070D-01
     15  0.573850D-02 -0.567740D-02  0.123309D+00 -0.795202D-01  0.223648D+00
     16  0.000000D+00  0.000000D+00  0.000000D+00  0.000000D+00  0.000000D+00
     17  0.000000D+00  0.000000D+00  0.000000D+00  0.000000D+00  0.000000D+00
     18  0.000000D+00  0.000000D+00  0.000000D+00  0.000000D+00  0.000000D+00
     19  0.000000D+00  0.000000D+00  0.000000D+00  0.000000D+00  0.000000D+00
     20  0.000000D+00  0.000000D+00  0.000000D+00  0.000000D+00  0.000000D+00
     21  0.000000D+00  0.000000D+00  0.000000D+00  0.000000D+00  0.000000D+00
               16            17            18            19            20 
     16  0.161831D+00
     17 -0.418445D-01  0.522901D-01
     18  0.120449D+00 -0.826089D-01  0.230340D+00
     19 -0.147004D-02 -0.115499D-02  0.629518D-03  0.349671D+00
     20  0.116534D-01  0.130211D-01 -0.351969D-02  0.256381D-01  0.294086D-01
     21 -0.289230D-01 -0.567069D-02  0.188748D-01 -0.349217D-02 -0.213182D-01
               21 
     21  0.668867D-01
 Leave Link  716 at Tue Jan  3 09:06:53 2023, MaxMem=   536870912 cpu:               0.1 elap:               0.0
 (Enter /opt/software/gaussian/g16.c01/l103.exe)

 GradGradGradGradGradGradGradGradGradGradGradGradGradGradGradGradGradGrad
 Berny optimization.
 Search for a local minimum.
 Step number   1 out of a maximum of    2
 All quantities printed in internal units (Hartrees-Bohrs-Radians)
 Second derivative matrix not updated -- first step.
 ITU=  0
     Eigenvalues ---    0.00860   0.01482   0.01804   0.07108   0.07556
     Eigenvalues ---    0.11270   0.14823   0.15345   0.17618   0.32617
     Eigenvalues ---    0.36576   0.82416   0.92900   1.11635   1.31988
 Angle between quadratic step and forces=  69.10 degrees.
 Linear search not attempted -- first point.
 B after Tr=     0.000003    0.000003    0.000005
         Rot=    1.000000   -0.000009   -0.000003    0.000006 Ang=  -0.00 deg.
 Variable       Old X    -DE/DX   Delta X   Delta X   Delta X     New X
                                 (Linear)    (Quad)   (Total)
    X1        1.85917   0.00000   0.00000  -0.00000   0.00000   1.85918
    Y1       -0.06153  -0.00000   0.00000   0.00001  -0.00001  -0.06154
    Z1        0.09233  -0.00000   0.00000   0.00001  -0.00000   0.09233
    X2        4.92676   0.00000   0.00000   0.00001   0.00001   4.92677
    Y2        0.18746   0.00000   0.00000  -0.00006  -0.00011   0.18735
    Z2        0.03552   0.00000   0.00000  -0.00002  -0.00005   0.03548
    X3        6.09876  -0.00000   0.00000   0.00000   0.00000   6.09876
    Y3        1.39121  -0.00000   0.00000   0.00000  -0.00002   1.39119
    Z3       -2.54358   0.00000   0.00000   0.00000  -0.00001  -2.54359
    X4        1.07794  -0.00000   0.00000  -0.00002  -0.00002   1.07792
    Y4       -0.86461   0.00000   0.00000   0.00012   0.00007  -0.86453
    Z4        1.81365  -0.00000   0.00000   0.00005   0.00003   1.81369
    X5        0.64970  -0.00000   0.00000  -0.00002  -0.00002   0.64969
    Y5        0.52577  -0.00001   0.00000  -0.00004  -0.00002   0.52575
    Z5       -1.46547  -0.00000   0.00000  -0.00000   0.00001  -1.46546
    X6        4.94205   0.00000   0.00000   0.00002   0.00002   4.94207
    Y6        1.99647  -0.00000   0.00000  -0.00002   0.00000   1.99647
    Z6       -4.13423  -0.00000   0.00000  -0.00002  -0.00001  -4.13424
    X7        8.14558  -0.00000   0.00000  -0.00001  -0.00000   8.14558
    Y7        1.55646   0.00000   0.00000   0.00012   0.00008   1.55654
    Z7       -2.58103   0.00000   0.00000   0.00004   0.00002  -2.58101
         Item               Value     Threshold  Converged?
 Maximum Force            0.000006     0.000450     YES
 RMS     Force            0.000003     0.000300     YES
 Maximum Displacement     0.000110     0.001800     YES
 RMS     Displacement     0.000037     0.001200     YES
 Predicted change in Energy=-3.632687D-10
 Optimization completed.
    -- Stationary point found.
 GradGradGradGradGradGradGradGradGradGradGradGradGradGradGradGradGradGrad

 Leave Link  103 at Tue Jan  3 09:06:53 2023, MaxMem=   536870912 cpu:               0.0 elap:               0.0
 (Enter /opt/software/gaussian/g16.c01/l9999.exe)
 Unable to Open any file for archive entry.
 1\1\GINC-GRA782\Force\UwB97XD\Gen\C2H4S1\BHAVUK\03-Jan-2023\0\\#p uwb9
 7xd/chkbasis force guess=read geom=check scf=(maxcycle=900,verytightli
 neq,xqc) integral=grid=ultrafine symmetry=None density=current pop=(cm
 5,hlygat,mbs,npa) output=wfx\\0003_q000_m01_k00_opt_uwb97xd_def2svpd/0
 003_q000_m01_k00_force_uwb97xd_def2svpd stable-force\\0,1\C,0.98383252
 25,-0.0325586033,0.0488580178\S,2.6071301422,0.0991997065,0.0187984451
 \C,3.2273228911,0.736197977,-1.3460048506\H,0.570421034,-0.4575297175,
 0.9597448627\H,0.3438072589,0.2782232167,-0.7754915598\H,2.615218944,1
 .0564841772,-2.1877415072\H,4.3104572053,0.8236432464,-1.365823405\\Ve
 rsion=ES64L-G16RevC.01\HF=-476.5101835\S2=0.\S2-1=0.\S2A=0.\RMSD=2.290
 e-10\RMSF=2.643e-06\Dipole=-0.082186,0.0415295,-0.1095326\Quadrupole=0
 .685328,-1.6155658,0.9302378,0.407934,-0.4197662,-1.3878077\PG=Unknown
 \\@
 The archive entry for this job was punched.

 Writing a WFNX file to "0003_q000_m01_k00_force_uwb97xd_def2svpd.wfx"


 THE UNDERLYING PHYSICAL LAWS NECESSARY FOR THE 
 MATHEMATICAL THEORY OF A LARGE PART OF PHYSICS AND THE
 WHOLE OF CHEMISTRY ARE THUS COMPLETELY KNOWN, AND THE
 DIFFICULTY IS ONLY THAT THE EXACT APPLICATION OF THESE
 LAWS LEADS TO EQUATIONS MUCH TOO COMPLICATED 
 TO BE SOLUBLE.

                                        -- P. A. M. DIRAC, 1929
 Job cpu time:       0 days  0 hours  0 minutes 18.3 seconds.
 Elapsed time:       0 days  0 hours  0 minutes  8.9 seconds.
 File lengths (MBytes):  RWF=     10 Int=      0 D2E=      0 Chk=      3 Scr=      1
 Normal termination of Gaussian 16 at Tue Jan  3 09:06:53 2023.
