 Entering Gaussian System, Link 0=g16
 Input=0003_q000_m01_k00_force_ub3lyp_def2qzvpd.com
 Output=0003_q000_m01_k00_force_ub3lyp_def2qzvpd.log
 Initial command:
 /opt/software/gaussian/g16.c01/l1.exe "/localscratch/bhavuk.2151374.0/Gau-6499.inp" -scrdir="/localscratch/bhavuk.2151374.0/"
 Entering Link 1 = /opt/software/gaussian/g16.c01/l1.exe PID=      6500.
  
 Copyright (c) 1988-2019, Gaussian, Inc.  All Rights Reserved.
  
 This is part of the Gaussian(R) 16 program.  It is based on
 the Gaussian(R) 09 system (copyright 2009, Gaussian, Inc.),
 the Gaussian(R) 03 system (copyright 2003, Gaussian, Inc.),
 the Gaussian(R) 98 system (copyright 1998, Gaussian, Inc.),
 the Gaussian(R) 94 system (copyright 1995, Gaussian, Inc.),
 the Gaussian 92(TM) system (copyright 1992, Gaussian, Inc.),
 the Gaussian 90(TM) system (copyright 1990, Gaussian, Inc.),
 the Gaussian 88(TM) system (copyright 1988, Gaussian, Inc.),
 the Gaussian 86(TM) system (copyright 1986, Carnegie Mellon
 University), and the Gaussian 82(TM) system (copyright 1983,
 Carnegie Mellon University). Gaussian is a federally registered
 trademark of Gaussian, Inc.
  
 This software contains proprietary and confidential information,
 including trade secrets, belonging to Gaussian, Inc.
  
 This software is provided under written license and may be
 used, copied, transmitted, or stored only in accord with that
 written license.
  
 The following legend is applicable only to US Government
 contracts under FAR:
  
                    RESTRICTED RIGHTS LEGEND
  
 Use, reproduction and disclosure by the US Government is
 subject to restrictions as set forth in subparagraphs (a)
 and (c) of the Commercial Computer Software - Restricted
 Rights clause in FAR 52.227-19.
  
 Gaussian, Inc.
 340 Quinnipiac St., Bldg. 40, Wallingford CT 06492
  
  
 ---------------------------------------------------------------
 Warning -- This program may not be used in any manner that
 competes with the business of Gaussian, Inc. or will provide
 assistance to any competitor of Gaussian, Inc.  The licensee
 of this program is prohibited from giving any competitor of
 Gaussian, Inc. access to this program.  By using this program,
 the user acknowledges that Gaussian, Inc. is engaged in the
 business of creating and licensing software in the field of
 computational chemistry and represents and warrants to the
 licensee that it is not a competitor of Gaussian, Inc. and that
 it will not use this program in any manner prohibited above.
 ---------------------------------------------------------------
  

 Cite this work as:
 Gaussian 16, Revision C.01,
 M. J. Frisch, G. W. Trucks, H. B. Schlegel, G. E. Scuseria, 
 M. A. Robb, J. R. Cheeseman, G. Scalmani, V. Barone, 
 G. A. Petersson, H. Nakatsuji, X. Li, M. Caricato, A. V. Marenich, 
 J. Bloino, B. G. Janesko, R. Gomperts, B. Mennucci, H. P. Hratchian, 
 J. V. Ortiz, A. F. Izmaylov, J. L. Sonnenberg, D. Williams-Young, 
 F. Ding, F. Lipparini, F. Egidi, J. Goings, B. Peng, A. Petrone, 
 T. Henderson, D. Ranasinghe, V. G. Zakrzewski, J. Gao, N. Rega, 
 G. Zheng, W. Liang, M. Hada, M. Ehara, K. Toyota, R. Fukuda, 
 J. Hasegawa, M. Ishida, T. Nakajima, Y. Honda, O. Kitao, H. Nakai, 
 T. Vreven, K. Throssell, J. A. Montgomery, Jr., J. E. Peralta, 
 F. Ogliaro, M. J. Bearpark, J. J. Heyd, E. N. Brothers, K. N. Kudin, 
 V. N. Staroverov, T. A. Keith, R. Kobayashi, J. Normand, 
 K. Raghavachari, A. P. Rendell, J. C. Burant, S. S. Iyengar, 
 J. Tomasi, M. Cossi, J. M. Millam, M. Klene, C. Adamo, R. Cammi, 
 J. W. Ochterski, R. L. Martin, K. Morokuma, O. Farkas, 
 J. B. Foresman, and D. J. Fox, Gaussian, Inc., Wallingford CT, 2019.
 
 ******************************************
 Gaussian 16:  ES64L-G16RevC.01  3-Jul-2019
                 3-Jan-2023 
 ******************************************
 %chk=0003_q000_m01_k00_force_ub3lyp_def2qzvpd.chk
 %nprocshared=2
 Will use up to    2 processors via shared memory.
 %mem=4GB
 ----------------------------------------------------------------------
 #p ub3lyp/gen stable=opt scf=(maxcycle=900,verytightlineq,xqc) integra
 l=grid=ultrafine symmetry=None density=current iop(99/18=-1) output=wf
 n
 ----------------------------------------------------------------------
 1/38=1,172=1/1;
 2/12=2,15=3,17=6,18=5,40=1/2;
 3/5=7,11=2,25=1,30=1,74=-5,75=-5,116=2/1,2,3;
 4//1;
 5/5=2,7=900,8=3,13=1,17=3,38=5/2,8;
 6/7=2,8=2,9=2,10=2,22=-1,28=1/1;
 8/6=1,10=90,11=11/1;
 9/8=-3,42=1,46=1/14;
 5/5=2,7=900,8=3,17=43,38=5/8(-2);
 6/7=2,8=2,9=2,10=2,22=-1,28=1/1;
 99/5=1,6=100,9=1,18=-1/99;
 Leave Link    1 at Tue Jan  3 09:05:07 2023, MaxMem=   536870912 cpu:               0.1 elap:               0.1
 (Enter /opt/software/gaussian/g16.c01/l101.exe)
 ----------------------------------------------------------------------
 0003_q000_m01_k00_opt_uwb97xd_def2svpd/0003_q000_m01_k00_force_ub3lyp_
 def2qzvpd stable-force
 ----------------------------------------------------------------------
 Symbolic Z-matrix:
 Charge =  0 Multiplicity = 1
 C                     0.98383  -0.03256   0.04886 
 S                     2.60713   0.0992    0.0188 
 C                     3.22732   0.7362   -1.346 
 H                     0.57042  -0.45753   0.95974 
 H                     0.34381   0.27822  -0.77549 
 H                     2.61522   1.05648  -2.18774 
 H                     4.31046   0.82364  -1.36582 
 
 ITRead=  0  0  0  0  0  0  0
 MicOpt= -1 -1 -1 -1 -1 -1 -1
 NAtoms=      7 NQM=        7 NQMF=       0 NMMI=      0 NMMIF=      0
                NMic=       0 NMicF=      0.
                    Isotopes and Nuclear Properties:
 (Nuclear quadrupole moments (NQMom) in fm**2, nuclear magnetic moments (NMagM)
  in nuclear magnetons)

  Atom         1           2           3           4           5           6           7
 IAtWgt=          12          32          12           1           1           1           1
 AtmWgt=  12.0000000  31.9720718  12.0000000   1.0078250   1.0078250   1.0078250   1.0078250
 NucSpn=           0           0           0           1           1           1           1
 AtZEff=  -0.0000000  -0.0000000  -0.0000000  -0.0000000  -0.0000000  -0.0000000  -0.0000000
 NQMom=    0.0000000   0.0000000   0.0000000   0.0000000   0.0000000   0.0000000   0.0000000
 NMagM=    0.0000000   0.0000000   0.0000000   2.7928460   2.7928460   2.7928460   2.7928460
 AtZNuc=   6.0000000  16.0000000   6.0000000   1.0000000   1.0000000   1.0000000   1.0000000
 Leave Link  101 at Tue Jan  3 09:05:07 2023, MaxMem=   536870912 cpu:               0.5 elap:               0.3
 (Enter /opt/software/gaussian/g16.c01/l202.exe)
                          Input orientation:                          
 ---------------------------------------------------------------------
 Center     Atomic      Atomic             Coordinates (Angstroms)
 Number     Number       Type             X           Y           Z
 ---------------------------------------------------------------------
      1          6           0        0.983833   -0.032559    0.048858
      2         16           0        2.607130    0.099200    0.018798
      3          6           0        3.227323    0.736198   -1.346005
      4          1           0        0.570421   -0.457530    0.959745
      5          1           0        0.343807    0.278223   -0.775492
      6          1           0        2.615219    1.056484   -2.187742
      7          1           0        4.310457    0.823643   -1.365823
 ---------------------------------------------------------------------
                    Distance matrix (angstroms):
                    1          2          3          4          5
     1  C    0.000000
     2  S    1.628913   0.000000
     3  C    2.751341   1.628832   0.000000
     4  H    1.086841   2.311604   3.714915   0.000000
     5  H    1.088931   2.405323   2.974876   1.898350   0.000000
     6  H    2.974864   2.405260   1.088933   4.047234   2.785579
     7  H    3.714948   2.311562   1.086839   4.586670   4.047257
                    6          7
     6  H    0.000000
     7  H    1.898314   0.000000
 Symmetry turned off by external request.
 Stoichiometry    C2H4S
 Rotational constants (GHZ):          32.8865896           8.4327606           6.7117401
 Leave Link  202 at Tue Jan  3 09:05:07 2023, MaxMem=   536870912 cpu:               0.0 elap:               0.0
 (Enter /opt/software/gaussian/g16.c01/l301.exe)
 General basis read from cards:  (5D, 7F)
 Centers:       4      5      6      7
 S 4 1.00
     Exponent=  1.9069169000D+02 Coefficients=  7.0815167000D-04
     Exponent=  2.8605532000D+01 Coefficients=  5.4678827000D-03
     Exponent=  6.5095943000D+00 Coefficients=  2.7966605000D-02
     Exponent=  1.8412455000D+00 Coefficients=  1.0764538000D-01
 S 1 1.00
     Exponent=  5.9853725000D-01 Coefficients=  1.0000000000D+00
 S 1 1.00
     Exponent=  2.1397624000D-01 Coefficients=  1.0000000000D+00
 S 1 1.00
     Exponent=  8.0316286000D-02 Coefficients=  1.0000000000D+00
 P 1 1.00
     Exponent=  2.2920000000D+00 Coefficients=  1.0000000000D+00
 P 1 1.00
     Exponent=  8.3800000000D-01 Coefficients=  1.0000000000D+00
 P 1 1.00
     Exponent=  2.9200000000D-01 Coefficients=  1.0000000000D+00
 P 1 1.00
     Exponent=  8.4063199228D-02 Coefficients=  1.0000000000D+00
 D 1 1.00
     Exponent=  2.0620000000D+00 Coefficients=  1.0000000000D+00
 D 1 1.00
     Exponent=  6.6200000000D-01 Coefficients=  1.0000000000D+00
 F 1 1.00
     Exponent=  1.3970000000D+00 Coefficients=  1.0000000000D+00
 ****
 Centers:       1      3
 S 8 1.00
     Exponent=  6.7025071029D+04 Coefficients=  3.8736308501D-05
     Exponent=  1.0039986538D+04 Coefficients=  3.0107917575D-04
     Exponent=  2.2849316911D+03 Coefficients=  1.5787918095D-03
     Exponent=  6.4714122130D+02 Coefficients=  6.6087087195D-03
     Exponent=  2.1109472335D+02 Coefficients=  2.3367123250D-02
     Exponent=  7.6177643862D+01 Coefficients=  7.0420716898D-02
     Exponent=  2.9633839163D+01 Coefficients=  1.7360344953D-01
     Exponent=  1.2187785081D+01 Coefficients=  3.2292305648D-01
 S 2 1.00
     Exponent=  5.3026006299D+01 Coefficients=  7.4897404492D-02
     Exponent=  1.5258502776D+01 Coefficients=  7.6136220983D-01
 S 1 1.00
     Exponent=  5.2403957464D+00 Coefficients=  1.0000000000D+00
 S 1 1.00
     Exponent=  2.2905022379D+00 Coefficients=  1.0000000000D+00
 S 1 1.00
     Exponent=  6.9673283006D-01 Coefficients=  1.0000000000D+00
 S 1 1.00
     Exponent=  2.7599337363D-01 Coefficients=  1.0000000000D+00
 S 1 1.00
     Exponent=  1.0739884389D-01 Coefficients=  1.0000000000D+00
 S 1 1.00
     Exponent=  4.4981404899D-02 Coefficients=  1.0000000000D+00
 P 5 1.00
     Exponent=  1.0512555082D+02 Coefficients=  8.4647553844D-04
     Exponent=  2.4884461066D+01 Coefficients=  6.6274038534D-03
     Exponent=  7.8637230826D+00 Coefficients=  3.0120390419D-02
     Exponent=  2.8407001835D+00 Coefficients=  9.9951435476D-02
     Exponent=  1.1227137335D+00 Coefficients=  2.3826299282D-01
 P 1 1.00
     Exponent=  4.6050725555D-01 Coefficients=  1.0000000000D+00
 P 1 1.00
     Exponent=  1.8937530913D-01 Coefficients=  1.0000000000D+00
 P 1 1.00
     Exponent=  7.5983791611D-02 Coefficients=  1.0000000000D+00
 D 1 1.00
     Exponent=  1.8480000000D+00 Coefficients=  1.0000000000D+00
 D 1 1.00
     Exponent=  6.4900000000D-01 Coefficients=  1.0000000000D+00
 D 1 1.00
     Exponent=  2.2800000000D-01 Coefficients=  1.0000000000D+00
 D 1 1.00
     Exponent=  7.6889830417D-02 Coefficients=  1.0000000000D+00
 F 1 1.00
     Exponent=  1.4190000000D+00 Coefficients=  1.0000000000D+00
 F 1 1.00
     Exponent=  4.8500000000D-01 Coefficients=  1.0000000000D+00
 G 1 1.00
     Exponent=  1.0110000000D+00 Coefficients=  1.0000000000D+00
 ****
 Centers:       2
 S 10 1.00
     Exponent=  1.2734109023D+06 Coefficients=  1.1767088246D-05
     Exponent=  1.9069783007D+05 Coefficients=  9.1478610166D-05
     Exponent=  4.3397885330D+04 Coefficients=  4.8090078640D-04
     Exponent=  1.2291809677D+04 Coefficients=  2.0257193592D-03
     Exponent=  4.0097420824D+03 Coefficients=  7.3190096406D-03
     Exponent=  1.4473531030D+03 Coefficients=  2.3300499900D-02
     Exponent=  5.6430102913D+02 Coefficients=  6.5386213610D-02
     Exponent=  2.3374506243D+02 Coefficients=  1.5614449910D-01
     Exponent=  1.0156402814D+02 Coefficients=  2.9318563787D-01
     Exponent=  4.5805907187D+01 Coefficients=  3.6287914289D-01
 S 3 1.00
     Exponent=  3.9427281503D+02 Coefficients=  1.8753305081D-02
     Exponent=  1.2172249591D+02 Coefficients=  1.6870726663D-01
     Exponent=  4.6754125963D+01 Coefficients=  6.3806830653D-01
 S 1 1.00
     Exponent=  2.0923008254D+01 Coefficients=  1.0000000000D+00
 S 1 1.00
     Exponent=  8.2685567800D+00 Coefficients=  1.0000000000D+00
 S 1 1.00
     Exponent=  3.8629345671D+00 Coefficients=  1.0000000000D+00
 S 1 1.00
     Exponent=  1.7794684781D+00 Coefficients=  1.0000000000D+00
 S 1 1.00
     Exponent=  6.1064260103D-01 Coefficients=  1.0000000000D+00
 S 1 1.00
     Exponent=  2.7412269445D-01 Coefficients=  1.0000000000D+00
 S 1 1.00
     Exponent=  1.1325939107D-01 Coefficients=  1.0000000000D+00
 S 1 1.00
     Exponent=  4.4392624881D-02 Coefficients=  1.0000000000D+00
 P 8 1.00
     Exponent=  2.1898930459D+03 Coefficients=  2.3912552864D-04
     Exponent=  5.1894596592D+02 Coefficients=  2.0772032158D-03
     Exponent=  1.6819560151D+02 Coefficients=  1.1242420571D-02
     Exponent=  6.3745282788D+01 Coefficients=  4.4069933941D-02
     Exponent=  2.6597033077D+01 Coefficients=  1.2918778608D-01
     Exponent=  1.1774251449D+01 Coefficients=  2.6910820167D-01
     Exponent=  5.3534379024D+00 Coefficients=  3.7855928620D-01
     Exponent=  2.4701911802D+00 Coefficients=  2.9692134655D-01
 P 2 1.00
     Exponent=  8.2120288349D+01 Coefficients= -3.9420318847D-02
     Exponent=  4.9523532869D+00 Coefficients=  6.4048403090D-01
 P 1 1.00
     Exponent=  1.0828262029D+00 Coefficients=  1.0000000000D+00
 P 1 1.00
     Exponent=  4.9271277356D-01 Coefficients=  1.0000000000D+00
 P 1 1.00
     Exponent=  2.0483450942D-01 Coefficients=  1.0000000000D+00
 P 1 1.00
     Exponent=  8.0743615716D-02 Coefficients=  1.0000000000D+00
 P 1 1.00
     Exponent=  2.5661157833D-02 Coefficients=  1.0000000000D+00
 D 1 1.00
     Exponent=  4.1590000000D+00 Coefficients=  1.0000000000D+00
 D 1 1.00
     Exponent=  1.0190000000D+00 Coefficients=  1.0000000000D+00
 D 1 1.00
     Exponent=  4.6400000000D-01 Coefficients=  1.0000000000D+00
 D 1 1.00
     Exponent=  1.9400000000D-01 Coefficients=  1.0000000000D+00
 D 1 1.00
     Exponent=  6.7889829366D-02 Coefficients=  1.0000000000D+00
 F 1 1.00
     Exponent=  8.6900000000D-01 Coefficients=  1.0000000000D+00
 F 1 1.00
     Exponent=  3.3500000000D-01 Coefficients=  1.0000000000D+00
 G 1 1.00
     Exponent=  6.8300000000D-01 Coefficients=  1.0000000000D+00
 ****
 Ernie: Thresh=  0.10000D-02 Tol=  0.10000D-05 Strict=F.
   337 basis functions,   493 primitive gaussians,   406 cartesian basis functions
    16 alpha electrons       16 beta electrons
       nuclear repulsion energy       100.3080120317 Hartrees.
 IExCor=  402 DFT=T Ex+Corr=B3LYP ExCW=0 ScaHFX=  0.200000
 ScaDFX=  0.800000  0.720000  1.000000  0.810000 ScalE2=  1.000000  1.000000
 IRadAn=      5 IRanWt=     -1 IRanGd=            0 ICorTp=0 IEmpDi=  4
 NAtoms=    7 NActive=    7 NUniq=    7 SFac= 1.00D+00 NAtFMM=   60 NAOKFM=F Big=F
 Integral buffers will be    131072 words long.
 Raffenetti 2 integral format.
 Two-electron integral symmetry is turned off.
 Leave Link  301 at Tue Jan  3 09:05:07 2023, MaxMem=   536870912 cpu:               0.2 elap:               0.1
 (Enter /opt/software/gaussian/g16.c01/l302.exe)
 NPDir=0 NMtPBC=     1 NCelOv=     1 NCel=       1 NClECP=     1 NCelD=      1
         NCelK=      1 NCelE2=     1 NClLst=     1 CellRange=     0.0.
 One-electron integrals computed using PRISM.
 NBasis=   337 RedAO= T EigKep=  3.29D-06  NBF=   337
 NBsUse=   337 1.00D-06 EigRej= -1.00D+00 NBFU=   337
 Precomputing XC quadrature grid using
 IXCGrd= 4 IRadAn=           5 IRanWt=          -1 IRanGd=           0 AccXCQ= 0.00D+00.
 Generated NRdTot=       0 NPtTot=           0 NUsed=           0 NTot=          32
 NSgBfM=   405   405   405   405   405 MxSgAt=     7 MxSgA2=     7.
 Leave Link  302 at Tue Jan  3 09:05:08 2023, MaxMem=   536870912 cpu:               0.7 elap:               0.3
 (Enter /opt/software/gaussian/g16.c01/l303.exe)
 DipDrv:  MaxL=1.
 Leave Link  303 at Tue Jan  3 09:05:08 2023, MaxMem=   536870912 cpu:               0.1 elap:               0.1
 (Enter /opt/software/gaussian/g16.c01/l401.exe)
 ExpMin= 2.57D-02 ExpMax= 1.27D+06 ExpMxC= 1.45D+03 IAcc=3 IRadAn=         5 AccDes= 0.00D+00
 Harris functional with IExCor=  402 and IRadAn=       5 diagonalized for initial guess.
 HarFok:  IExCor=  402 AccDes= 0.00D+00 IRadAn=         5 IDoV= 1 UseB2=F ITyADJ=14
 ICtDFT=  3500011 ScaDFX=  1.000000  1.000000  1.000000  1.000000
 FoFCou: FMM=F IPFlag=           0 FMFlag=      100000 FMFlg1=           0
         NFxFlg=           0 DoJE=T BraDBF=F KetDBF=T FulRan=T
         wScrn=  0.000000 ICntrl=       500 IOpCl=  0 I1Cent=   200000004 NGrid=           0
         NMat0=    1 NMatS0=      1 NMatT0=    0 NMatD0=    1 NMtDS0=    0 NMtDT0=    0
 Symmetry not used in FoFCou.
 Harris En= -476.826428664655    
 JPrj=0 DoOrth=F DoCkMO=F.
 Initial guess <Sx>= 0.0000 <Sy>= 0.0000 <Sz>= 0.0000 <S**2>=-0.0000 S=-0.0000
 Leave Link  401 at Tue Jan  3 09:05:10 2023, MaxMem=   536870912 cpu:               4.7 elap:               2.4
 (Enter /opt/software/gaussian/g16.c01/l502.exe)
 Two-electron integral symmetry not used.
 UHF open shell SCF:
 Using DIIS extrapolation, IDIIS=  1040.
 NGot=   536870912 LenX=   536536244 LenY=   536370967
 Requested convergence on RMS density matrix=1.00D-08 within 128 cycles.
 Requested convergence on MAX density matrix=1.00D-06.
 Requested convergence on             energy=1.00D-06.
 No special actions if energy rises.
 Fock matrices will be formed incrementally for  20 cycles.

 Cycle   1  Pass 1  IDiag  1:
 FoFJK:  IHMeth= 1 ICntrl=       0 DoSepK=F KAlg= 0 I1Cent=           0 FoldK=F
 IRaf= 970000000 NMat=       1 IRICut=       1 DoRegI=T DoRafI=F ISym2E= 0 IDoP0=0 IntGTp=1.
 FoFCou: FMM=F IPFlag=           0 FMFlag=      100000 FMFlg1=           0
         NFxFlg=           0 DoJE=F BraDBF=F KetDBF=F FulRan=T
         wScrn=  0.000000 ICntrl=         0 IOpCl=  1 I1Cent=           0 NGrid=           0
         NMat0=    1 NMatS0=      1 NMatT0=    0 NMatD0=    1 NMtDS0=    0 NMtDT0=    0
 Symmetry not used in FoFCou.
 E= -476.609374660927    
 DIIS: error= 3.27D-02 at cycle   1 NSaved=   1.
 NSaved= 1 IEnMin= 1 EnMin= -476.609374660927     IErMin= 1 ErrMin= 3.27D-02
 ErrMax= 3.27D-02  0.00D+00 EMaxC= 1.00D-01 BMatC= 9.67D-01 BMatP= 9.67D-01
 IDIUse=3 WtCom= 6.73D-01 WtEn= 3.27D-01
 Coeff-Com:  0.100D+01
 Coeff-En:   0.100D+01
 Coeff:      0.100D+01
 Gap=     0.038 Goal=   None    Shift=    0.000
 Gap=     0.038 Goal=   None    Shift=    0.000
 GapD=    0.038 DampG=0.250 DampE=0.500 DampFc=0.2500 IDamp=-1.
 Damping current iteration by 2.50D-01
 RMSDP=1.82D-03 MaxDP=7.88D-02              OVMax= 3.92D-01

 Cycle   2  Pass 1  IDiag  1:
 RMSU=  4.52D-04    CP:  9.93D-01
 E= -476.688666952690     Delta-E=       -0.079292291763 Rises=F Damp=T
 DIIS: error= 1.47D-02 at cycle   2 NSaved=   2.
 NSaved= 2 IEnMin= 2 EnMin= -476.688666952690     IErMin= 2 ErrMin= 1.47D-02
 ErrMax= 1.47D-02  0.00D+00 EMaxC= 1.00D-01 BMatC= 1.99D-01 BMatP= 9.67D-01
 IDIUse=3 WtCom= 8.53D-01 WtEn= 1.47D-01
 Coeff-Com: -0.665D+00 0.167D+01
 Coeff-En:   0.000D+00 0.100D+01
 Coeff:     -0.568D+00 0.157D+01
 Gap=     0.133 Goal=   None    Shift=    0.000
 Gap=     0.133 Goal=   None    Shift=    0.000
 RMSDP=5.62D-04 MaxDP=4.37D-02 DE=-7.93D-02 OVMax= 2.33D-01

 Cycle   3  Pass 1  IDiag  1:
 RMSU=  4.28D-04    CP:  9.73D-01  1.74D+00
 E= -476.809851503755     Delta-E=       -0.121184551065 Rises=F Damp=F
 DIIS: error= 3.00D-03 at cycle   3 NSaved=   3.
 NSaved= 3 IEnMin= 3 EnMin= -476.809851503755     IErMin= 3 ErrMin= 3.00D-03
 ErrMax= 3.00D-03  0.00D+00 EMaxC= 1.00D-01 BMatC= 7.99D-03 BMatP= 1.99D-01
 IDIUse=3 WtCom= 9.70D-01 WtEn= 3.00D-02
 Coeff-Com: -0.720D-01 0.247D+00 0.825D+00
 Coeff-En:   0.000D+00 0.000D+00 0.100D+01
 Coeff:     -0.698D-01 0.239D+00 0.830D+00
 Gap=     0.143 Goal=   None    Shift=    0.000
 Gap=     0.143 Goal=   None    Shift=    0.000
 RMSDP=1.26D-04 MaxDP=5.09D-03 DE=-1.21D-01 OVMax= 2.12D-02

 Cycle   4  Pass 1  IDiag  1:
 RMSU=  1.19D-04    CP:  9.75D-01  1.73D+00  9.16D-01
 E= -476.811255260927     Delta-E=       -0.001403757172 Rises=F Damp=F
 DIIS: error= 1.90D-03 at cycle   4 NSaved=   4.
 NSaved= 4 IEnMin= 4 EnMin= -476.811255260927     IErMin= 4 ErrMin= 1.90D-03
 ErrMax= 1.90D-03  0.00D+00 EMaxC= 1.00D-01 BMatC= 2.07D-03 BMatP= 7.99D-03
 IDIUse=3 WtCom= 9.81D-01 WtEn= 1.90D-02
 Coeff-Com:  0.323D-01-0.442D-01 0.344D+00 0.668D+00
 Coeff-En:   0.000D+00 0.000D+00 0.126D+00 0.874D+00
 Coeff:      0.317D-01-0.433D-01 0.340D+00 0.672D+00
 Gap=     0.144 Goal=   None    Shift=    0.000
 Gap=     0.144 Goal=   None    Shift=    0.000
 RMSDP=4.93D-05 MaxDP=2.58D-03 DE=-1.40D-03 OVMax= 7.46D-03

 Cycle   5  Pass 1  IDiag  1:
 RMSU=  2.70D-05    CP:  9.74D-01  1.73D+00  9.70D-01  7.33D-01
 E= -476.811759556292     Delta-E=       -0.000504295365 Rises=F Damp=F
 DIIS: error= 3.65D-04 at cycle   5 NSaved=   5.
 NSaved= 5 IEnMin= 5 EnMin= -476.811759556292     IErMin= 5 ErrMin= 3.65D-04
 ErrMax= 3.65D-04  0.00D+00 EMaxC= 1.00D-01 BMatC= 4.90D-05 BMatP= 2.07D-03
 IDIUse=3 WtCom= 9.96D-01 WtEn= 3.65D-03
 Coeff-Com:  0.156D-01-0.230D-01 0.139D+00 0.281D+00 0.587D+00
 Coeff-En:   0.000D+00 0.000D+00 0.000D+00 0.000D+00 0.100D+01
 Coeff:      0.155D-01-0.230D-01 0.138D+00 0.280D+00 0.589D+00
 Gap=     0.144 Goal=   None    Shift=    0.000
 Gap=     0.144 Goal=   None    Shift=    0.000
 RMSDP=7.99D-06 MaxDP=4.72D-04 DE=-5.04D-04 OVMax= 1.25D-03

 Cycle   6  Pass 1  IDiag  1:
 RMSU=  5.08D-06    CP:  9.74D-01  1.73D+00  9.68D-01  7.38D-01  8.02D-01
 E= -476.811770228198     Delta-E=       -0.000010671906 Rises=F Damp=F
 DIIS: error= 9.14D-05 at cycle   6 NSaved=   6.
 NSaved= 6 IEnMin= 6 EnMin= -476.811770228198     IErMin= 6 ErrMin= 9.14D-05
 ErrMax= 9.14D-05  0.00D+00 EMaxC= 1.00D-01 BMatC= 3.02D-06 BMatP= 4.90D-05
 IDIUse=1 WtCom= 1.00D+00 WtEn= 0.00D+00
 Coeff-Com:  0.349D-02-0.526D-02 0.199D-01 0.329D-01 0.198D+00 0.751D+00
 Coeff:      0.349D-02-0.526D-02 0.199D-01 0.329D-01 0.198D+00 0.751D+00
 Gap=     0.144 Goal=   None    Shift=    0.000
 Gap=     0.144 Goal=   None    Shift=    0.000
 RMSDP=2.62D-06 MaxDP=1.34D-04 DE=-1.07D-05 OVMax= 7.18D-04

 Cycle   7  Pass 1  IDiag  1:
 RMSU=  1.82D-06    CP:  9.74D-01  1.73D+00  9.70D-01  7.38D-01  8.47D-01
                    CP:  8.37D-01
 E= -476.811770606172     Delta-E=       -0.000000377975 Rises=F Damp=F
 DIIS: error= 7.02D-05 at cycle   7 NSaved=   7.
 NSaved= 7 IEnMin= 7 EnMin= -476.811770606172     IErMin= 7 ErrMin= 7.02D-05
 ErrMax= 7.02D-05  0.00D+00 EMaxC= 1.00D-01 BMatC= 1.40D-06 BMatP= 3.02D-06
 IDIUse=1 WtCom= 1.00D+00 WtEn= 0.00D+00
 Coeff-Com:  0.200D-02-0.302D-02 0.998D-02 0.143D-01 0.117D+00 0.529D+00
 Coeff-Com:  0.331D+00
 Coeff:      0.200D-02-0.302D-02 0.998D-02 0.143D-01 0.117D+00 0.529D+00
 Coeff:      0.331D+00
 Gap=     0.144 Goal=   None    Shift=    0.000
 Gap=     0.144 Goal=   None    Shift=    0.000
 RMSDP=1.28D-06 MaxDP=5.22D-05 DE=-3.78D-07 OVMax= 5.70D-04

 Cycle   8  Pass 1  IDiag  1:
 RMSU=  8.00D-07    CP:  9.74D-01  1.73D+00  9.70D-01  7.37D-01  8.48D-01
                    CP:  8.81D-01  4.67D-01
 E= -476.811770990694     Delta-E=       -0.000000384522 Rises=F Damp=F
 DIIS: error= 1.90D-05 at cycle   8 NSaved=   8.
 NSaved= 8 IEnMin= 8 EnMin= -476.811770990694     IErMin= 8 ErrMin= 1.90D-05
 ErrMax= 1.90D-05  0.00D+00 EMaxC= 1.00D-01 BMatC= 1.16D-07 BMatP= 1.40D-06
 IDIUse=1 WtCom= 1.00D+00 WtEn= 0.00D+00
 Coeff-Com:  0.301D-03-0.448D-03 0.127D-02 0.328D-03 0.137D-01 0.113D+00
 Coeff-Com:  0.228D+00 0.644D+00
 Coeff:      0.301D-03-0.448D-03 0.127D-02 0.328D-03 0.137D-01 0.113D+00
 Coeff:      0.228D+00 0.644D+00
 Gap=     0.144 Goal=   None    Shift=    0.000
 Gap=     0.144 Goal=   None    Shift=    0.000
 RMSDP=3.44D-07 MaxDP=1.19D-05 DE=-3.85D-07 OVMax= 1.25D-04

 Cycle   9  Pass 1  IDiag  1:
 RMSU=  1.74D-07    CP:  9.74D-01  1.73D+00  9.70D-01  7.37D-01  8.46D-01
                    CP:  8.88D-01  5.59D-01  7.13D-01
 E= -476.811771024958     Delta-E=       -0.000000034265 Rises=F Damp=F
 DIIS: error= 1.30D-06 at cycle   9 NSaved=   9.
 NSaved= 9 IEnMin= 9 EnMin= -476.811771024958     IErMin= 9 ErrMin= 1.30D-06
 ErrMax= 1.30D-06  0.00D+00 EMaxC= 1.00D-01 BMatC= 5.96D-10 BMatP= 1.16D-07
 IDIUse=1 WtCom= 1.00D+00 WtEn= 0.00D+00
 Coeff-Com: -0.621D-04 0.942D-04-0.362D-03-0.896D-03-0.296D-02-0.158D-02
 Coeff-Com:  0.299D-01 0.128D+00 0.848D+00
 Coeff:     -0.621D-04 0.942D-04-0.362D-03-0.896D-03-0.296D-02-0.158D-02
 Coeff:      0.299D-01 0.128D+00 0.848D+00
 Gap=     0.144 Goal=   None    Shift=    0.000
 Gap=     0.144 Goal=   None    Shift=    0.000
 RMSDP=3.82D-08 MaxDP=1.31D-06 DE=-3.43D-08 OVMax= 7.23D-06

 Cycle  10  Pass 1  IDiag  1:
 RMSU=  3.08D-08    CP:  9.74D-01  1.73D+00  9.70D-01  7.37D-01  8.46D-01
                    CP:  8.90D-01  5.63D-01  7.31D-01  1.01D+00
 E= -476.811771025105     Delta-E=       -0.000000000147 Rises=F Damp=F
 DIIS: error= 3.01D-07 at cycle  10 NSaved=  10.
 NSaved=10 IEnMin=10 EnMin= -476.811771025105     IErMin=10 ErrMin= 3.01D-07
 ErrMax= 3.01D-07  0.00D+00 EMaxC= 1.00D-01 BMatC= 3.28D-11 BMatP= 5.96D-10
 IDIUse=1 WtCom= 1.00D+00 WtEn= 0.00D+00
 Coeff-Com:  0.424D-06-0.701D-06-0.342D-04-0.425D-04-0.260D-03-0.339D-02
 Coeff-Com: -0.255D-02-0.187D-02 0.592D-01 0.949D+00
 Coeff:      0.424D-06-0.701D-06-0.342D-04-0.425D-04-0.260D-03-0.339D-02
 Coeff:     -0.255D-02-0.187D-02 0.592D-01 0.949D+00
 Gap=     0.144 Goal=   None    Shift=    0.000
 Gap=     0.144 Goal=   None    Shift=    0.000
 RMSDP=8.66D-09 MaxDP=5.42D-07 DE=-1.47D-10 OVMax= 8.21D-07

 SCF Done:  E(UB3LYP) =  -476.811771025     A.U. after   10 cycles
            NFock= 10  Conv=0.87D-08     -V/T= 2.0024
 <Sx>= 0.0000 <Sy>= 0.0000 <Sz>= 0.0000 <S**2>=-0.0000 S=-0.0000
 <L.S>=  0.00000000000    
 KE= 4.756558563107D+02 PE=-1.328955706556D+03 EE= 2.761800671889D+02
 Annihilation of the first spin contaminant:
 S**2 before annihilation    -0.0000,   after     0.0000
 Leave Link  502 at Tue Jan  3 09:10:52 2023, MaxMem=   536870912 cpu:             682.4 elap:             342.1
 (Enter /opt/software/gaussian/g16.c01/l508.exe)
 QCSCF skips out because SCF is already converged.
 Leave Link  508 at Tue Jan  3 09:10:52 2023, MaxMem=   536870912 cpu:               0.0 elap:               0.0
 (Enter /opt/software/gaussian/g16.c01/l601.exe)
 Copying SCF densities to generalized density rwf, IOpCl= 1 IROHF=0.

 **********************************************************************

            Population analysis using the SCF Density.

 **********************************************************************

 Alpha  occ. eigenvalues --  -88.91653 -10.18955 -10.18954  -7.99317  -5.95409
 Alpha  occ. eigenvalues --   -5.95389  -5.95076  -0.85231  -0.70007  -0.57529
 Alpha  occ. eigenvalues --   -0.47267  -0.46415  -0.40839  -0.36256  -0.33739
 Alpha  occ. eigenvalues --   -0.20500
 Alpha virt. eigenvalues --   -0.06058   0.00163   0.00909   0.01585   0.03028
 Alpha virt. eigenvalues --    0.05304   0.05437   0.06442   0.06854   0.09638
 Alpha virt. eigenvalues --    0.11841   0.11952   0.12293   0.12848   0.14189
 Alpha virt. eigenvalues --    0.15361   0.16577   0.17313   0.17626   0.17673
 Alpha virt. eigenvalues --    0.18670   0.20662   0.21660   0.23254   0.23349
 Alpha virt. eigenvalues --    0.24602   0.24867   0.25519   0.26230   0.27158
 Alpha virt. eigenvalues --    0.27880   0.28898   0.30768   0.31544   0.31567
 Alpha virt. eigenvalues --    0.31684   0.32322   0.33306   0.34790   0.37076
 Alpha virt. eigenvalues --    0.37131   0.38181   0.38868   0.39910   0.40702
 Alpha virt. eigenvalues --    0.42536   0.42888   0.43843   0.44234   0.46292
 Alpha virt. eigenvalues --    0.47412   0.50688   0.53033   0.53133   0.55258
 Alpha virt. eigenvalues --    0.58770   0.60067   0.60757   0.65479   0.65729
 Alpha virt. eigenvalues --    0.66667   0.68329   0.69345   0.70717   0.71315
 Alpha virt. eigenvalues --    0.74303   0.75856   0.82772   0.84508   0.84755
 Alpha virt. eigenvalues --    0.85128   0.88505   0.88589   0.89587   0.91067
 Alpha virt. eigenvalues --    0.91166   0.91942   0.96255   0.99435   1.02263
 Alpha virt. eigenvalues --    1.02396   1.04354   1.06640   1.06830   1.08702
 Alpha virt. eigenvalues --    1.10577   1.11886   1.13551   1.17683   1.21491
 Alpha virt. eigenvalues --    1.21888   1.22734   1.30127   1.30629   1.33658
 Alpha virt. eigenvalues --    1.34354   1.37734   1.40701   1.41678   1.42404
 Alpha virt. eigenvalues --    1.44934   1.47643   1.53020   1.58046   1.64054
 Alpha virt. eigenvalues --    1.71387   1.72881   1.79866   1.83838   1.86238
 Alpha virt. eigenvalues --    1.89090   1.92217   1.93462   1.94870   1.94912
 Alpha virt. eigenvalues --    1.95353   1.96661   2.00562   2.03759   2.04570
 Alpha virt. eigenvalues --    2.04773   2.06091   2.12828   2.16069   2.16984
 Alpha virt. eigenvalues --    2.21079   2.26038   2.29329   2.31534   2.33197
 Alpha virt. eigenvalues --    2.34769   2.35088   2.38459   2.41753   2.44207
 Alpha virt. eigenvalues --    2.46433   2.48903   2.54481   2.60092   2.62211
 Alpha virt. eigenvalues --    2.62950   2.64190   2.64491   2.66933   2.68185
 Alpha virt. eigenvalues --    2.71473   2.72391   2.74235   2.75395   2.76611
 Alpha virt. eigenvalues --    2.80043   2.83657   2.85356   2.86023   2.90059
 Alpha virt. eigenvalues --    2.93772   3.00341   3.00644   3.08974   3.09817
 Alpha virt. eigenvalues --    3.11936   3.14848   3.28657   3.30154   3.30831
 Alpha virt. eigenvalues --    3.33287   3.34747   3.35629   3.35743   3.40487
 Alpha virt. eigenvalues --    3.41844   3.43496   3.48068   3.50700   3.52469
 Alpha virt. eigenvalues --    3.56926   3.59790   3.63138   3.66378   3.73305
 Alpha virt. eigenvalues --    3.74801   3.77590   3.80609   3.81919   3.85642
 Alpha virt. eigenvalues --    3.91718   3.98164   4.00368   4.08844   4.11341
 Alpha virt. eigenvalues --    4.16502   4.31252   4.32377   4.63631   4.65614
 Alpha virt. eigenvalues --    4.98251   5.10477   5.24716   5.24786   5.28605
 Alpha virt. eigenvalues --    5.29173   5.30426   5.31492   5.34022   5.37005
 Alpha virt. eigenvalues --    5.37505   5.39379   5.41607   5.46331   5.59030
 Alpha virt. eigenvalues --    5.62806   5.75308   5.80489   5.80527   5.82524
 Alpha virt. eigenvalues --    5.84504   5.86304   5.89917   5.96822   5.99188
 Alpha virt. eigenvalues --    6.01290   6.02423   6.03626   6.06505   6.07709
 Alpha virt. eigenvalues --    6.19975   6.24675   6.25980   6.30147   6.31571
 Alpha virt. eigenvalues --    6.32332   6.36034   6.39981   6.42307   6.44783
 Alpha virt. eigenvalues --    6.48860   6.54560   6.62655   6.64665   6.70136
 Alpha virt. eigenvalues --    6.73876   6.77079   6.81412   6.84297   6.85920
 Alpha virt. eigenvalues --    7.15476   7.17590   7.20729   7.22848   7.26906
 Alpha virt. eigenvalues --    7.33083   7.36232   7.41714   7.43033   7.52060
 Alpha virt. eigenvalues --    7.54845   7.55040   7.56777   7.60887   7.63404
 Alpha virt. eigenvalues --    7.66421   7.68003   7.69288   7.77134   7.90377
 Alpha virt. eigenvalues --    7.94460   7.94962   8.00258   8.04458   8.08429
 Alpha virt. eigenvalues --    8.18504   8.18765   8.20361   8.20874   8.27604
 Alpha virt. eigenvalues --    8.28508   8.30493   8.33032   8.33419   8.35219
 Alpha virt. eigenvalues --    8.39540   8.42547   8.46212   8.47544   8.60829
 Alpha virt. eigenvalues --    8.62264   8.76174   8.87968   8.94061   8.96990
 Alpha virt. eigenvalues --    9.00643   9.09637   9.11317   9.48832   9.51440
 Alpha virt. eigenvalues --    9.67736   9.70375   9.73467   9.80598   9.81078
 Alpha virt. eigenvalues --    9.83041   9.87198   9.88161  10.37852  10.39187
 Alpha virt. eigenvalues --   10.47563  10.50728  11.84605  11.87202  12.86174
 Alpha virt. eigenvalues --   12.95719  24.79387  28.51476  28.54808  28.71261
 Alpha virt. eigenvalues --   29.11610  29.44414  84.21280 147.54828 147.56796
 Alpha virt. eigenvalues --  451.32570
  Beta  occ. eigenvalues --  -88.91653 -10.18955 -10.18954  -7.99317  -5.95409
  Beta  occ. eigenvalues --   -5.95389  -5.95076  -0.85231  -0.70007  -0.57529
  Beta  occ. eigenvalues --   -0.47267  -0.46415  -0.40839  -0.36256  -0.33739
  Beta  occ. eigenvalues --   -0.20500
  Beta virt. eigenvalues --   -0.06058   0.00163   0.00909   0.01585   0.03028
  Beta virt. eigenvalues --    0.05304   0.05437   0.06442   0.06854   0.09638
  Beta virt. eigenvalues --    0.11841   0.11952   0.12293   0.12848   0.14189
  Beta virt. eigenvalues --    0.15361   0.16577   0.17313   0.17626   0.17673
  Beta virt. eigenvalues --    0.18670   0.20662   0.21660   0.23254   0.23349
  Beta virt. eigenvalues --    0.24602   0.24867   0.25519   0.26230   0.27158
  Beta virt. eigenvalues --    0.27880   0.28898   0.30768   0.31544   0.31567
  Beta virt. eigenvalues --    0.31684   0.32322   0.33306   0.34790   0.37076
  Beta virt. eigenvalues --    0.37131   0.38181   0.38868   0.39910   0.40702
  Beta virt. eigenvalues --    0.42536   0.42888   0.43843   0.44234   0.46292
  Beta virt. eigenvalues --    0.47412   0.50688   0.53033   0.53133   0.55258
  Beta virt. eigenvalues --    0.58770   0.60067   0.60757   0.65479   0.65729
  Beta virt. eigenvalues --    0.66667   0.68329   0.69345   0.70717   0.71315
  Beta virt. eigenvalues --    0.74303   0.75856   0.82772   0.84508   0.84755
  Beta virt. eigenvalues --    0.85128   0.88505   0.88589   0.89587   0.91067
  Beta virt. eigenvalues --    0.91166   0.91942   0.96255   0.99435   1.02263
  Beta virt. eigenvalues --    1.02396   1.04354   1.06640   1.06830   1.08702
  Beta virt. eigenvalues --    1.10577   1.11886   1.13551   1.17683   1.21491
  Beta virt. eigenvalues --    1.21888   1.22734   1.30127   1.30629   1.33658
  Beta virt. eigenvalues --    1.34354   1.37734   1.40701   1.41678   1.42404
  Beta virt. eigenvalues --    1.44934   1.47643   1.53020   1.58046   1.64054
  Beta virt. eigenvalues --    1.71387   1.72881   1.79866   1.83838   1.86238
  Beta virt. eigenvalues --    1.89090   1.92217   1.93462   1.94870   1.94912
  Beta virt. eigenvalues --    1.95353   1.96661   2.00562   2.03759   2.04570
  Beta virt. eigenvalues --    2.04773   2.06091   2.12828   2.16069   2.16984
  Beta virt. eigenvalues --    2.21079   2.26038   2.29329   2.31534   2.33197
  Beta virt. eigenvalues --    2.34769   2.35088   2.38459   2.41753   2.44207
  Beta virt. eigenvalues --    2.46433   2.48903   2.54481   2.60092   2.62211
  Beta virt. eigenvalues --    2.62950   2.64190   2.64491   2.66933   2.68185
  Beta virt. eigenvalues --    2.71473   2.72391   2.74235   2.75395   2.76611
  Beta virt. eigenvalues --    2.80043   2.83657   2.85356   2.86023   2.90059
  Beta virt. eigenvalues --    2.93772   3.00341   3.00644   3.08974   3.09817
  Beta virt. eigenvalues --    3.11936   3.14848   3.28657   3.30154   3.30831
  Beta virt. eigenvalues --    3.33287   3.34747   3.35629   3.35743   3.40487
  Beta virt. eigenvalues --    3.41844   3.43496   3.48068   3.50700   3.52469
  Beta virt. eigenvalues --    3.56926   3.59790   3.63138   3.66378   3.73305
  Beta virt. eigenvalues --    3.74801   3.77590   3.80609   3.81919   3.85642
  Beta virt. eigenvalues --    3.91718   3.98164   4.00368   4.08844   4.11341
  Beta virt. eigenvalues --    4.16502   4.31252   4.32377   4.63631   4.65614
  Beta virt. eigenvalues --    4.98251   5.10477   5.24716   5.24786   5.28605
  Beta virt. eigenvalues --    5.29173   5.30426   5.31492   5.34022   5.37005
  Beta virt. eigenvalues --    5.37505   5.39379   5.41607   5.46331   5.59030
  Beta virt. eigenvalues --    5.62806   5.75308   5.80489   5.80527   5.82524
  Beta virt. eigenvalues --    5.84504   5.86304   5.89917   5.96822   5.99188
  Beta virt. eigenvalues --    6.01290   6.02423   6.03626   6.06505   6.07709
  Beta virt. eigenvalues --    6.19975   6.24675   6.25980   6.30147   6.31571
  Beta virt. eigenvalues --    6.32332   6.36034   6.39981   6.42307   6.44783
  Beta virt. eigenvalues --    6.48860   6.54560   6.62655   6.64665   6.70136
  Beta virt. eigenvalues --    6.73876   6.77079   6.81412   6.84297   6.85920
  Beta virt. eigenvalues --    7.15476   7.17590   7.20729   7.22848   7.26906
  Beta virt. eigenvalues --    7.33083   7.36232   7.41714   7.43033   7.52060
  Beta virt. eigenvalues --    7.54845   7.55040   7.56777   7.60887   7.63404
  Beta virt. eigenvalues --    7.66421   7.68003   7.69288   7.77134   7.90377
  Beta virt. eigenvalues --    7.94460   7.94962   8.00258   8.04458   8.08429
  Beta virt. eigenvalues --    8.18504   8.18765   8.20361   8.20874   8.27604
  Beta virt. eigenvalues --    8.28508   8.30493   8.33032   8.33419   8.35219
  Beta virt. eigenvalues --    8.39540   8.42547   8.46212   8.47544   8.60829
  Beta virt. eigenvalues --    8.62264   8.76174   8.87968   8.94061   8.96990
  Beta virt. eigenvalues --    9.00643   9.09637   9.11317   9.48832   9.51440
  Beta virt. eigenvalues --    9.67736   9.70375   9.73467   9.80598   9.81078
  Beta virt. eigenvalues --    9.83041   9.87198   9.88161  10.37852  10.39187
  Beta virt. eigenvalues --   10.47563  10.50728  11.84605  11.87202  12.86174
  Beta virt. eigenvalues --   12.95719  24.79387  28.51476  28.54808  28.71261
  Beta virt. eigenvalues --   29.11610  29.44414  84.21280 147.54828 147.56796
  Beta virt. eigenvalues --  451.32570
          Condensed to atoms (all electrons):
               1          2          3          4          5          6
     1  C    5.045240   0.442348  -0.071227   0.408312   0.419274   0.008596
     2  S    0.442348  15.284126   0.442367  -0.058143  -0.041008  -0.041046
     3  C   -0.071227   0.442367   5.045188   0.002681   0.008595   0.419243
     4  H    0.408312  -0.058143   0.002681   0.482483   0.027375  -0.000672
     5  H    0.419274  -0.041008   0.008595   0.027375   0.488312  -0.004905
     6  H    0.008596  -0.041046   0.419243  -0.000672  -0.004905   0.488289
     7  H    0.002678  -0.058121   0.408363   0.000529  -0.000671   0.027401
               7
     1  C    0.002678
     2  S   -0.058121
     3  C    0.408363
     4  H    0.000529
     5  H   -0.000671
     6  H    0.027401
     7  H    0.482429
          Atomic-Atomic Spin Densities.
               1          2          3          4          5          6
     1  C   -0.000000   0.000000  -0.000000   0.000000  -0.000000   0.000000
     2  S    0.000000   0.000000  -0.000000  -0.000000   0.000000  -0.000000
     3  C   -0.000000  -0.000000   0.000000   0.000000  -0.000000   0.000000
     4  H    0.000000  -0.000000   0.000000   0.000000  -0.000000  -0.000000
     5  H   -0.000000   0.000000  -0.000000  -0.000000   0.000000   0.000000
     6  H    0.000000  -0.000000   0.000000  -0.000000   0.000000  -0.000000
     7  H   -0.000000   0.000000  -0.000000   0.000000  -0.000000   0.000000
               7
     1  C   -0.000000
     2  S    0.000000
     3  C   -0.000000
     4  H    0.000000
     5  H   -0.000000
     6  H    0.000000
     7  H   -0.000000
 Mulliken charges and spin densities:
               1          2
     1  C   -0.255221  -0.000000
     2  S    0.029477   0.000000
     3  C   -0.255209  -0.000000
     4  H    0.137436  -0.000000
     5  H    0.103029   0.000000
     6  H    0.103095  -0.000000
     7  H    0.137393   0.000000
 Sum of Mulliken charges =  -0.00000  -0.00000
 Mulliken charges and spin densities with hydrogens summed into heavy atoms:
               1          2
     1  C   -0.014756  -0.000000
     2  S    0.029477   0.000000
     3  C   -0.014721  -0.000000
 Electronic spatial extent (au):  <R**2>=            871.5197
 Charge=              0.0000 electrons
 Dipole moment (field-independent basis, Debye):
    X=             -0.1751    Y=              0.0885    Z=             -0.2333  Tot=              0.3048
 Quadrupole moment (field-independent basis, Debye-Ang):
   XX=            -25.6253   YY=            -28.6096   ZZ=            -25.3568
   XY=              0.4489   XZ=             -0.3685   YZ=             -1.7590
 Traceless Quadrupole moment (field-independent basis, Debye-Ang):
   XX=              0.9053   YY=             -2.0790   ZZ=              1.1738
   XY=              0.4489   XZ=             -0.3685   YZ=             -1.7590
 Octapole moment (field-independent basis, Debye-Ang**2):
  XXX=           -174.4374  YYY=            -21.4914  ZZZ=             26.7257  XYY=            -66.2622
  XXY=             -3.8719  XXZ=              7.2760  XZZ=            -61.5290  YZZ=             -4.2101
  YYZ=              9.8122  XYZ=             -2.9622
 Hexadecapole moment (field-independent basis, Debye-Ang**3):
 XXXX=           -960.4577 YYYY=            -70.8334 ZZZZ=           -124.3192 XXXY=            -47.2094
 XXXZ=             80.1692 YYYX=            -71.1277 YYYZ=             26.9115 ZZZX=             93.4134
 ZZZY=             17.4001 XXYY=           -196.5421 XXZZ=           -196.6049 YYZZ=            -31.2308
 XXYZ=             -0.6781 YYXZ=             33.4876 ZZXY=            -13.9652
 N-N= 1.003080120317D+02 E-N=-1.328955674215D+03  KE= 4.756558563107D+02
                          Isotropic Fermi Contact Couplings
        Atom                 a.u.       MegaHertz       Gauss      10(-4) cm-1
     1  C(13)             -0.00000      -0.00000      -0.00000      -0.00000
     2  S(33)             -0.00000      -0.00000      -0.00000      -0.00000
     3  C(13)              0.00000       0.00000       0.00000       0.00000
     4  H(1)               0.00000       0.00000       0.00000       0.00000
     5  H(1)              -0.00000      -0.00000      -0.00000      -0.00000
     6  H(1)              -0.00000      -0.00000      -0.00000      -0.00000
     7  H(1)              -0.00000      -0.00000      -0.00000      -0.00000
 --------------------------------------------------------
       Center         ----  Spin Dipole Couplings  ----
                      3XX-RR        3YY-RR        3ZZ-RR
 --------------------------------------------------------
     1   Atom       -0.000000      0.000000      0.000000
     2   Atom       -0.000000      0.000000      0.000000
     3   Atom       -0.000000     -0.000000      0.000000
     4   Atom       -0.000000      0.000000     -0.000000
     5   Atom       -0.000000      0.000000     -0.000000
     6   Atom        0.000000      0.000000     -0.000000
     7   Atom        0.000000     -0.000000     -0.000000
 --------------------------------------------------------
                        XY            XZ            YZ
 --------------------------------------------------------
     1   Atom        0.000000     -0.000000      0.000000
     2   Atom       -0.000000     -0.000000      0.000000
     3   Atom        0.000000     -0.000000      0.000000
     4   Atom        0.000000     -0.000000     -0.000000
     5   Atom        0.000000     -0.000000      0.000000
     6   Atom        0.000000     -0.000000      0.000000
     7   Atom        0.000000     -0.000000     -0.000000
 --------------------------------------------------------


 ---------------------------------------------------------------------------------
              Anisotropic Spin Dipole Couplings in Principal Axis System
 ---------------------------------------------------------------------------------

       Atom             a.u.   MegaHertz   Gauss  10(-4) cm-1        Axes

              Baa    -0.0000    -0.000    -0.000    -0.000  0.9063 -0.1362  0.4001
     1 C(13)  Bbb     0.0000     0.000     0.000     0.000 -0.4164 -0.4507  0.7896
              Bcc     0.0000     0.000     0.000     0.000 -0.0728  0.8822  0.4652
 
              Baa    -0.0000    -0.000    -0.000    -0.000  0.9952  0.0255  0.0950
     2 S(33)  Bbb     0.0000     0.000     0.000     0.000 -0.0148  0.9937 -0.1110
              Bcc     0.0000     0.000     0.000     0.000 -0.0972  0.1090  0.9893
 
              Baa    -0.0000    -0.000    -0.000    -0.000 -0.5504  0.7027 -0.4508
     3 C(13)  Bbb    -0.0000    -0.000    -0.000    -0.000  0.8117  0.3241 -0.4858
              Bcc     0.0000     0.000     0.000     0.000  0.1953  0.6334  0.7488
 
              Baa    -0.0000    -0.000    -0.000    -0.000  0.9875 -0.1014  0.1206
     4 H(1)   Bbb    -0.0000    -0.000    -0.000    -0.000 -0.0485  0.5324  0.8451
              Bcc     0.0000     0.000     0.000     0.000  0.1499  0.8404 -0.5209
 
              Baa    -0.0000    -0.000    -0.000    -0.000  0.7170 -0.2074  0.6655
     5 H(1)   Bbb    -0.0000    -0.000    -0.000    -0.000  0.6936  0.3073 -0.6515
              Bcc     0.0000     0.000     0.000     0.000 -0.0694  0.9287  0.3642
 
              Baa    -0.0000    -0.000    -0.000    -0.000  0.5234 -0.2697  0.8083
     6 H(1)   Bbb     0.0000     0.000     0.000     0.000 -0.0975  0.9234  0.3713
              Bcc     0.0000     0.000     0.000     0.000  0.8465  0.2732 -0.4570
 
              Baa    -0.0000    -0.000    -0.000    -0.000 -0.1435  0.9890  0.0367
     7 H(1)   Bbb    -0.0000    -0.000    -0.000    -0.000  0.2758  0.0043  0.9612
              Bcc     0.0000     0.000     0.000     0.000  0.9504  0.1481 -0.2734
 

 ---------------------------------------------------------------------------------

 No NMR shielding tensors so no spin-rotation constants.
 Leave Link  601 at Tue Jan  3 09:10:53 2023, MaxMem=   536870912 cpu:               0.9 elap:               0.5
 (Enter /opt/software/gaussian/g16.c01/l801.exe)
 DoSCS=F DFT=T ScalE2(SS,OS)=  1.000000  1.000000
 Range of M.O.s used for correlation:     1   337
 NBasis=   337 NAE=    16 NBE=    16 NFC=     0 NFV=     0
 NROrb=    337 NOA=    16 NOB=    16 NVA=   321 NVB=   321

 **** Warning!!: The largest alpha MO coefficient is  0.13679704D+03


 **** Warning!!: The largest beta MO coefficient is  0.13679704D+03

 Leave Link  801 at Tue Jan  3 09:10:53 2023, MaxMem=   536870912 cpu:               0.1 elap:               0.0
 (Enter /opt/software/gaussian/g16.c01/l914.exe)
 UHF ground state
 Doing stability rather than CIS.
 Two-electron integral symmetry not used.
 MDV=   536870912 DFT=T DoStab=T Mixed=T DoRPA=F DoScal=F NonHer=F
 Making orbital integer symmetry assigments:
    12 initial guesses have been made.
 Convergence on wavefunction:    0.001000000000000
 Davidson Disk Diagonalization:  ConvIn= 1.00D-03 SkipCon=T Conv= 1.00D-03.
 Max sub-space:  2000 roots to seek:    12 dimension of matrix:        10272
 Iteration     1 Dimension    12 NMult     0 NNew     12
 CISAX will form    12 AO SS matrices at one time.
 NMat=    12 NSing=    12 JSym2X= 0.
 FoFJK:  IHMeth= 1 ICntrl=       0 DoSepK=F KAlg= 0 I1Cent=           0 FoldK=F
 IRaf= 970000000 NMat=      12 IRICut=      30 DoRegI=T DoRafI=T ISym2E= 0 IDoP0=3 IntGTp=3.
 FoFCou: FMM=F IPFlag=           0 FMFlag=      100000 FMFlg1=           0
         NFxFlg=           0 DoJE=F BraDBF=F KetDBF=F FulRan=T
         wScrn=  0.000000 ICntrl=         0 IOpCl=  1 I1Cent=           0 NGrid=           0
         NMat0=   12 NMatS0=     12 NMatT0=    0 NMatD0=   12 NMtDS0=    0 NMtDT0=    0
 Symmetry not used in FoFCou.
 Raff kept on since  97.21% of shell-pairs survive, threshold=   0.20 IRatSp=97.
 Excitation Energies [eV] at current iteration:
 Root      1 :     0.919227451534097
 Root      2 :     4.603954560842855
 Root      3 :     4.730622471902892
 Root      4 :     4.854314421626176
 Root      5 :     5.051924091565309
 Root      6 :     5.192690526925076
 Root      7 :     5.211262978283658
 Root      8 :     5.515873499244905
 Root      9 :     5.560105877152052
 Root     10 :     5.685387399221361
 Root     11 :     5.949471291283911
 Root     12 :    10.459061277559908
 Iteration     2 Dimension    24 NMult    12 NNew     12
 CISAX will form    12 AO SS matrices at one time.
 NMat=    12 NSing=    12 JSym2X= 0.
 Root      1 not converged, maximum delta is    0.075497240886695
 Excitation Energies [eV] at current iteration:
 Root      1 :     0.512783095585827   Change is   -0.406444355948271
 Root      2 :     4.459247975806065   Change is   -0.144706585036790
 Root      3 :     4.596074628216425   Change is   -0.258239793409750
 Root      4 :     4.704137615517039   Change is   -0.026484856385853
 Root      5 :     5.001635361317507   Change is   -0.050288730247802
 Root      6 :     5.114596114773591   Change is   -0.078094412151484
 Root      7 :     5.182051004583553   Change is   -0.029211973700105
 Root      8 :     5.302972249460767   Change is   -0.212901249784137
 Root      9 :     5.323865940666084   Change is   -0.361521458555277
 Root     10 :     5.499974272817757   Change is   -0.060131604334295
 Root     11 :     5.856749938736563   Change is   -0.092721352547348
 Root     12 :     6.544295193423187
 Iteration     3 Dimension    27 NMult    24 NNew      3
 CISAX will form     3 AO SS matrices at one time.
 NMat=     3 NSing=     3 JSym2X= 0.
 Root      1 not converged, maximum delta is    0.003458461213561
 Excitation Energies [eV] at current iteration:
 Root      1 :     0.508053586277693   Change is   -0.004729509308134
 Root      2 :     4.455203776095079   Change is   -0.004044199710986
 Root      3 :     4.547075403031059   Change is   -0.048999225185367
 Iteration     4 Dimension    30 NMult    27 NNew      3
 CISAX will form     3 AO SS matrices at one time.
 NMat=     3 NSing=     3 JSym2X= 0.
 Root      1 has converged.
 Excitation Energies [eV] at current iteration:
 Root      1 :     0.507936382482036   Change is   -0.000117203795657
 Root      2 :     4.455041563484461   Change is   -0.000162212610617
 Root      3 :     4.521031659100355   Change is   -0.026043743930703
 Convergence achieved on expansion vectors.
 ***********************************************************************
 Stability analysis using <AA,BB:AA,BB> singles matrix:
 ***********************************************************************
 1PDM for each excited state written to RWF  633
 Ground to excited state transition densities written to RWF  633

 Eigenvectors of the stability matrix:
 
 Excited state symmetry could not be determined.
 Eigenvector   1:  3.000-?Sym  Eigenvalue= 0.0186663  <S**2>=2.000
     16A -> 17A       -0.69149
     16B -> 17B        0.69149
 The wavefunction is stable under the perturbations considered.
 Leave Link  914 at Tue Jan  3 09:23:10 2023, MaxMem=   536870912 cpu:            1473.5 elap:             737.4
 (Enter /opt/software/gaussian/g16.c01/l508.exe)
 The wavefunction is already stable.
 Leave Link  508 at Tue Jan  3 09:23:10 2023, MaxMem=   536870912 cpu:               0.0 elap:               0.0
 (Enter /opt/software/gaussian/g16.c01/l601.exe)
 Copying SCF densities to generalized density rwf, IOpCl= 1 IROHF=0.

 **********************************************************************

            Population analysis using the SCF Density.

 **********************************************************************

 Alpha  occ. eigenvalues --  -88.91653 -10.18955 -10.18954  -7.99317  -5.95409
 Alpha  occ. eigenvalues --   -5.95389  -5.95076  -0.85231  -0.70007  -0.57529
 Alpha  occ. eigenvalues --   -0.47267  -0.46415  -0.40839  -0.36256  -0.33739
 Alpha  occ. eigenvalues --   -0.20500
 Alpha virt. eigenvalues --   -0.06058   0.00163   0.00909   0.01585   0.03028
 Alpha virt. eigenvalues --    0.05304   0.05437   0.06442   0.06854   0.09638
 Alpha virt. eigenvalues --    0.11841   0.11952   0.12293   0.12848   0.14189
 Alpha virt. eigenvalues --    0.15361   0.16577   0.17313   0.17626   0.17673
 Alpha virt. eigenvalues --    0.18670   0.20662   0.21660   0.23254   0.23349
 Alpha virt. eigenvalues --    0.24602   0.24867   0.25519   0.26230   0.27158
 Alpha virt. eigenvalues --    0.27880   0.28898   0.30768   0.31544   0.31567
 Alpha virt. eigenvalues --    0.31684   0.32322   0.33306   0.34790   0.37076
 Alpha virt. eigenvalues --    0.37131   0.38181   0.38868   0.39910   0.40702
 Alpha virt. eigenvalues --    0.42536   0.42888   0.43843   0.44234   0.46292
 Alpha virt. eigenvalues --    0.47412   0.50688   0.53033   0.53133   0.55258
 Alpha virt. eigenvalues --    0.58770   0.60067   0.60757   0.65479   0.65729
 Alpha virt. eigenvalues --    0.66667   0.68329   0.69345   0.70717   0.71315
 Alpha virt. eigenvalues --    0.74303   0.75856   0.82772   0.84508   0.84755
 Alpha virt. eigenvalues --    0.85128   0.88505   0.88589   0.89587   0.91067
 Alpha virt. eigenvalues --    0.91166   0.91942   0.96255   0.99435   1.02263
 Alpha virt. eigenvalues --    1.02396   1.04354   1.06640   1.06830   1.08702
 Alpha virt. eigenvalues --    1.10577   1.11886   1.13551   1.17683   1.21491
 Alpha virt. eigenvalues --    1.21888   1.22734   1.30127   1.30629   1.33658
 Alpha virt. eigenvalues --    1.34354   1.37734   1.40701   1.41678   1.42404
 Alpha virt. eigenvalues --    1.44934   1.47643   1.53020   1.58046   1.64054
 Alpha virt. eigenvalues --    1.71387   1.72881   1.79866   1.83838   1.86238
 Alpha virt. eigenvalues --    1.89090   1.92217   1.93462   1.94870   1.94912
 Alpha virt. eigenvalues --    1.95353   1.96661   2.00562   2.03759   2.04570
 Alpha virt. eigenvalues --    2.04773   2.06091   2.12828   2.16069   2.16984
 Alpha virt. eigenvalues --    2.21079   2.26038   2.29329   2.31534   2.33197
 Alpha virt. eigenvalues --    2.34769   2.35088   2.38459   2.41753   2.44207
 Alpha virt. eigenvalues --    2.46433   2.48903   2.54481   2.60092   2.62211
 Alpha virt. eigenvalues --    2.62950   2.64190   2.64491   2.66933   2.68185
 Alpha virt. eigenvalues --    2.71473   2.72391   2.74235   2.75395   2.76611
 Alpha virt. eigenvalues --    2.80043   2.83657   2.85356   2.86023   2.90059
 Alpha virt. eigenvalues --    2.93772   3.00341   3.00644   3.08974   3.09817
 Alpha virt. eigenvalues --    3.11936   3.14848   3.28657   3.30154   3.30831
 Alpha virt. eigenvalues --    3.33287   3.34747   3.35629   3.35743   3.40487
 Alpha virt. eigenvalues --    3.41844   3.43496   3.48068   3.50700   3.52469
 Alpha virt. eigenvalues --    3.56926   3.59790   3.63138   3.66378   3.73305
 Alpha virt. eigenvalues --    3.74801   3.77590   3.80609   3.81919   3.85642
 Alpha virt. eigenvalues --    3.91718   3.98164   4.00368   4.08844   4.11341
 Alpha virt. eigenvalues --    4.16502   4.31252   4.32377   4.63631   4.65614
 Alpha virt. eigenvalues --    4.98251   5.10477   5.24716   5.24786   5.28605
 Alpha virt. eigenvalues --    5.29173   5.30426   5.31492   5.34022   5.37005
 Alpha virt. eigenvalues --    5.37505   5.39379   5.41607   5.46331   5.59030
 Alpha virt. eigenvalues --    5.62806   5.75308   5.80489   5.80527   5.82524
 Alpha virt. eigenvalues --    5.84504   5.86304   5.89917   5.96822   5.99188
 Alpha virt. eigenvalues --    6.01290   6.02423   6.03626   6.06505   6.07709
 Alpha virt. eigenvalues --    6.19975   6.24675   6.25980   6.30147   6.31571
 Alpha virt. eigenvalues --    6.32332   6.36034   6.39981   6.42307   6.44783
 Alpha virt. eigenvalues --    6.48860   6.54560   6.62655   6.64665   6.70136
 Alpha virt. eigenvalues --    6.73876   6.77079   6.81412   6.84297   6.85920
 Alpha virt. eigenvalues --    7.15476   7.17590   7.20729   7.22848   7.26906
 Alpha virt. eigenvalues --    7.33083   7.36232   7.41714   7.43033   7.52060
 Alpha virt. eigenvalues --    7.54845   7.55040   7.56777   7.60887   7.63404
 Alpha virt. eigenvalues --    7.66421   7.68003   7.69288   7.77134   7.90377
 Alpha virt. eigenvalues --    7.94460   7.94962   8.00258   8.04458   8.08429
 Alpha virt. eigenvalues --    8.18504   8.18765   8.20361   8.20874   8.27604
 Alpha virt. eigenvalues --    8.28508   8.30493   8.33032   8.33419   8.35219
 Alpha virt. eigenvalues --    8.39540   8.42547   8.46212   8.47544   8.60829
 Alpha virt. eigenvalues --    8.62264   8.76174   8.87968   8.94061   8.96990
 Alpha virt. eigenvalues --    9.00643   9.09637   9.11317   9.48832   9.51440
 Alpha virt. eigenvalues --    9.67736   9.70375   9.73467   9.80598   9.81078
 Alpha virt. eigenvalues --    9.83041   9.87198   9.88161  10.37852  10.39187
 Alpha virt. eigenvalues --   10.47563  10.50728  11.84605  11.87202  12.86174
 Alpha virt. eigenvalues --   12.95719  24.79387  28.51476  28.54808  28.71261
 Alpha virt. eigenvalues --   29.11610  29.44414  84.21280 147.54828 147.56796
 Alpha virt. eigenvalues --  451.32570
  Beta  occ. eigenvalues --  -88.91653 -10.18955 -10.18954  -7.99317  -5.95409
  Beta  occ. eigenvalues --   -5.95389  -5.95076  -0.85231  -0.70007  -0.57529
  Beta  occ. eigenvalues --   -0.47267  -0.46415  -0.40839  -0.36256  -0.33739
  Beta  occ. eigenvalues --   -0.20500
  Beta virt. eigenvalues --   -0.06058   0.00163   0.00909   0.01585   0.03028
  Beta virt. eigenvalues --    0.05304   0.05437   0.06442   0.06854   0.09638
  Beta virt. eigenvalues --    0.11841   0.11952   0.12293   0.12848   0.14189
  Beta virt. eigenvalues --    0.15361   0.16577   0.17313   0.17626   0.17673
  Beta virt. eigenvalues --    0.18670   0.20662   0.21660   0.23254   0.23349
  Beta virt. eigenvalues --    0.24602   0.24867   0.25519   0.26230   0.27158
  Beta virt. eigenvalues --    0.27880   0.28898   0.30768   0.31544   0.31567
  Beta virt. eigenvalues --    0.31684   0.32322   0.33306   0.34790   0.37076
  Beta virt. eigenvalues --    0.37131   0.38181   0.38868   0.39910   0.40702
  Beta virt. eigenvalues --    0.42536   0.42888   0.43843   0.44234   0.46292
  Beta virt. eigenvalues --    0.47412   0.50688   0.53033   0.53133   0.55258
  Beta virt. eigenvalues --    0.58770   0.60067   0.60757   0.65479   0.65729
  Beta virt. eigenvalues --    0.66667   0.68329   0.69345   0.70717   0.71315
  Beta virt. eigenvalues --    0.74303   0.75856   0.82772   0.84508   0.84755
  Beta virt. eigenvalues --    0.85128   0.88505   0.88589   0.89587   0.91067
  Beta virt. eigenvalues --    0.91166   0.91942   0.96255   0.99435   1.02263
  Beta virt. eigenvalues --    1.02396   1.04354   1.06640   1.06830   1.08702
  Beta virt. eigenvalues --    1.10577   1.11886   1.13551   1.17683   1.21491
  Beta virt. eigenvalues --    1.21888   1.22734   1.30127   1.30629   1.33658
  Beta virt. eigenvalues --    1.34354   1.37734   1.40701   1.41678   1.42404
  Beta virt. eigenvalues --    1.44934   1.47643   1.53020   1.58046   1.64054
  Beta virt. eigenvalues --    1.71387   1.72881   1.79866   1.83838   1.86238
  Beta virt. eigenvalues --    1.89090   1.92217   1.93462   1.94870   1.94912
  Beta virt. eigenvalues --    1.95353   1.96661   2.00562   2.03759   2.04570
  Beta virt. eigenvalues --    2.04773   2.06091   2.12828   2.16069   2.16984
  Beta virt. eigenvalues --    2.21079   2.26038   2.29329   2.31534   2.33197
  Beta virt. eigenvalues --    2.34769   2.35088   2.38459   2.41753   2.44207
  Beta virt. eigenvalues --    2.46433   2.48903   2.54481   2.60092   2.62211
  Beta virt. eigenvalues --    2.62950   2.64190   2.64491   2.66933   2.68185
  Beta virt. eigenvalues --    2.71473   2.72391   2.74235   2.75395   2.76611
  Beta virt. eigenvalues --    2.80043   2.83657   2.85356   2.86023   2.90059
  Beta virt. eigenvalues --    2.93772   3.00341   3.00644   3.08974   3.09817
  Beta virt. eigenvalues --    3.11936   3.14848   3.28657   3.30154   3.30831
  Beta virt. eigenvalues --    3.33287   3.34747   3.35629   3.35743   3.40487
  Beta virt. eigenvalues --    3.41844   3.43496   3.48068   3.50700   3.52469
  Beta virt. eigenvalues --    3.56926   3.59790   3.63138   3.66378   3.73305
  Beta virt. eigenvalues --    3.74801   3.77590   3.80609   3.81919   3.85642
  Beta virt. eigenvalues --    3.91718   3.98164   4.00368   4.08844   4.11341
  Beta virt. eigenvalues --    4.16502   4.31252   4.32377   4.63631   4.65614
  Beta virt. eigenvalues --    4.98251   5.10477   5.24716   5.24786   5.28605
  Beta virt. eigenvalues --    5.29173   5.30426   5.31492   5.34022   5.37005
  Beta virt. eigenvalues --    5.37505   5.39379   5.41607   5.46331   5.59030
  Beta virt. eigenvalues --    5.62806   5.75308   5.80489   5.80527   5.82524
  Beta virt. eigenvalues --    5.84504   5.86304   5.89917   5.96822   5.99188
  Beta virt. eigenvalues --    6.01290   6.02423   6.03626   6.06505   6.07709
  Beta virt. eigenvalues --    6.19975   6.24675   6.25980   6.30147   6.31571
  Beta virt. eigenvalues --    6.32332   6.36034   6.39981   6.42307   6.44783
  Beta virt. eigenvalues --    6.48860   6.54560   6.62655   6.64665   6.70136
  Beta virt. eigenvalues --    6.73876   6.77079   6.81412   6.84297   6.85920
  Beta virt. eigenvalues --    7.15476   7.17590   7.20729   7.22848   7.26906
  Beta virt. eigenvalues --    7.33083   7.36232   7.41714   7.43033   7.52060
  Beta virt. eigenvalues --    7.54845   7.55040   7.56777   7.60887   7.63404
  Beta virt. eigenvalues --    7.66421   7.68003   7.69288   7.77134   7.90377
  Beta virt. eigenvalues --    7.94460   7.94962   8.00258   8.04458   8.08429
  Beta virt. eigenvalues --    8.18504   8.18765   8.20361   8.20874   8.27604
  Beta virt. eigenvalues --    8.28508   8.30493   8.33032   8.33419   8.35219
  Beta virt. eigenvalues --    8.39540   8.42547   8.46212   8.47544   8.60829
  Beta virt. eigenvalues --    8.62264   8.76174   8.87968   8.94061   8.96990
  Beta virt. eigenvalues --    9.00643   9.09637   9.11317   9.48832   9.51440
  Beta virt. eigenvalues --    9.67736   9.70375   9.73467   9.80598   9.81078
  Beta virt. eigenvalues --    9.83041   9.87198   9.88161  10.37852  10.39187
  Beta virt. eigenvalues --   10.47563  10.50728  11.84605  11.87202  12.86174
  Beta virt. eigenvalues --   12.95719  24.79387  28.51476  28.54808  28.71261
  Beta virt. eigenvalues --   29.11610  29.44414  84.21280 147.54828 147.56796
  Beta virt. eigenvalues --  451.32570
          Condensed to atoms (all electrons):
               1          2          3          4          5          6
     1  C    5.045240   0.442348  -0.071227   0.408312   0.419274   0.008596
     2  S    0.442348  15.284126   0.442367  -0.058143  -0.041008  -0.041046
     3  C   -0.071227   0.442367   5.045188   0.002681   0.008595   0.419243
     4  H    0.408312  -0.058143   0.002681   0.482483   0.027375  -0.000672
     5  H    0.419274  -0.041008   0.008595   0.027375   0.488312  -0.004905
     6  H    0.008596  -0.041046   0.419243  -0.000672  -0.004905   0.488289
     7  H    0.002678  -0.058121   0.408363   0.000529  -0.000671   0.027401
               7
     1  C    0.002678
     2  S   -0.058121
     3  C    0.408363
     4  H    0.000529
     5  H   -0.000671
     6  H    0.027401
     7  H    0.482429
          Atomic-Atomic Spin Densities.
               1          2          3          4          5          6
     1  C   -0.000000   0.000000  -0.000000   0.000000  -0.000000   0.000000
     2  S    0.000000   0.000000  -0.000000  -0.000000   0.000000  -0.000000
     3  C   -0.000000  -0.000000   0.000000   0.000000  -0.000000   0.000000
     4  H    0.000000  -0.000000   0.000000   0.000000  -0.000000  -0.000000
     5  H   -0.000000   0.000000  -0.000000  -0.000000   0.000000   0.000000
     6  H    0.000000  -0.000000   0.000000  -0.000000   0.000000  -0.000000
     7  H   -0.000000   0.000000  -0.000000   0.000000  -0.000000   0.000000
               7
     1  C   -0.000000
     2  S    0.000000
     3  C   -0.000000
     4  H    0.000000
     5  H   -0.000000
     6  H    0.000000
     7  H   -0.000000
 Mulliken charges and spin densities:
               1          2
     1  C   -0.255221  -0.000000
     2  S    0.029477   0.000000
     3  C   -0.255209  -0.000000
     4  H    0.137436  -0.000000
     5  H    0.103029   0.000000
     6  H    0.103095  -0.000000
     7  H    0.137393   0.000000
 Sum of Mulliken charges =  -0.00000  -0.00000
 Mulliken charges and spin densities with hydrogens summed into heavy atoms:
               1          2
     1  C   -0.014756  -0.000000
     2  S    0.029477   0.000000
     3  C   -0.014721  -0.000000
 Electronic spatial extent (au):  <R**2>=            871.5197
 Charge=              0.0000 electrons
 Dipole moment (field-independent basis, Debye):
    X=             -0.1751    Y=              0.0885    Z=             -0.2333  Tot=              0.3048
 Quadrupole moment (field-independent basis, Debye-Ang):
   XX=            -25.6253   YY=            -28.6096   ZZ=            -25.3568
   XY=              0.4489   XZ=             -0.3685   YZ=             -1.7590
 Traceless Quadrupole moment (field-independent basis, Debye-Ang):
   XX=              0.9053   YY=             -2.0790   ZZ=              1.1738
   XY=              0.4489   XZ=             -0.3685   YZ=             -1.7590
 Octapole moment (field-independent basis, Debye-Ang**2):
  XXX=           -174.4374  YYY=            -21.4914  ZZZ=             26.7257  XYY=            -66.2622
  XXY=             -3.8719  XXZ=              7.2760  XZZ=            -61.5290  YZZ=             -4.2101
  YYZ=              9.8122  XYZ=             -2.9622
 Hexadecapole moment (field-independent basis, Debye-Ang**3):
 XXXX=           -960.4577 YYYY=            -70.8334 ZZZZ=           -124.3192 XXXY=            -47.2094
 XXXZ=             80.1692 YYYX=            -71.1277 YYYZ=             26.9115 ZZZX=             93.4134
 ZZZY=             17.4001 XXYY=           -196.5421 XXZZ=           -196.6049 YYZZ=            -31.2308
 XXYZ=             -0.6781 YYXZ=             33.4876 ZZXY=            -13.9652
 N-N= 1.003080120317D+02 E-N=-1.328955674215D+03  KE= 4.756558563107D+02
                          Isotropic Fermi Contact Couplings
        Atom                 a.u.       MegaHertz       Gauss      10(-4) cm-1
     1  C(13)             -0.00000      -0.00000      -0.00000      -0.00000
     2  S(33)             -0.00000      -0.00000      -0.00000      -0.00000
     3  C(13)              0.00000       0.00000       0.00000       0.00000
     4  H(1)               0.00000       0.00000       0.00000       0.00000
     5  H(1)              -0.00000      -0.00000      -0.00000      -0.00000
     6  H(1)              -0.00000      -0.00000      -0.00000      -0.00000
     7  H(1)              -0.00000      -0.00000      -0.00000      -0.00000
 --------------------------------------------------------
       Center         ----  Spin Dipole Couplings  ----
                      3XX-RR        3YY-RR        3ZZ-RR
 --------------------------------------------------------
     1   Atom       -0.000000      0.000000      0.000000
     2   Atom       -0.000000      0.000000      0.000000
     3   Atom       -0.000000     -0.000000      0.000000
     4   Atom       -0.000000      0.000000     -0.000000
     5   Atom       -0.000000      0.000000     -0.000000
     6   Atom        0.000000      0.000000     -0.000000
     7   Atom        0.000000     -0.000000     -0.000000
 --------------------------------------------------------
                        XY            XZ            YZ
 --------------------------------------------------------
     1   Atom        0.000000     -0.000000      0.000000
     2   Atom       -0.000000     -0.000000      0.000000
     3   Atom        0.000000     -0.000000      0.000000
     4   Atom        0.000000     -0.000000     -0.000000
     5   Atom        0.000000     -0.000000      0.000000
     6   Atom        0.000000     -0.000000      0.000000
     7   Atom        0.000000     -0.000000     -0.000000
 --------------------------------------------------------


 ---------------------------------------------------------------------------------
              Anisotropic Spin Dipole Couplings in Principal Axis System
 ---------------------------------------------------------------------------------

       Atom             a.u.   MegaHertz   Gauss  10(-4) cm-1        Axes

              Baa    -0.0000    -0.000    -0.000    -0.000  0.9063 -0.1362  0.4001
     1 C(13)  Bbb     0.0000     0.000     0.000     0.000 -0.4164 -0.4507  0.7896
              Bcc     0.0000     0.000     0.000     0.000 -0.0728  0.8822  0.4652
 
              Baa    -0.0000    -0.000    -0.000    -0.000  0.9952  0.0255  0.0950
     2 S(33)  Bbb     0.0000     0.000     0.000     0.000 -0.0148  0.9937 -0.1110
              Bcc     0.0000     0.000     0.000     0.000 -0.0972  0.1090  0.9893
 
              Baa    -0.0000    -0.000    -0.000    -0.000 -0.5504  0.7027 -0.4508
     3 C(13)  Bbb    -0.0000    -0.000    -0.000    -0.000  0.8117  0.3241 -0.4858
              Bcc     0.0000     0.000     0.000     0.000  0.1953  0.6334  0.7488
 
              Baa    -0.0000    -0.000    -0.000    -0.000  0.9875 -0.1014  0.1206
     4 H(1)   Bbb    -0.0000    -0.000    -0.000    -0.000 -0.0485  0.5324  0.8451
              Bcc     0.0000     0.000     0.000     0.000  0.1499  0.8404 -0.5209
 
              Baa    -0.0000    -0.000    -0.000    -0.000  0.7170 -0.2074  0.6655
     5 H(1)   Bbb    -0.0000    -0.000    -0.000    -0.000  0.6936  0.3073 -0.6515
              Bcc     0.0000     0.000     0.000     0.000 -0.0694  0.9287  0.3642
 
              Baa    -0.0000    -0.000    -0.000    -0.000  0.5234 -0.2697  0.8083
     6 H(1)   Bbb     0.0000     0.000     0.000     0.000 -0.0975  0.9234  0.3713
              Bcc     0.0000     0.000     0.000     0.000  0.8465  0.2732 -0.4570
 
              Baa    -0.0000    -0.000    -0.000    -0.000 -0.1435  0.9890  0.0367
     7 H(1)   Bbb    -0.0000    -0.000    -0.000    -0.000  0.2758  0.0043  0.9612
              Bcc     0.0000     0.000     0.000     0.000  0.9504  0.1481 -0.2734
 

 ---------------------------------------------------------------------------------

 No NMR shielding tensors so no spin-rotation constants.
 Leave Link  601 at Tue Jan  3 09:23:11 2023, MaxMem=   536870912 cpu:               0.9 elap:               0.5
 (Enter /opt/software/gaussian/g16.c01/l9999.exe)

 Test job not archived.
 1\1\GINC-GRA614\Stability\UB3LYP\Gen\C2H4S1\BHAVUK\03-Jan-2023\0\\#p u
 b3lyp/gen stable=opt scf=(maxcycle=900,verytightlineq,xqc) integral=gr
 id=ultrafine symmetry=None density=current iop(99/18=-1) output=wfn\\0
 003_q000_m01_k00_opt_uwb97xd_def2svpd/0003_q000_m01_k00_force_ub3lyp_d
 ef2qzvpd stable-force\\0,1\C,0,0.9838325225,-0.0325586033,0.0488580178
 \S,0,2.6071301422,0.0991997065,0.0187984451\C,0,3.2273228911,0.7361979
 77,-1.3460048506\H,0,0.570421034,-0.4575297175,0.9597448627\H,0,0.3438
 072589,0.2782232167,-0.7754915598\H,0,2.615218944,1.0564841772,-2.1877
 415072\H,0,4.3104572053,0.8236432464,-1.365823405\\Version=ES64L-G16Re
 vC.01\HF=-476.811771\S2=0.\S2-1=0.\S2A=0.\RMSD=8.663e-09\Dipole=-0.068
 8733,0.0348126,-0.0918057\Quadrupole=0.6730377,-1.5457211,0.8726834,0.
 3337649,-0.2739528,-1.307782\PG=Unknown\\@

 Writing a WFN file to "0003_q000_m01_k00_force_ub3lyp_def2qzvpd.wfn"


 A DANDELION FROM A LOVER MEANS MORE THAN AN ORCHID FROM A FRIEND.
 Job cpu time:       0 days  0 hours 36 minutes  4.9 seconds.
 Elapsed time:       0 days  0 hours 18 minutes  4.1 seconds.
 File lengths (MBytes):  RWF=    251 Int=      0 D2E=      0 Chk=     15 Scr=      1
 Normal termination of Gaussian 16 at Tue Jan  3 09:23:11 2023.
 Initial command:
 /opt/software/gaussian/g16.c01/l1.exe "/localscratch/bhavuk.2151374.0/Gau-6499.inp" -scrdir="/localscratch/bhavuk.2151374.0/"
 Entering Link 1 = /opt/software/gaussian/g16.c01/l1.exe PID=     12655.
  
 Copyright (c) 1988-2019, Gaussian, Inc.  All Rights Reserved.
  
 This is part of the Gaussian(R) 16 program.  It is based on
 the Gaussian(R) 09 system (copyright 2009, Gaussian, Inc.),
 the Gaussian(R) 03 system (copyright 2003, Gaussian, Inc.),
 the Gaussian(R) 98 system (copyright 1998, Gaussian, Inc.),
 the Gaussian(R) 94 system (copyright 1995, Gaussian, Inc.),
 the Gaussian 92(TM) system (copyright 1992, Gaussian, Inc.),
 the Gaussian 90(TM) system (copyright 1990, Gaussian, Inc.),
 the Gaussian 88(TM) system (copyright 1988, Gaussian, Inc.),
 the Gaussian 86(TM) system (copyright 1986, Carnegie Mellon
 University), and the Gaussian 82(TM) system (copyright 1983,
 Carnegie Mellon University). Gaussian is a federally registered
 trademark of Gaussian, Inc.
  
 This software contains proprietary and confidential information,
 including trade secrets, belonging to Gaussian, Inc.
  
 This software is provided under written license and may be
 used, copied, transmitted, or stored only in accord with that
 written license.
  
 The following legend is applicable only to US Government
 contracts under FAR:
  
                    RESTRICTED RIGHTS LEGEND
  
 Use, reproduction and disclosure by the US Government is
 subject to restrictions as set forth in subparagraphs (a)
 and (c) of the Commercial Computer Software - Restricted
 Rights clause in FAR 52.227-19.
  
 Gaussian, Inc.
 340 Quinnipiac St., Bldg. 40, Wallingford CT 06492
  
  
 ---------------------------------------------------------------
 Warning -- This program may not be used in any manner that
 competes with the business of Gaussian, Inc. or will provide
 assistance to any competitor of Gaussian, Inc.  The licensee
 of this program is prohibited from giving any competitor of
 Gaussian, Inc. access to this program.  By using this program,
 the user acknowledges that Gaussian, Inc. is engaged in the
 business of creating and licensing software in the field of
 computational chemistry and represents and warrants to the
 licensee that it is not a competitor of Gaussian, Inc. and that
 it will not use this program in any manner prohibited above.
 ---------------------------------------------------------------
  

 Cite this work as:
 Gaussian 16, Revision C.01,
 M. J. Frisch, G. W. Trucks, H. B. Schlegel, G. E. Scuseria, 
 M. A. Robb, J. R. Cheeseman, G. Scalmani, V. Barone, 
 G. A. Petersson, H. Nakatsuji, X. Li, M. Caricato, A. V. Marenich, 
 J. Bloino, B. G. Janesko, R. Gomperts, B. Mennucci, H. P. Hratchian, 
 J. V. Ortiz, A. F. Izmaylov, J. L. Sonnenberg, D. Williams-Young, 
 F. Ding, F. Lipparini, F. Egidi, J. Goings, B. Peng, A. Petrone, 
 T. Henderson, D. Ranasinghe, V. G. Zakrzewski, J. Gao, N. Rega, 
 G. Zheng, W. Liang, M. Hada, M. Ehara, K. Toyota, R. Fukuda, 
 J. Hasegawa, M. Ishida, T. Nakajima, Y. Honda, O. Kitao, H. Nakai, 
 T. Vreven, K. Throssell, J. A. Montgomery, Jr., J. E. Peralta, 
 F. Ogliaro, M. J. Bearpark, J. J. Heyd, E. N. Brothers, K. N. Kudin, 
 V. N. Staroverov, T. A. Keith, R. Kobayashi, J. Normand, 
 K. Raghavachari, A. P. Rendell, J. C. Burant, S. S. Iyengar, 
 J. Tomasi, M. Cossi, J. M. Millam, M. Klene, C. Adamo, R. Cammi, 
 J. W. Ochterski, R. L. Martin, K. Morokuma, O. Farkas, 
 J. B. Foresman, and D. J. Fox, Gaussian, Inc., Wallingford CT, 2019.
 
 ******************************************
 Gaussian 16:  ES64L-G16RevC.01  3-Jul-2019
                 3-Jan-2023 
 ******************************************
 %chk=0003_q000_m01_k00_force_ub3lyp_def2qzvpd.chk
 %nprocshared=2
 Will use up to    2 processors via shared memory.
 %mem=4GB
 ----------------------------------------------------------------------
 #p ub3lyp/chkbasis force guess=read geom=check scf=(maxcycle=900,veryt
 ightlineq,xqc) integral=grid=ultrafine symmetry=None density=current p
 op=(cm5,hlygat,mbs,npa) output=wfx
 ----------------------------------------------------------------------
 1/10=7,29=2,30=1,38=1/1,3;
 2/12=2,15=3,40=1/2;
 3/5=7,6=2,11=2,14=-4,25=1,30=1,67=1,71=1,74=-5,75=-5,116=2/1,2,3;
 4/5=1/1;
 5/5=2,7=900,8=3,13=1,17=3,38=6/2,8;
 6/7=2,8=2,9=2,10=2,15=8,20=15,22=-1,27=100,28=1,40=-1,79=1/1,2,7;
 7/29=1,30=1/1,2,3,16;
 1/10=7,30=1/3;
 99/6=200/99;
 Leave Link    1 at Tue Jan  3 09:23:11 2023, MaxMem=   536870912 cpu:               0.2 elap:               0.1
 (Enter /opt/software/gaussian/g16.c01/l101.exe)
 ----------------------------------------------------------------------
 0003_q000_m01_k00_opt_uwb97xd_def2svpd/0003_q000_m01_k00_force_ub3lyp_
 def2qzvpd stable-force
 ----------------------------------------------------------------------
 Structure from the checkpoint file:  "0003_q000_m01_k00_force_ub3lyp_def2qzvpd.chk"
 Charge =  0 Multiplicity = 1
 Z-Matrix found in chk file.
 C,0,0.9838325225,-0.0325586033,0.0488580178
 S,0,2.6071301422,0.0991997065,0.0187984451
 C,0,3.2273228911,0.736197977,-1.3460048506
 H,0,0.570421034,-0.4575297175,0.9597448627
 H,0,0.3438072589,0.2782232167,-0.7754915598
 H,0,2.615218944,1.0564841772,-2.1877415072
 H,0,4.3104572053,0.8236432464,-1.365823405
 Recover connectivity data from disk.
 ITRead=  0  0  0  0  0  0  0
 MicOpt= -1 -1 -1 -1 -1 -1 -1
 NAtoms=      7 NQM=        7 NQMF=       0 NMMI=      0 NMMIF=      0
                NMic=       0 NMicF=      0.
                    Isotopes and Nuclear Properties:
 (Nuclear quadrupole moments (NQMom) in fm**2, nuclear magnetic moments (NMagM)
  in nuclear magnetons)

  Atom         1           2           3           4           5           6           7
 IAtWgt=          12          32          12           1           1           1           1
 AtmWgt=  12.0000000  31.9720718  12.0000000   1.0078250   1.0078250   1.0078250   1.0078250
 NucSpn=           0           0           0           1           1           1           1
 AtZEff=   3.6000000  13.6000000   3.6000000   1.0000000   1.0000000   1.0000000   1.0000000
 NQMom=    0.0000000   0.0000000   0.0000000   0.0000000   0.0000000   0.0000000   0.0000000
 NMagM=    0.0000000   0.0000000   0.0000000   2.7928460   2.7928460   2.7928460   2.7928460
 AtZNuc=   6.0000000  16.0000000   6.0000000   1.0000000   1.0000000   1.0000000   1.0000000
 Leave Link  101 at Tue Jan  3 09:23:11 2023, MaxMem=   536870912 cpu:               0.4 elap:               0.2
 (Enter /opt/software/gaussian/g16.c01/l103.exe)

 GradGradGradGradGradGradGradGradGradGradGradGradGradGradGradGradGradGrad
 Berny optimization.
 Initialization pass.
 Trust Radius=3.00D-01 FncErr=1.00D-07 GrdErr=1.00D-07 EigMax=2.50D+02 EigMin=1.00D-04
 Number of steps in this run=      2 maximum allowed number of steps=      2.
 GradGradGradGradGradGradGradGradGradGradGradGradGradGradGradGradGradGrad

 Leave Link  103 at Tue Jan  3 09:23:11 2023, MaxMem=   536870912 cpu:               0.0 elap:               0.0
 (Enter /opt/software/gaussian/g16.c01/l202.exe)
                          Input orientation:                          
 ---------------------------------------------------------------------
 Center     Atomic      Atomic             Coordinates (Angstroms)
 Number     Number       Type             X           Y           Z
 ---------------------------------------------------------------------
      1          6           0        0.983833   -0.032559    0.048858
      2         16           0        2.607130    0.099200    0.018798
      3          6           0        3.227323    0.736198   -1.346005
      4          1           0        0.570421   -0.457530    0.959745
      5          1           0        0.343807    0.278223   -0.775492
      6          1           0        2.615219    1.056484   -2.187742
      7          1           0        4.310457    0.823643   -1.365823
 ---------------------------------------------------------------------
                    Distance matrix (angstroms):
                    1          2          3          4          5
     1  C    0.000000
     2  S    1.628913   0.000000
     3  C    2.751341   1.628832   0.000000
     4  H    1.086841   2.311604   3.714915   0.000000
     5  H    1.088931   2.405323   2.974876   1.898350   0.000000
     6  H    2.974864   2.405260   1.088933   4.047234   2.785579
     7  H    3.714948   2.311562   1.086839   4.586670   4.047257
                    6          7
     6  H    0.000000
[...]
   229    H    4  dx2y2  Ryd( 4d)     0.00000       8.16969
   230    H    4  dz2    Ryd( 3d)     0.00001       3.77418
   231    H    4  dz2    Ryd( 4d)     0.00000       8.61513
   232    H    4  f(0)   Ryd( 4f)     0.00000       6.78357
   233    H    4  f(C1)  Ryd( 4f)     0.00002       6.66373
   234    H    4  f(S1)  Ryd( 4f)     0.00002       6.62468
   235    H    4  f(C2)  Ryd( 4f)     0.00000       6.54100
   236    H    4  f(S2)  Ryd( 4f)     0.00001       6.46771
   237    H    4  f(C3)  Ryd( 4f)     0.00000       6.22851
   238    H    4  f(S3)  Ryd( 4f)     0.00000       6.22279
 
   239    H    5  S      Val( 1S)     0.38748       0.02724
   240    H    5  S      Ryd( 3S)     0.00039       1.52810
   241    H    5  S      Ryd( 2S)     0.00001       1.38938
   242    H    5  S      Ryd( 4S)     0.00000       5.49974
   243    H    5  px     Ryd( 2p)     0.00022       0.71240
   244    H    5  px     Ryd( 3p)     0.00006       2.70306
   245    H    5  px     Ryd( 4p)     0.00001       3.45867
   246    H    5  px     Ryd( 5p)     0.00000       7.66386
   247    H    5  py     Ryd( 2p)     0.00025       0.62722
   248    H    5  py     Ryd( 3p)     0.00019       2.25922
   249    H    5  py     Ryd( 4p)     0.00000       2.60234
   250    H    5  py     Ryd( 5p)     0.00000       7.48106
   251    H    5  pz     Ryd( 2p)     0.00056       0.79692
   252    H    5  pz     Ryd( 3p)     0.00014       2.61955
   253    H    5  pz     Ryd( 4p)     0.00000       4.10491
   254    H    5  pz     Ryd( 5p)     0.00000       7.72583
   255    H    5  dxy    Ryd( 3d)     0.00000       3.06696
   256    H    5  dxy    Ryd( 4d)     0.00000       8.19620
   257    H    5  dxz    Ryd( 3d)     0.00001       3.68514
   258    H    5  dxz    Ryd( 4d)     0.00001       8.59269
   259    H    5  dyz    Ryd( 3d)     0.00000       3.35047
   260    H    5  dyz    Ryd( 4d)     0.00000       8.35405
   261    H    5  dx2y2  Ryd( 3d)     0.00000       3.26380
   262    H    5  dx2y2  Ryd( 4d)     0.00000       8.26693
   263    H    5  dz2    Ryd( 3d)     0.00001       3.72595
   264    H    5  dz2    Ryd( 4d)     0.00000       8.52865
   265    H    5  f(0)   Ryd( 4f)     0.00000       6.73101
   266    H    5  f(C1)  Ryd( 4f)     0.00002       6.62611
   267    H    5  f(S1)  Ryd( 4f)     0.00001       6.57107
   268    H    5  f(C2)  Ryd( 4f)     0.00001       6.48426
   269    H    5  f(S2)  Ryd( 4f)     0.00001       6.43193
   270    H    5  f(C3)  Ryd( 4f)     0.00000       6.35004
   271    H    5  f(S3)  Ryd( 4f)     0.00000       6.31859
 
   272    H    6  S      Val( 1S)     0.38748       0.02723
   273    H    6  S      Ryd( 3S)     0.00039       1.52823
   274    H    6  S      Ryd( 2S)     0.00001       1.38942
   275    H    6  S      Ryd( 4S)     0.00000       5.49961
   276    H    6  px     Ryd( 2p)     0.00042       0.78639
   277    H    6  px     Ryd( 3p)     0.00007       2.45567
   278    H    6  px     Ryd( 4p)     0.00000       3.55846
   279    H    6  px     Ryd( 5p)     0.00000       7.65309
   280    H    6  py     Ryd( 2p)     0.00022       0.61451
   281    H    6  py     Ryd( 3p)     0.00019       2.30181
   282    H    6  py     Ryd( 4p)     0.00000       2.58503
   283    H    6  py     Ryd( 5p)     0.00000       7.48289
   284    H    6  pz     Ryd( 2p)     0.00039       0.73579
   285    H    6  pz     Ryd( 3p)     0.00012       2.82406
   286    H    6  pz     Ryd( 4p)     0.00001       4.02250
   287    H    6  pz     Ryd( 5p)     0.00000       7.73475
   288    H    6  dxy    Ryd( 3d)     0.00000       2.99917
   289    H    6  dxy    Ryd( 4d)     0.00000       8.17155
   290    H    6  dxz    Ryd( 3d)     0.00001       3.65254
   291    H    6  dxz    Ryd( 4d)     0.00001       8.58702
   292    H    6  dyz    Ryd( 3d)     0.00000       3.44354
   293    H    6  dyz    Ryd( 4d)     0.00000       8.39563
   294    H    6  dx2y2  Ryd( 3d)     0.00001       3.18409
   295    H    6  dx2y2  Ryd( 4d)     0.00000       8.22187
   296    H    6  dz2    Ryd( 3d)     0.00001       3.81315
   297    H    6  dz2    Ryd( 4d)     0.00000       8.56237
   298    H    6  f(0)   Ryd( 4f)     0.00000       6.75250
   299    H    6  f(C1)  Ryd( 4f)     0.00002       6.63188
   300    H    6  f(S1)  Ryd( 4f)     0.00001       6.59356
   301    H    6  f(C2)  Ryd( 4f)     0.00001       6.49053
   302    H    6  f(S2)  Ryd( 4f)     0.00001       6.43010
   303    H    6  f(C3)  Ryd( 4f)     0.00000       6.33045
   304    H    6  f(S3)  Ryd( 4f)     0.00000       6.28401
 
   305    H    7  S      Val( 1S)     0.38201       0.03069
   306    H    7  S      Ryd( 3S)     0.00028       1.45512
   307    H    7  S      Ryd( 2S)     0.00003       1.33928
   308    H    7  S      Ryd( 4S)     0.00000       5.53084
   309    H    7  px     Ryd( 2p)     0.00029       0.43425
   310    H    7  px     Ryd( 3p)     0.00023       3.68591
   311    H    7  px     Ryd( 4p)     0.00001       4.62070
   312    H    7  px     Ryd( 5p)     0.00000       8.31525
   313    H    7  py     Ryd( 2p)     0.00092       0.40287
   314    H    7  py     Ryd( 4p)     0.00006       2.56549
   315    H    7  py     Ryd( 3p)     0.00000       2.10485
   316    H    7  py     Ryd( 5p)     0.00000       7.61339
   317    H    7  pz     Ryd( 2p)     0.00042       0.43975
   318    H    7  pz     Ryd( 4p)     0.00003       2.67560
   319    H    7  pz     Ryd( 3p)     0.00001       2.31376
   320    H    7  pz     Ryd( 5p)     0.00000       7.74743
   321    H    7  dxy    Ryd( 3d)     0.00000       3.68309
   322    H    7  dxy    Ryd( 4d)     0.00000       8.51552
   323    H    7  dxz    Ryd( 3d)     0.00001       3.91230
   324    H    7  dxz    Ryd( 4d)     0.00000       8.60628
   325    H    7  dyz    Ryd( 3d)     0.00000       2.66844
   326    H    7  dyz    Ryd( 4d)     0.00000       7.97185
   327    H    7  dx2y2  Ryd( 3d)     0.00001       3.69311
   328    H    7  dx2y2  Ryd( 4d)     0.00001       8.67278
   329    H    7  dz2    Ryd( 3d)     0.00001       3.01206
   330    H    7  dz2    Ryd( 4d)     0.00000       8.18228
   331    H    7  f(0)   Ryd( 4f)     0.00000       6.28846
   332    H    7  f(C1)  Ryd( 4f)     0.00001       6.65233
   333    H    7  f(S1)  Ryd( 4f)     0.00000       5.99077
   334    H    7  f(C2)  Ryd( 4f)     0.00000       6.55847
   335    H    7  f(S2)  Ryd( 4f)     0.00000       6.61347
   336    H    7  f(C3)  Ryd( 4f)     0.00003       6.63282
   337    H    7  f(S3)  Ryd( 4f)     0.00000       6.79571

 WARNING:  Population inversion found on atom  C    1
           Population inversion found on atom  S    2
           Population inversion found on atom  H    4
           Population inversion found on atom  H    5
           Population inversion found on atom  H    6
           Population inversion found on atom  H    7


 Summary of Natural Population Analysis:                  
                                                          
                                       Natural Population 
                Natural  -----------------------------------------------
    Atom  No    Charge         Core      Valence    Rydberg      Total
 -----------------------------------------------------------------------
      C    1   -0.41425      0.99979     2.40138    0.01307     3.41425
      S    2    0.37612      4.99921     2.57339    0.05128     7.62388
      C    3   -0.41426      0.99979     2.40139    0.01307     3.41426
      H    4    0.11560      0.00000     0.38201    0.00239     0.38440
      H    5    0.11059      0.00000     0.38748    0.00194     0.38941
      H    6    0.11059      0.00000     0.38748    0.00194     0.38941
      H    7    0.11560      0.00000     0.38201    0.00239     0.38440
 =======================================================================
   * Total *    0.00000      6.99880     8.91513    0.08607    16.00000

                                 Natural Population      
 --------------------------------------------------------
   Core                       6.99880 ( 99.9828% of   7)
   Valence                    8.91513 ( 99.0570% of   9)
   Natural Minimal Basis     15.91393 ( 99.4621% of  16)
   Natural Rydberg Basis      0.08607 (  0.5379% of  16)
 --------------------------------------------------------

    Atom  No          Natural Electron Configuration
 ----------------------------------------------------------------------------
      C    1      [core]2S( 0.58)2p( 1.82)3p( 0.01)3d( 0.01)
      S    2      [core]3S( 0.76)3p( 1.81)4S( 0.01)3d( 0.01)4p( 0.01)4d( 0.02)
      C    3      [core]2S( 0.58)2p( 1.82)3p( 0.01)3d( 0.01)
      H    4            1S( 0.38)
      H    5            1S( 0.39)
      H    6            1S( 0.39)
      H    7            1S( 0.38)


 NBO analysis skipped by request.
 Leave Link  607 at Tue Jan  3 09:23:52 2023, MaxMem=   536870912 cpu:               4.0 elap:               2.0
 (Enter /opt/software/gaussian/g16.c01/l701.exe)
 ... and contract with generalized density number  0.
 Compute integral first derivatives.
 Leave Link  701 at Tue Jan  3 09:23:52 2023, MaxMem=   536870912 cpu:               0.6 elap:               0.3
 (Enter /opt/software/gaussian/g16.c01/l702.exe)
 L702 exits ... SP integral derivatives will be done elsewhere.
 Leave Link  702 at Tue Jan  3 09:23:52 2023, MaxMem=   536870912 cpu:               0.1 elap:               0.0
 (Enter /opt/software/gaussian/g16.c01/l703.exe)
 Integral derivatives from FoFJK, PRISM(SPDF).
 Compute integral first derivatives, UseDBF=F ICtDFT=           0.
 Calling FoFJK, ICntrl=      2127 FMM=F ISym2X=0 I1Cent= 0 IOpClX= 1 NMat=1 NMatS=1 NMatT=0.
 FoFJK:  IHMeth= 1 ICntrl=    2127 DoSepK=F KAlg= 0 I1Cent=           0 FoldK=F
 IRaf=         0 NMat=       1 IRICut=       1 DoRegI=T DoRafI=F ISym2E= 0 IDoP0=0 IntGTp=1.
 FoFCou: FMM=F IPFlag=           0 FMFlag=      100000 FMFlg1=         800
         NFxFlg=           0 DoJE=F BraDBF=F KetDBF=F FulRan=T
         wScrn=  0.000000 ICntrl=      2127 IOpCl=  1 I1Cent=           0 NGrid=           0
         NMat0=    1 NMatS0=      1 NMatT0=    0 NMatD0=    1 NMtDS0=    0 NMtDT0=    0
 Symmetry not used in FoFCou.
 Leave Link  703 at Tue Jan  3 09:26:22 2023, MaxMem=   536870912 cpu:             298.0 elap:             149.1
 (Enter /opt/software/gaussian/g16.c01/l716.exe)
 Dipole        =-6.88727654D-02 3.48122999D-02-9.18049656D-02
 -------------------------------------------------------------------
 Center     Atomic                   Forces (Hartrees/Bohr)
 Number     Number              X              Y              Z
 -------------------------------------------------------------------
      1        6          -0.003492290   -0.000440068    0.000455386
      2       16          -0.001849619    0.000890668   -0.002392482
      3        6           0.001747723    0.001360761   -0.002845719
      4        1           0.002374570    0.002956413   -0.006417563
      5        1           0.003695557   -0.002401802    0.006148187
      6        1           0.004958179   -0.001965437    0.005364754
      7        1          -0.007434120   -0.000400536   -0.000312563
 -------------------------------------------------------------------
 Cartesian Forces:  Max     0.007434120 RMS     0.003525966
 Z-matrix is all fixed cartesians, so copy forces.
 Force constants in Cartesian coordinates: 
                1             2             3             4             5 
      1  0.799457D+00
      2  0.386953D-01  0.202300D+00
      3  0.262318D-01 -0.197489D+00  0.573805D+00
      4 -0.458605D+00 -0.232735D-01 -0.165583D-01  0.577555D+00
      5 -0.320482D-01 -0.525335D-01  0.183029D-01  0.867656D-01  0.122175D+00
      6  0.365769D-02  0.197847D-01 -0.872720D-01 -0.110154D+00 -0.165608D+00
      7  0.122699D-02 -0.100692D-01  0.221250D-01 -0.139616D+00 -0.489763D-01
      8 -0.597775D-03  0.748286D-02  0.517705D-03 -0.577409D-01 -0.107626D+00
      9  0.278568D-03 -0.108316D-02  0.102956D-01  0.116790D+00  0.142526D+00
     10 -0.144909D+00 -0.441803D-01  0.836168D-01  0.115252D-02 -0.932375D-02
     11 -0.404522D-01 -0.846163D-01  0.105218D+00 -0.241587D-03  0.264194D-02
     12  0.750267D-01  0.104603D+00 -0.264763D+00  0.410365D-03 -0.299905D-02
     13 -0.197168D+00  0.388020D-01 -0.115426D+00 -0.916549D-03  0.691836D-02
     14  0.343779D-01 -0.722913D-01  0.735979D-01 -0.146773D-02  0.180903D-01
     15 -0.105206D+00  0.743316D-01 -0.232001D+00  0.158269D-03  0.144866D-02
     16 -0.246017D-04  0.336366D-03  0.145813D-03  0.192862D-01 -0.309494D-02
     17  0.337132D-03 -0.460942D-02 -0.199817D-02  0.528610D-02  0.146053D-01
     18  0.146171D-03 -0.199852D-02 -0.866351D-03 -0.120134D-01  0.780803D-02
     19  0.227250D-04 -0.310706D-03 -0.134690D-03  0.114404D-02 -0.240739D-03
     20 -0.312161D-03  0.426801D-02  0.185017D-02 -0.932793D-02  0.264671D-02
     21 -0.135369D-03  0.185083D-02  0.802328D-03  0.213670D-01 -0.147893D-02
                6             7             8             9            10 
      6  0.407473D+00
      7  0.965700D-01  0.667382D+00
      8  0.141042D+00  0.492959D-01  0.225135D+00
      9 -0.351317D+00 -0.206782D-01 -0.248346D+00  0.683203D+00
     10  0.213707D-01  0.228255D-04 -0.312081D-03 -0.135286D-03  0.115530D+00
     11 -0.146606D-02 -0.312069D-03  0.426675D-02  0.184962D-02  0.445604D-01
     12  0.901525D-02 -0.135235D-03  0.184900D-02  0.801534D-03 -0.864441D-01
     13 -0.191712D-01 -0.246447D-04  0.336954D-03  0.146068D-03  0.282041D-01
     14  0.324183D-04  0.336979D-03 -0.460733D-02 -0.199726D-02  0.925576D-02
     15  0.148968D-01  0.146176D-03 -0.199858D-02 -0.866379D-03 -0.184082D-01
     16  0.731953D-02 -0.179623D+00  0.329496D-01 -0.989913D-01  0.000000D+00
     17  0.921888D-02  0.373763D-01 -0.753070D-01  0.810589D-01  0.000000D+00
     18 -0.181486D-02 -0.109211D+00  0.803191D-01 -0.246533D+00  0.000000D+00
     19  0.407512D-03 -0.349368D+00 -0.239317D-01  0.258983D-02  0.000000D+00
     20 -0.300348D-02 -0.276515D-01 -0.493443D-01  0.259912D-01  0.000000D+00
     21  0.901933D-02  0.111835D-01  0.266169D-01 -0.955832D-01  0.000000D+00
               11            12            13            14            15 
     11  0.698063D-01
     12 -0.111340D+00  0.260624D+00
     13 -0.355446D-02  0.111423D-01  0.169905D+00
     14  0.790132D-02  0.788712D-02 -0.425029D-01  0.509070D-01
     15  0.573850D-02 -0.567740D-02  0.123309D+00 -0.795202D-01  0.223648D+00
     16  0.000000D+00  0.000000D+00  0.000000D+00  0.000000D+00  0.000000D+00
     17  0.000000D+00  0.000000D+00  0.000000D+00  0.000000D+00  0.000000D+00
     18  0.000000D+00  0.000000D+00  0.000000D+00  0.000000D+00  0.000000D+00
     19  0.000000D+00  0.000000D+00  0.000000D+00  0.000000D+00  0.000000D+00
     20  0.000000D+00  0.000000D+00  0.000000D+00  0.000000D+00  0.000000D+00
     21  0.000000D+00  0.000000D+00  0.000000D+00  0.000000D+00  0.000000D+00
               16            17            18            19            20 
     16  0.161831D+00
     17 -0.418445D-01  0.522901D-01
     18  0.120449D+00 -0.826089D-01  0.230340D+00
     19 -0.147004D-02 -0.115499D-02  0.629518D-03  0.349671D+00
     20  0.116534D-01  0.130211D-01 -0.351969D-02  0.256381D-01  0.294086D-01
     21 -0.289230D-01 -0.567069D-02  0.188748D-01 -0.349217D-02 -0.213182D-01
               21 
     21  0.668867D-01
 Leave Link  716 at Tue Jan  3 09:26:22 2023, MaxMem=   536870912 cpu:               0.1 elap:               0.1
 (Enter /opt/software/gaussian/g16.c01/l103.exe)

 GradGradGradGradGradGradGradGradGradGradGradGradGradGradGradGradGradGrad
 Berny optimization.
 Search for a local minimum.
 Step number   1 out of a maximum of    2
 All quantities printed in internal units (Hartrees-Bohrs-Radians)
 Second derivative matrix not updated -- first step.
 ITU=  0
     Eigenvalues ---    0.00860   0.01482   0.01804   0.07108   0.07556
     Eigenvalues ---    0.11270   0.14823   0.15345   0.17618   0.32617
     Eigenvalues ---    0.36576   0.82416   0.92900   1.11635   1.31988
 Angle between quadratic step and forces=  34.01 degrees.
 Linear search not attempted -- first point.
 B after Tr=    -0.002244    0.001146   -0.002960
         Rot=    1.000000   -0.000021   -0.000008    0.000015 Ang=  -0.00 deg.
 Variable       Old X    -DE/DX   Delta X   Delta X   Delta X     New X
                                 (Linear)    (Quad)   (Total)
    X1        1.85917  -0.00349   0.00000   0.00018  -0.00207   1.85711
    Y1       -0.06153  -0.00044   0.00000  -0.00044   0.00065  -0.06088
    Z1        0.09233   0.00046   0.00000   0.00119  -0.00180   0.09053
    X2        4.92676  -0.00185   0.00000  -0.00587  -0.00811   4.91865
    Y2        0.18746   0.00089   0.00000   0.00280   0.00380   0.19126
    Z2        0.03552  -0.00239   0.00000  -0.00781  -0.01084   0.02468
    X3        6.09876   0.00175   0.00000   0.00114  -0.00111   6.09765
    Y3        1.39121   0.00136   0.00000  -0.00014   0.00094   1.39215
    Z3       -2.54358  -0.00285   0.00000   0.00053  -0.00247  -2.54605
    X4        1.07794   0.00237   0.00000   0.01352   0.01128   1.08922
    Y4       -0.86461   0.00296   0.00000   0.00747   0.00851  -0.85609
    Z4        1.81365  -0.00642   0.00000  -0.01428  -0.01729   1.79636
    X5        0.64970   0.00370   0.00000  -0.00168  -0.00393   0.64577
    Y5        0.52577  -0.00240   0.00000  -0.01185  -0.01066   0.51510
    Z5       -1.46547   0.00615   0.00000   0.02674   0.02379  -1.44168
    X6        4.94205   0.00496   0.00000   0.02808   0.02583   4.96788
    Y6        1.99647  -0.00197   0.00000  -0.00155  -0.00038   1.99609
    Z6       -4.13423   0.00536   0.00000   0.00822   0.00526  -4.12897
    X7        8.14558  -0.00743   0.00000  -0.01966  -0.02190   8.12368
    Y7        1.55646  -0.00040   0.00000  -0.00388  -0.00286   1.55360
    Z7       -2.58103  -0.00031   0.00000   0.00637   0.00335  -2.57769
         Item               Value     Threshold  Converged?
 Maximum Force            0.007434     0.000450     NO 
 RMS     Force            0.003526     0.000300     NO 
 Maximum Displacement     0.025831     0.001800     NO 
 RMS     Displacement     0.011131     0.001200     NO 
 Predicted change in Energy=-3.485203D-04
 GradGradGradGradGradGradGradGradGradGradGradGradGradGradGradGradGradGrad

 Leave Link  103 at Tue Jan  3 09:26:22 2023, MaxMem=   536870912 cpu:               0.1 elap:               0.0
 (Enter /opt/software/gaussian/g16.c01/l9999.exe)
 Unable to Open any file for archive entry.
 1\1\GINC-GRA614\Force\UB3LYP\Gen\C2H4S1\BHAVUK\03-Jan-2023\0\\#p ub3ly
 p/chkbasis force guess=read geom=check scf=(maxcycle=900,verytightline
 q,xqc) integral=grid=ultrafine symmetry=None density=current pop=(cm5,
 hlygat,mbs,npa) output=wfx\\0003_q000_m01_k00_opt_uwb97xd_def2svpd/000
 3_q000_m01_k00_force_ub3lyp_def2qzvpd stable-force\\0,1\C,0.9838325225
 ,-0.0325586033,0.0488580178\S,2.6071301422,0.0991997065,0.0187984451\C
 ,3.2273228911,0.736197977,-1.3460048506\H,0.570421034,-0.4575297175,0.
 9597448627\H,0.3438072589,0.2782232167,-0.7754915598\H,2.615218944,1.0
 564841772,-2.1877415072\H,4.3104572053,0.8236432464,-1.365823405\\Vers
 ion=ES64L-G16RevC.01\HF=-476.811771\S2=0.\S2-1=0.\S2A=0.\RMSD=1.549e-0
 9\RMSF=3.526e-03\Dipole=-0.0688728,0.0348123,-0.091805\Quadrupole=0.67
 30444,-1.5457257,0.8726813,0.3337657,-0.2739529,-1.3077835\PG=Unknown\
 \@
 The archive entry for this job was punched.

 Writing a WFNX file to "0003_q000_m01_k00_force_ub3lyp_def2qzvpd.wfx"


 THE DIFFICULTY IN SCIENCE IS OFTEN NOT SO MUCH HOW
 TO MAKE A DISCOVERY BUT RATHER TO KNOW ONE HAS MADE IT.

                                                   -- J. D. BERNAL
 Job cpu time:       0 days  0 hours  6 minutes 20.7 seconds.
 Elapsed time:       0 days  0 hours  3 minutes 10.1 seconds.
 File lengths (MBytes):  RWF=    110 Int=      0 D2E=      0 Chk=     15 Scr=      1
 Normal termination of Gaussian 16 at Tue Jan  3 09:26:22 2023.
