 Entering Gaussian System, Link 0=g16
 Input=0003_q000_m01_k00_force_uwb97xd_def2svp.com
 Output=0003_q000_m01_k00_force_uwb97xd_def2svp.log
 Initial command:
 /opt/software/gaussian/g16.c01/l1.exe "/localscratch/bhavuk.2151387.0/Gau-30972.inp" -scrdir="/localscratch/bhavuk.2151387.0/"
 Entering Link 1 = /opt/software/gaussian/g16.c01/l1.exe PID=     30990.
  
 Copyright (c) 1988-2019, Gaussian, Inc.  All Rights Reserved.
  
 This is part of the Gaussian(R) 16 program.  It is based on
 the Gaussian(R) 09 system (copyright 2009, Gaussian, Inc.),
 the Gaussian(R) 03 system (copyright 2003, Gaussian, Inc.),
 the Gaussian(R) 98 system (copyright 1998, Gaussian, Inc.),
 the Gaussian(R) 94 system (copyright 1995, Gaussian, Inc.),
 the Gaussian 92(TM) system (copyright 1992, Gaussian, Inc.),
 the Gaussian 90(TM) system (copyright 1990, Gaussian, Inc.),
 the Gaussian 88(TM) system (copyright 1988, Gaussian, Inc.),
 the Gaussian 86(TM) system (copyright 1986, Carnegie Mellon
 University), and the Gaussian 82(TM) system (copyright 1983,
 Carnegie Mellon University). Gaussian is a federally registered
 trademark of Gaussian, Inc.
  
 This software contains proprietary and confidential information,
 including trade secrets, belonging to Gaussian, Inc.
  
 This software is provided under written license and may be
 used, copied, transmitted, or stored only in accord with that
 written license.
  
 The following legend is applicable only to US Government
 contracts under FAR:
  
                    RESTRICTED RIGHTS LEGEND
  
 Use, reproduction and disclosure by the US Government is
 subject to restrictions as set forth in subparagraphs (a)
 and (c) of the Commercial Computer Software - Restricted
 Rights clause in FAR 52.227-19.
  
 Gaussian, Inc.
 340 Quinnipiac St., Bldg. 40, Wallingford CT 06492
  
  
 ---------------------------------------------------------------
 Warning -- This program may not be used in any manner that
 competes with the business of Gaussian, Inc. or will provide
 assistance to any competitor of Gaussian, Inc.  The licensee
 of this program is prohibited from giving any competitor of
 Gaussian, Inc. access to this program.  By using this program,
 the user acknowledges that Gaussian, Inc. is engaged in the
 business of creating and licensing software in the field of
 computational chemistry and represents and warrants to the
 licensee that it is not a competitor of Gaussian, Inc. and that
 it will not use this program in any manner prohibited above.
 ---------------------------------------------------------------
  

 Cite this work as:
 Gaussian 16, Revision C.01,
 M. J. Frisch, G. W. Trucks, H. B. Schlegel, G. E. Scuseria, 
 M. A. Robb, J. R. Cheeseman, G. Scalmani, V. Barone, 
 G. A. Petersson, H. Nakatsuji, X. Li, M. Caricato, A. V. Marenich, 
 J. Bloino, B. G. Janesko, R. Gomperts, B. Mennucci, H. P. Hratchian, 
 J. V. Ortiz, A. F. Izmaylov, J. L. Sonnenberg, D. Williams-Young, 
 F. Ding, F. Lipparini, F. Egidi, J. Goings, B. Peng, A. Petrone, 
 T. Henderson, D. Ranasinghe, V. G. Zakrzewski, J. Gao, N. Rega, 
 G. Zheng, W. Liang, M. Hada, M. Ehara, K. Toyota, R. Fukuda, 
 J. Hasegawa, M. Ishida, T. Nakajima, Y. Honda, O. Kitao, H. Nakai, 
 T. Vreven, K. Throssell, J. A. Montgomery, Jr., J. E. Peralta, 
 F. Ogliaro, M. J. Bearpark, J. J. Heyd, E. N. Brothers, K. N. Kudin, 
 V. N. Staroverov, T. A. Keith, R. Kobayashi, J. Normand, 
 K. Raghavachari, A. P. Rendell, J. C. Burant, S. S. Iyengar, 
 J. Tomasi, M. Cossi, J. M. Millam, M. Klene, C. Adamo, R. Cammi, 
 J. W. Ochterski, R. L. Martin, K. Morokuma, O. Farkas, 
 J. B. Foresman, and D. J. Fox, Gaussian, Inc., Wallingford CT, 2019.
 
 ******************************************
 Gaussian 16:  ES64L-G16RevC.01  3-Jul-2019
                 3-Jan-2023 
 ******************************************
 %chk=0003_q000_m01_k00_force_uwb97xd_def2svp.chk
 %nprocshared=2
 Will use up to    2 processors via shared memory.
 %mem=4GB
 ----------------------------------------------------------------------
 #p uwb97xd/gen stable=opt scf=(maxcycle=900,verytightlineq,xqc) integr
 al=grid=ultrafine symmetry=None density=current iop(99/18=-1) output=w
 fn
 ----------------------------------------------------------------------
 1/38=1,172=1/1;
 2/12=2,15=3,17=6,18=5,40=1/2;
 3/5=7,11=2,25=1,30=1,74=-58,75=-5,116=2/1,2,3;
 4//1;
 5/5=2,7=900,8=3,13=1,17=3,38=5/2,8;
 6/7=2,8=2,9=2,10=2,22=-1,28=1/1;
 8/6=1,10=90,11=11/1;
 9/8=-3,42=1,46=1/14;
 5/5=2,7=900,8=3,17=43,38=5/8(-2);
 6/7=2,8=2,9=2,10=2,22=-1,28=1/1;
 99/5=1,6=100,9=1,18=-1/99;
 Leave Link    1 at Tue Jan  3 09:05:50 2023, MaxMem=   536870912 cpu:               0.1 elap:               0.1
 (Enter /opt/software/gaussian/g16.c01/l101.exe)
 ----------------------------------------------------------------------
 0003_q000_m01_k00_opt_uwb97xd_def2svpd/0003_q000_m01_k00_force_uwb97xd
 _def2svp stable-force
 ----------------------------------------------------------------------
 Symbolic Z-matrix:
 Charge =  0 Multiplicity = 1
 C                     0.98383  -0.03256   0.04886 
 S                     2.60713   0.0992    0.0188 
 C                     3.22732   0.7362   -1.346 
 H                     0.57042  -0.45753   0.95974 
 H                     0.34381   0.27822  -0.77549 
 H                     2.61522   1.05648  -2.18774 
 H                     4.31046   0.82364  -1.36582 
 
 ITRead=  0  0  0  0  0  0  0
 MicOpt= -1 -1 -1 -1 -1 -1 -1
 NAtoms=      7 NQM=        7 NQMF=       0 NMMI=      0 NMMIF=      0
                NMic=       0 NMicF=      0.
                    Isotopes and Nuclear Properties:
 (Nuclear quadrupole moments (NQMom) in fm**2, nuclear magnetic moments (NMagM)
  in nuclear magnetons)

  Atom         1           2           3           4           5           6           7
 IAtWgt=          12          32          12           1           1           1           1
 AtmWgt=  12.0000000  31.9720718  12.0000000   1.0078250   1.0078250   1.0078250   1.0078250
 NucSpn=           0           0           0           1           1           1           1
 AtZEff=  -0.0000000  -0.0000000  -0.0000000  -0.0000000  -0.0000000  -0.0000000  -0.0000000
 NQMom=    0.0000000   0.0000000   0.0000000   0.0000000   0.0000000   0.0000000   0.0000000
 NMagM=    0.0000000   0.0000000   0.0000000   2.7928460   2.7928460   2.7928460   2.7928460
 AtZNuc=   6.0000000  16.0000000   6.0000000   1.0000000   1.0000000   1.0000000   1.0000000
 Leave Link  101 at Tue Jan  3 09:05:50 2023, MaxMem=   536870912 cpu:               0.5 elap:               0.3
 (Enter /opt/software/gaussian/g16.c01/l202.exe)
                          Input orientation:                          
 ---------------------------------------------------------------------
 Center     Atomic      Atomic             Coordinates (Angstroms)
 Number     Number       Type             X           Y           Z
 ---------------------------------------------------------------------
      1          6           0        0.983833   -0.032559    0.048858
      2         16           0        2.607130    0.099200    0.018798
      3          6           0        3.227323    0.736198   -1.346005
      4          1           0        0.570421   -0.457530    0.959745
      5          1           0        0.343807    0.278223   -0.775492
      6          1           0        2.615219    1.056484   -2.187742
      7          1           0        4.310457    0.823643   -1.365823
 ---------------------------------------------------------------------
                    Distance matrix (angstroms):
                    1          2          3          4          5
     1  C    0.000000
     2  S    1.628913   0.000000
     3  C    2.751341   1.628832   0.000000
     4  H    1.086841   2.311604   3.714915   0.000000
     5  H    1.088931   2.405323   2.974876   1.898350   0.000000
     6  H    2.974864   2.405260   1.088933   4.047234   2.785579
     7  H    3.714948   2.311562   1.086839   4.586670   4.047257
                    6          7
     6  H    0.000000
     7  H    1.898314   0.000000
 Symmetry turned off by external request.
 Stoichiometry    C2H4S
 Rotational constants (GHZ):          32.8865896           8.4327606           6.7117401
 Leave Link  202 at Tue Jan  3 09:05:50 2023, MaxMem=   536870912 cpu:               0.0 elap:               0.0
 (Enter /opt/software/gaussian/g16.c01/l301.exe)
 General basis read from cards:  (5D, 7F)
 Centers:       4      5      6      7
 S 3 1.00
     Exponent=  1.3010701000D+01 Coefficients=  1.9682158000D-02
     Exponent=  1.9622572000D+00 Coefficients=  1.3796524000D-01
     Exponent=  4.4453796000D-01 Coefficients=  4.7831935000D-01
 S 1 1.00
     Exponent=  1.2194962000D-01 Coefficients=  1.0000000000D+00
 P 1 1.00
     Exponent=  8.0000000000D-01 Coefficients=  1.0000000000D+00
 ****
 Centers:       1      3
 S 5 1.00
     Exponent=  1.2384016938D+03 Coefficients=  5.4568832082D-03
     Exponent=  1.8629004992D+02 Coefficients=  4.0638409211D-02
     Exponent=  4.2251176346D+01 Coefficients=  1.8025593888D-01
     Exponent=  1.1676557932D+01 Coefficients=  4.6315121755D-01
     Exponent=  3.5930506482D+00 Coefficients=  4.4087173314D-01
 S 1 1.00
     Exponent=  4.0245147363D-01 Coefficients=  1.0000000000D+00
 S 1 1.00
     Exponent=  1.3090182668D-01 Coefficients=  1.0000000000D+00
 P 3 1.00
     Exponent=  9.4680970621D+00 Coefficients=  3.8387871728D-02
     Exponent=  2.0103545142D+00 Coefficients=  2.1117025112D-01
     Exponent=  5.4771004707D-01 Coefficients=  5.1328172114D-01
 P 1 1.00
     Exponent=  1.5268613795D-01 Coefficients=  1.0000000000D+00
 D 1 1.00
     Exponent=  8.0000000000D-01 Coefficients=  1.0000000000D+00
 ****
 Centers:       2
 S 5 1.00
     Exponent=  9.1849303010D+03 Coefficients= -2.2294387756D-03
     Exponent=  1.3815105503D+03 Coefficients= -1.6683029937D-02
     Exponent=  3.1387147580D+02 Coefficients= -7.5262436116D-02
     Exponent=  8.8053870623D+01 Coefficients= -1.9376827038D-01
     Exponent=  2.7039914905D+01 Coefficients= -1.7718020803D-01
 S 3 1.00
     Exponent=  4.5648731303D+01 Coefficients= -1.0736062573D-01
     Exponent=  4.9664522326D+00 Coefficients=  6.5066293018D-01
     Exponent=  2.0116242047D+00 Coefficients=  5.9712155354D-01
 S 1 1.00
     Exponent=  3.5661077013D-01 Coefficients=  1.0000000000D+00
 S 1 1.00
     Exponent=  1.3507221477D-01 Coefficients=  1.0000000000D+00
 P 5 1.00
     Exponent=  2.6198233439D+02 Coefficients= -9.2729929822D-03
     Exponent=  6.1306894736D+01 Coefficients= -6.6547669241D-02
     Exponent=  1.9103729887D+01 Coefficients= -2.4828595903D-01
     Exponent=  6.6567720378D+00 Coefficients= -4.8703847402D-01
     Exponent=  2.3959635161D+00 Coefficients= -3.9337850312D-01
 P 1 1.00
     Exponent=  6.1776161679D-01 Coefficients=  1.0000000000D+00
 P 1 1.00
     Exponent=  1.6993376871D-01 Coefficients=  1.0000000000D+00
 D 1 1.00
     Exponent=  5.5000000000D-01 Coefficients=  1.0000000000D+00
 ****
 Ernie: Thresh=  0.10000D-02 Tol=  0.10000D-05 Strict=F.
    66 basis functions,   115 primitive gaussians,    69 cartesian basis functions
    16 alpha electrons       16 beta electrons
       nuclear repulsion energy       100.3080120317 Hartrees.
 IExCor= 4639 DFT=T Ex+Corr=wB97XD ExCW=0 ScaHFX=  1.000000
 ScaDFX=  1.000000  1.000000  1.000000  1.000000 ScalE2=  1.000000  1.000000
 IRadAn=      5 IRanWt=     -1 IRanGd=            0 ICorTp=0 IEmpDi=121
 HFx  wShort=  0.000000 wLong=  0.200000 cFull=  0.222036 cShort=  0.000000 cLong=  0.777964
 DFx  wShort=  0.000000 wLong=  0.200000 cFull=  0.000000 cShort=  0.000000 cLong=  1.000000
 NAtoms=    7 NActive=    7 NUniq=    7 SFac= 1.00D+00 NAtFMM=   60 NAOKFM=F Big=F
 Integral buffers will be    131072 words long.
 Raffenetti 2 integral format.
 Two-electron integral symmetry is turned off.
 R6Disp:  Grimme-D2 Dispersion energy=       -0.0011997330 Hartrees.
 Nuclear repulsion after empirical dispersion term =      100.3068122987 Hartrees.
 Leave Link  301 at Tue Jan  3 09:05:50 2023, MaxMem=   536870912 cpu:               0.2 elap:               0.1
 (Enter /opt/software/gaussian/g16.c01/l302.exe)
 NPDir=0 NMtPBC=     1 NCelOv=     1 NCel=       1 NClECP=     1 NCelD=      1
         NCelK=      1 NCelE2=     1 NClLst=     1 CellRange=     0.0.
 One-electron integrals computed using PRISM.
 NBasis=    66 RedAO= T EigKep=  6.57D-03  NBF=    66
 NBsUse=    66 1.00D-06 EigRej= -1.00D+00 NBFU=    66
 Precomputing XC quadrature grid using
 IXCGrd= 4 IRadAn=           5 IRanWt=          -1 IRanGd=           0 AccXCQ= 0.00D+00.
 Generated NRdTot=       0 NPtTot=           0 NUsed=           0 NTot=          32
 NSgBfM=    69    69    69    69    69 MxSgAt=     7 MxSgA2=     7.
 Leave Link  302 at Tue Jan  3 09:05:50 2023, MaxMem=   536870912 cpu:               0.4 elap:               0.2
 (Enter /opt/software/gaussian/g16.c01/l303.exe)
 DipDrv:  MaxL=1.
 Leave Link  303 at Tue Jan  3 09:05:50 2023, MaxMem=   536870912 cpu:               0.1 elap:               0.0
 (Enter /opt/software/gaussian/g16.c01/l401.exe)
 ExpMin= 1.22D-01 ExpMax= 9.18D+03 ExpMxC= 1.38D+03 IAcc=3 IRadAn=         5 AccDes= 0.00D+00
 Harris functional with IExCor= 4639 and IRadAn=       5 diagonalized for initial guess.
 HarFok:  IExCor= 4639 AccDes= 0.00D+00 IRadAn=         5 IDoV= 1 UseB2=F ITyADJ=14
 ICtDFT=  3500011 ScaDFX=  1.000000  1.000000  1.000000  1.000000
 FoFCou: FMM=F IPFlag=           0 FMFlag=      100000 FMFlg1=           0
         NFxFlg=           0 DoJE=T BraDBF=F KetDBF=T FulRan=T
         wScrn=  0.000000 ICntrl=       500 IOpCl=  0 I1Cent=   200000004 NGrid=           0
         NMat0=    1 NMatS0=      1 NMatT0=    0 NMatD0=    1 NMtDS0=    0 NMtDT0=    0
 Symmetry not used in FoFCou.
 Harris En= -465.699463498215    
 JPrj=0 DoOrth=F DoCkMO=F.
 Initial guess <Sx>= 0.0000 <Sy>= 0.0000 <Sz>= 0.0000 <S**2>= 0.0000 S= 0.0000
 Leave Link  401 at Tue Jan  3 09:05:51 2023, MaxMem=   536870912 cpu:               1.1 elap:               0.6
 (Enter /opt/software/gaussian/g16.c01/l502.exe)
 Keep R1 and R2 ints in memory in canonical form, NReq=11719429.
 FoFCou: FMM=F IPFlag=           0 FMFlag=           0 FMFlg1=           0
         NFxFlg=           0 DoJE=F BraDBF=F KetDBF=F FulRan=T
         wScrn=  0.000000 ICntrl=       600 IOpCl=  0 I1Cent=           0 NGrid=           0
         NMat0=    1 NMatS0=   2211 NMatT0=    0 NMatD0=    1 NMtDS0=    0 NMtDT0=    0
 Symmetry not used in FoFCou.
 Two-electron integral symmetry not used.
 UHF open shell SCF:
 Using DIIS extrapolation, IDIIS=  1040.
 NGot=   536870912 LenX=   527078637 LenY=   527073435
 Requested convergence on RMS density matrix=1.00D-08 within 128 cycles.
 Requested convergence on MAX density matrix=1.00D-06.
 Requested convergence on             energy=1.00D-06.
 No special actions if energy rises.
 Integral accuracy reduced to 1.0D-05 until final iterations.

 Cycle   1  Pass 0  IDiag  1:
 E= -476.341022331339    
 DIIS: error= 8.32D-02 at cycle   1 NSaved=   1.
 NSaved= 1 IEnMin= 1 EnMin= -476.341022331339     IErMin= 1 ErrMin= 8.32D-02
 ErrMax= 8.32D-02  0.00D+00 EMaxC= 1.00D-01 BMatC= 9.93D-01 BMatP= 9.93D-01
 IDIUse=3 WtCom= 1.68D-01 WtEn= 8.32D-01
 Coeff-Com:  0.100D+01
 Coeff-En:   0.100D+01
 Coeff:      0.100D+01
 Gap=     0.200 Goal=   None    Shift=    0.000
 Gap=     0.200 Goal=   None    Shift=    0.000
 GapD=    0.200 DampG=1.000 DampE=0.500 DampFc=0.5000 IDamp=-1.
 Damping current iteration by 5.00D-01
 RMSDP=1.28D-02 MaxDP=3.14D-01              OVMax= 2.90D-01

 Cycle   2  Pass 0  IDiag  1:
 E= -476.422605361097     Delta-E=       -0.081583029758 Rises=F Damp=T
 DIIS: error= 2.69D-02 at cycle   2 NSaved=   2.
 NSaved= 2 IEnMin= 2 EnMin= -476.422605361097     IErMin= 2 ErrMin= 2.69D-02
 ErrMax= 2.69D-02  0.00D+00 EMaxC= 1.00D-01 BMatC= 9.37D-02 BMatP= 9.93D-01
 IDIUse=3 WtCom= 7.31D-01 WtEn= 2.69D-01
 Coeff-Com: -0.222D+00 0.122D+01
 Coeff-En:   0.000D+00 0.100D+01
 Coeff:     -0.162D+00 0.116D+01
 Gap=     0.286 Goal=   None    Shift=    0.000
 Gap=     0.286 Goal=   None    Shift=    0.000
 RMSDP=2.32D-03 MaxDP=5.82D-02 DE=-8.16D-02 OVMax= 1.37D-01

 Cycle   3  Pass 0  IDiag  1:
 E= -476.497220004074     Delta-E=       -0.074614642976 Rises=F Damp=F
 DIIS: error= 5.74D-03 at cycle   3 NSaved=   3.
 NSaved= 3 IEnMin= 3 EnMin= -476.497220004074     IErMin= 3 ErrMin= 5.74D-03
 ErrMax= 5.74D-03  0.00D+00 EMaxC= 1.00D-01 BMatC= 6.79D-03 BMatP= 9.37D-02
 IDIUse=3 WtCom= 9.43D-01 WtEn= 5.74D-02
 Coeff-Com: -0.981D-01 0.267D+00 0.831D+00
 Coeff-En:   0.000D+00 0.000D+00 0.100D+01
 Coeff:     -0.925D-01 0.252D+00 0.841D+00
 Gap=     0.285 Goal=   None    Shift=    0.000
 Gap=     0.285 Goal=   None    Shift=    0.000
 RMSDP=7.54D-04 MaxDP=1.07D-02 DE=-7.46D-02 OVMax= 2.38D-02

 Cycle   4  Pass 0  IDiag  1:
 E= -476.499151751724     Delta-E=       -0.001931747651 Rises=F Damp=F
 DIIS: error= 1.21D-03 at cycle   4 NSaved=   4.
 NSaved= 4 IEnMin= 4 EnMin= -476.499151751724     IErMin= 4 ErrMin= 1.21D-03
 ErrMax= 1.21D-03  0.00D+00 EMaxC= 1.00D-01 BMatC= 4.28D-04 BMatP= 6.79D-03
 IDIUse=3 WtCom= 9.88D-01 WtEn= 1.21D-02
 Coeff-Com: -0.166D-01 0.363D-01 0.269D+00 0.712D+00
 Coeff-En:   0.000D+00 0.000D+00 0.000D+00 0.100D+01
 Coeff:     -0.164D-01 0.358D-01 0.265D+00 0.715D+00
 Gap=     0.287 Goal=   None    Shift=    0.000
 Gap=     0.287 Goal=   None    Shift=    0.000
 RMSDP=1.65D-04 MaxDP=2.82D-03 DE=-1.93D-03 OVMax= 2.30D-03

 Cycle   5  Pass 0  IDiag  1:
 E= -476.499263124728     Delta-E=       -0.000111373004 Rises=F Damp=F
 DIIS: error= 2.41D-04 at cycle   5 NSaved=   5.
 NSaved= 5 IEnMin= 5 EnMin= -476.499263124728     IErMin= 5 ErrMin= 2.41D-04
 ErrMax= 2.41D-04  0.00D+00 EMaxC= 1.00D-01 BMatC= 1.58D-05 BMatP= 4.28D-04
 IDIUse=3 WtCom= 9.98D-01 WtEn= 2.41D-03
 Coeff-Com:  0.103D-01-0.251D-01-0.456D-01 0.125D-01 0.105D+01
 Coeff-En:   0.000D+00 0.000D+00 0.000D+00 0.000D+00 0.100D+01
 Coeff:      0.103D-01-0.250D-01-0.455D-01 0.125D-01 0.105D+01
 Gap=     0.287 Goal=   None    Shift=    0.000
 Gap=     0.287 Goal=   None    Shift=    0.000
 RMSDP=5.12D-05 MaxDP=1.16D-03 DE=-1.11D-04 OVMax= 1.23D-03

 Cycle   6  Pass 0  IDiag  1:
 E= -476.499270163368     Delta-E=       -0.000007038640 Rises=F Damp=F
 DIIS: error= 4.78D-05 at cycle   6 NSaved=   6.
 NSaved= 6 IEnMin= 6 EnMin= -476.499270163368     IErMin= 6 ErrMin= 4.78D-05
 ErrMax= 4.78D-05  0.00D+00 EMaxC= 1.00D-01 BMatC= 3.73D-07 BMatP= 1.58D-05
 IDIUse=1 WtCom= 1.00D+00 WtEn= 0.00D+00
 Coeff-Com:  0.149D-03-0.488D-06-0.582D-02-0.310D-01-0.106D+00 0.114D+01
 Coeff:      0.149D-03-0.488D-06-0.582D-02-0.310D-01-0.106D+00 0.114D+01
 Gap=     0.287 Goal=   None    Shift=    0.000
 Gap=     0.287 Goal=   None    Shift=    0.000
 RMSDP=1.17D-05 MaxDP=2.15D-04 DE=-7.04D-06 OVMax= 4.32D-04

 Cycle   7  Pass 0  IDiag  1:
 E= -476.499270442167     Delta-E=       -0.000000278798 Rises=F Damp=F
 DIIS: error= 1.11D-05 at cycle   7 NSaved=   7.
 NSaved= 7 IEnMin= 7 EnMin= -476.499270442167     IErMin= 7 ErrMin= 1.11D-05
 ErrMax= 1.11D-05  0.00D+00 EMaxC= 1.00D-01 BMatC= 2.73D-08 BMatP= 3.73D-07
 IDIUse=1 WtCom= 1.00D+00 WtEn= 0.00D+00
 Coeff-Com: -0.209D-03 0.560D-03 0.538D-03-0.489D-02-0.446D-01 0.203D+00
 Coeff-Com:  0.845D+00
 Coeff:     -0.209D-03 0.560D-03 0.538D-03-0.489D-02-0.446D-01 0.203D+00
 Coeff:      0.845D+00
 Gap=     0.287 Goal=   None    Shift=    0.000
 Gap=     0.287 Goal=   None    Shift=    0.000
 RMSDP=2.74D-06 MaxDP=3.93D-05 DE=-2.79D-07 OVMax= 8.36D-05

 Initial convergence to 1.0D-05 achieved.  Increase integral accuracy.
 Cycle   8  Pass 1  IDiag  1:
 E= -476.499301714073     Delta-E=       -0.000031271906 Rises=F Damp=F
 DIIS: error= 5.88D-05 at cycle   1 NSaved=   1.
 NSaved= 1 IEnMin= 1 EnMin= -476.499301714073     IErMin= 1 ErrMin= 5.88D-05
 ErrMax= 5.88D-05  0.00D+00 EMaxC= 1.00D-01 BMatC= 8.18D-07 BMatP= 8.18D-07
 IDIUse=1 WtCom= 1.00D+00 WtEn= 0.00D+00
 Coeff-Com:  0.100D+01
 Coeff:      0.100D+01
 Gap=     0.287 Goal=   None    Shift=    0.000
 Gap=     0.287 Goal=   None    Shift=    0.000
 RMSDP=2.74D-06 MaxDP=3.93D-05 DE=-3.13D-05 OVMax= 1.19D-04

 Cycle   9  Pass 1  IDiag  1:
 E= -476.499301848532     Delta-E=       -0.000000134459 Rises=F Damp=F
 DIIS: error= 2.12D-05 at cycle   2 NSaved=   2.
 NSaved= 2 IEnMin= 2 EnMin= -476.499301848532     IErMin= 2 ErrMin= 2.12D-05
 ErrMax= 2.12D-05  0.00D+00 EMaxC= 1.00D-01 BMatC= 8.82D-08 BMatP= 8.18D-07
 IDIUse=1 WtCom= 1.00D+00 WtEn= 0.00D+00
 Coeff-Com:  0.119D+00 0.881D+00
 Coeff:      0.119D+00 0.881D+00
 Gap=     0.287 Goal=   None    Shift=    0.000
 Gap=     0.287 Goal=   None    Shift=    0.000
 RMSDP=4.30D-06 MaxDP=7.17D-05 DE=-1.34D-07 OVMax= 1.62D-04

 Cycle  10  Pass 1  IDiag  1:
 E= -476.499301844249     Delta-E=        0.000000004283 Rises=F Damp=F
 DIIS: error= 2.56D-05 at cycle   3 NSaved=   3.
 NSaved= 3 IEnMin= 2 EnMin= -476.499301848532     IErMin= 2 ErrMin= 2.12D-05
 ErrMax= 2.56D-05  0.00D+00 EMaxC= 1.00D-01 BMatC= 1.06D-07 BMatP= 8.82D-08
 IDIUse=1 WtCom= 1.00D+00 WtEn= 0.00D+00
 Coeff-Com: -0.307D-01 0.530D+00 0.500D+00
 Coeff:     -0.307D-01 0.530D+00 0.500D+00
 Gap=     0.287 Goal=   None    Shift=    0.000
 Gap=     0.287 Goal=   None    Shift=    0.000
 RMSDP=2.36D-06 MaxDP=4.30D-05 DE= 4.28D-09 OVMax= 1.00D-04

 Cycle  11  Pass 1  IDiag  1:
 E= -476.499301873439     Delta-E=       -0.000000029190 Rises=F Damp=F
 DIIS: error= 2.34D-06 at cycle   4 NSaved=   4.
 NSaved= 4 IEnMin= 4 EnMin= -476.499301873439     IErMin= 4 ErrMin= 2.34D-06
 ErrMax= 2.34D-06  0.00D+00 EMaxC= 1.00D-01 BMatC= 1.69D-09 BMatP= 8.82D-08
 IDIUse=1 WtCom= 1.00D+00 WtEn= 0.00D+00
 Coeff-Com: -0.201D-01 0.140D+00 0.184D+00 0.696D+00
 Coeff:     -0.201D-01 0.140D+00 0.184D+00 0.696D+00
 Gap=     0.287 Goal=   None    Shift=    0.000
 Gap=     0.287 Goal=   None    Shift=    0.000
 RMSDP=3.81D-07 MaxDP=7.45D-06 DE=-2.92D-08 OVMax= 8.86D-06

 Cycle  12  Pass 1  IDiag  1:
 E= -476.499301873883     Delta-E=       -0.000000000444 Rises=F Damp=F
 DIIS: error= 6.45D-07 at cycle   5 NSaved=   5.
 NSaved= 5 IEnMin= 5 EnMin= -476.499301873883     IErMin= 5 ErrMin= 6.45D-07
 ErrMax= 6.45D-07  0.00D+00 EMaxC= 1.00D-01 BMatC= 6.40D-11 BMatP= 1.69D-09
 IDIUse=1 WtCom= 1.00D+00 WtEn= 0.00D+00
 Coeff-Com: -0.647D-03-0.161D-01-0.248D-02 0.142D+00 0.877D+00
 Coeff:     -0.647D-03-0.161D-01-0.248D-02 0.142D+00 0.877D+00
 Gap=     0.287 Goal=   None    Shift=    0.000
 Gap=     0.287 Goal=   None    Shift=    0.000
 RMSDP=1.03D-07 MaxDP=2.36D-06 DE=-4.44D-10 OVMax= 2.99D-06

 Cycle  13  Pass 1  IDiag  1:
 E= -476.499301873905     Delta-E=       -0.000000000022 Rises=F Damp=F
 DIIS: error= 1.81D-07 at cycle   6 NSaved=   6.
 NSaved= 6 IEnMin= 6 EnMin= -476.499301873905     IErMin= 6 ErrMin= 1.81D-07
 ErrMax= 1.81D-07  0.00D+00 EMaxC= 1.00D-01 BMatC= 1.26D-11 BMatP= 6.40D-11
 IDIUse=1 WtCom= 1.00D+00 WtEn= 0.00D+00
 Coeff-Com:  0.760D-03-0.152D-01-0.126D-01 0.500D-02 0.367D+00 0.655D+00
 Coeff:      0.760D-03-0.152D-01-0.126D-01 0.500D-02 0.367D+00 0.655D+00
 Gap=     0.287 Goal=   None    Shift=    0.000
 Gap=     0.287 Goal=   None    Shift=    0.000
 RMSDP=3.03D-08 MaxDP=4.47D-07 DE=-2.24D-11 OVMax= 4.98D-07

 Cycle  14  Pass 1  IDiag  1:
 E= -476.499301873908     Delta-E=       -0.000000000003 Rises=F Damp=F
 DIIS: error= 2.88D-08 at cycle   7 NSaved=   7.
 NSaved= 7 IEnMin= 7 EnMin= -476.499301873908     IErMin= 7 ErrMin= 2.88D-08
 ErrMax= 2.88D-08  0.00D+00 EMaxC= 1.00D-01 BMatC= 2.82D-13 BMatP= 1.26D-11
 IDIUse=1 WtCom= 1.00D+00 WtEn= 0.00D+00
 Coeff-Com:  0.194D-03-0.255D-03-0.134D-02-0.173D-01-0.215D-01 0.385D-01
 Coeff-Com:  0.100D+01
 Coeff:      0.194D-03-0.255D-03-0.134D-02-0.173D-01-0.215D-01 0.385D-01
 Coeff:      0.100D+01
 Gap=     0.287 Goal=   None    Shift=    0.000
 Gap=     0.287 Goal=   None    Shift=    0.000
 RMSDP=1.22D-08 MaxDP=9.81D-08 DE=-3.30D-12 OVMax= 2.18D-07

 Cycle  15  Pass 1  IDiag  1:
 E= -476.499301873908     Delta-E=        0.000000000000 Rises=F Damp=F
 DIIS: error= 5.80D-09 at cycle   8 NSaved=   8.
 NSaved= 8 IEnMin= 7 EnMin= -476.499301873908     IErMin= 8 ErrMin= 5.80D-09
 ErrMax= 5.80D-09  0.00D+00 EMaxC= 1.00D-01 BMatC= 1.89D-14 BMatP= 2.82D-13
 IDIUse=1 WtCom= 1.00D+00 WtEn= 0.00D+00
 Coeff-Com: -0.398D-04 0.620D-03 0.787D-03 0.329D-03-0.137D-01-0.379D-01
 Coeff-Com: -0.762D-01 0.113D+01
 Coeff:     -0.398D-04 0.620D-03 0.787D-03 0.329D-03-0.137D-01-0.379D-01
 Coeff:     -0.762D-01 0.113D+01
 Gap=     0.287 Goal=   None    Shift=    0.000
 Gap=     0.287 Goal=   None    Shift=    0.000
 RMSDP=3.90D-09 MaxDP=3.80D-08 DE= 0.00D+00 OVMax= 8.48D-08

 SCF Done:  E(UwB97XD) =  -476.499301874     A.U. after   15 cycles
            NFock= 15  Conv=0.39D-08     -V/T= 2.0040
 <Sx>= 0.0000 <Sy>= 0.0000 <Sz>= 0.0000 <S**2>=-0.0000 S=-0.0000
 <L.S>=  0.00000000000    
 KE= 4.746228943478D+02 PE=-1.327393468994D+03 EE= 2.759644604734D+02
 Annihilation of the first spin contaminant:
 S**2 before annihilation    -0.0000,   after    -0.0000
 Leave Link  502 at Tue Jan  3 09:05:58 2023, MaxMem=   536870912 cpu:              13.5 elap:               6.8
 (Enter /opt/software/gaussian/g16.c01/l508.exe)
 QCSCF skips out because SCF is already converged.
 Leave Link  508 at Tue Jan  3 09:05:58 2023, MaxMem=   536870912 cpu:               0.0 elap:               0.0
 (Enter /opt/software/gaussian/g16.c01/l601.exe)
 Copying SCF densities to generalized density rwf, IOpCl= 1 IROHF=0.

 **********************************************************************

            Population analysis using the SCF Density.

 **********************************************************************

 Alpha  occ. eigenvalues --  -89.07791 -10.30784 -10.30780  -8.12603  -6.07835
 Alpha  occ. eigenvalues --   -6.07678  -6.07373  -0.95152  -0.78778  -0.65695
 Alpha  occ. eigenvalues --   -0.55579  -0.54482  -0.48495  -0.44751  -0.41417
 Alpha  occ. eigenvalues --   -0.26855
 Alpha virt. eigenvalues --    0.01819   0.15592   0.15938   0.17104   0.21229
 Alpha virt. eigenvalues --    0.23282   0.29419   0.38492   0.47542   0.48833
 Alpha virt. eigenvalues --    0.55790   0.55952   0.58068   0.61805   0.62615
 Alpha virt. eigenvalues --    0.69235   0.71653   0.73235   0.73741   0.75672
 Alpha virt. eigenvalues --    0.77347   0.81940   0.85023   0.88199   0.99724
 Alpha virt. eigenvalues --    1.07831   1.18011   1.26152   1.27975   1.28090
 Alpha virt. eigenvalues --    1.63955   1.64099   1.65265   1.66008   1.76453
 Alpha virt. eigenvalues --    1.77255   2.06370   2.08084   2.11904   2.12062
 Alpha virt. eigenvalues --    2.13745   2.18887   2.31311   2.32002   2.46320
 Alpha virt. eigenvalues --    2.52000   2.91680   2.96922   2.99086   2.99832
  Beta  occ. eigenvalues --  -89.07791 -10.30784 -10.30780  -8.12603  -6.07835
  Beta  occ. eigenvalues --   -6.07678  -6.07373  -0.95152  -0.78778  -0.65695
  Beta  occ. eigenvalues --   -0.55579  -0.54482  -0.48495  -0.44751  -0.41417
  Beta  occ. eigenvalues --   -0.26855
  Beta virt. eigenvalues --    0.01819   0.15592   0.15938   0.17104   0.21229
  Beta virt. eigenvalues --    0.23282   0.29419   0.38492   0.47542   0.48833
  Beta virt. eigenvalues --    0.55790   0.55952   0.58068   0.61805   0.62615
  Beta virt. eigenvalues --    0.69235   0.71653   0.73235   0.73741   0.75672
  Beta virt. eigenvalues --    0.77347   0.81940   0.85023   0.88199   0.99724
  Beta virt. eigenvalues --    1.07831   1.18011   1.26152   1.27975   1.28090
  Beta virt. eigenvalues --    1.63955   1.64099   1.65265   1.66008   1.76453
  Beta virt. eigenvalues --    1.77255   2.06370   2.08084   2.11904   2.12062
  Beta virt. eigenvalues --    2.13745   2.18887   2.31311   2.32002   2.46320
  Beta virt. eigenvalues --    2.52000   2.91680   2.96922   2.99086   2.99832
          Condensed to atoms (all electrons):
               1          2          3          4          5          6
     1  C    5.127353   0.432146  -0.070596   0.411988   0.407523  -0.004491
     2  S    0.432146  15.019664   0.432159  -0.031587  -0.023504  -0.023504
     3  C   -0.070596   0.432159   5.127325   0.003164  -0.004490   0.407521
     4  H    0.411988  -0.031587   0.003164   0.536762  -0.019407   0.000065
     5  H    0.407523  -0.023504  -0.004490  -0.019407   0.541646   0.003374
     6  H   -0.004491  -0.023504   0.407521   0.000065   0.003374   0.541646
     7  H    0.003164  -0.031588   0.411989  -0.000163   0.000065  -0.019407
               7
     1  C    0.003164
     2  S   -0.031588
     3  C    0.411989
     4  H   -0.000163
     5  H    0.000065
     6  H   -0.019407
     7  H    0.536759
          Atomic-Atomic Spin Densities.
               1          2          3          4          5          6
     1  C    0.000000   0.000000   0.000000   0.000000   0.000000   0.000000
     2  S    0.000000   0.000000   0.000000   0.000000   0.000000   0.000000
     3  C    0.000000   0.000000   0.000000   0.000000   0.000000   0.000000
     4  H    0.000000   0.000000   0.000000   0.000000   0.000000   0.000000
     5  H    0.000000   0.000000   0.000000   0.000000   0.000000   0.000000
     6  H    0.000000   0.000000   0.000000   0.000000   0.000000   0.000000
     7  H    0.000000   0.000000   0.000000   0.000000   0.000000   0.000000
               7
     1  C    0.000000
     2  S    0.000000
     3  C    0.000000
     4  H    0.000000
     5  H    0.000000
     6  H    0.000000
     7  H    0.000000
 Mulliken charges and spin densities:
               1          2
     1  C   -0.307086   0.000000
     2  S    0.226213   0.000000
     3  C   -0.307073   0.000000
     4  H    0.099177   0.000000
     5  H    0.094794   0.000000
     6  H    0.094796   0.000000
     7  H    0.099180   0.000000
 Sum of Mulliken charges =  -0.00000   0.00000
 Mulliken charges and spin densities with hydrogens summed into heavy atoms:
               1          2
     1  C   -0.113115   0.000000
     2  S    0.226213   0.000000
     3  C   -0.113097   0.000000
 Electronic spatial extent (au):  <R**2>=            870.1341
 Charge=             -0.0000 electrons
 Dipole moment (field-independent basis, Debye):
    X=             -0.0653    Y=              0.0333    Z=             -0.0873  Tot=              0.1140
 Quadrupole moment (field-independent basis, Debye-Ang):
   XX=            -24.7674   YY=            -27.9195   ZZ=            -25.0411
   XY=              0.3172   XZ=             -0.0737   YZ=             -1.5448
 Traceless Quadrupole moment (field-independent basis, Debye-Ang):
   XX=              1.1420   YY=             -2.0102   ZZ=              0.8682
   XY=              0.3172   XZ=             -0.0737   YZ=             -1.5448
 Octapole moment (field-independent basis, Debye-Ang**2):
  XXX=           -169.8511  YYY=            -21.1977  ZZZ=             26.5916  XYY=            -64.5622
  XXY=             -4.0879  XXZ=              7.7140  XZZ=            -60.9631  YZZ=             -4.2033
  YYZ=              9.8097  XYZ=             -2.3335
 Hexadecapole moment (field-independent basis, Debye-Ang**3):
 XXXX=           -932.2593 YYYY=            -64.1394 ZZZZ=           -117.8649 XXXY=            -46.8974
 XXXZ=             79.2808 YYYX=            -69.3215 YYYZ=             26.5563 ZZZX=             92.1014
 ZZZY=             17.4861 XXYY=           -189.4874 XXZZ=           -193.2242 YYZZ=            -29.1566
 XXYZ=              1.3663 YYXZ=             33.0286 ZZXY=            -14.2097
 N-N= 1.003068122987D+02 E-N=-1.327393468746D+03  KE= 4.746228943478D+02
                          Isotropic Fermi Contact Couplings
        Atom                 a.u.       MegaHertz       Gauss      10(-4) cm-1
     1  C(13)              0.00000       0.00000       0.00000       0.00000
     2  S(33)              0.00000       0.00000       0.00000       0.00000
     3  C(13)              0.00000       0.00000       0.00000       0.00000
     4  H(1)               0.00000       0.00000       0.00000       0.00000
     5  H(1)               0.00000       0.00000       0.00000       0.00000
     6  H(1)               0.00000       0.00000       0.00000       0.00000
     7  H(1)               0.00000       0.00000       0.00000       0.00000
 --------------------------------------------------------
       Center         ----  Spin Dipole Couplings  ----
                      3XX-RR        3YY-RR        3ZZ-RR
 --------------------------------------------------------
     1   Atom        0.000000      0.000000      0.000000
     2   Atom        0.000000      0.000000      0.000000
     3   Atom        0.000000      0.000000      0.000000
     4   Atom        0.000000      0.000000      0.000000
     5   Atom        0.000000      0.000000      0.000000
     6   Atom        0.000000      0.000000      0.000000
     7   Atom        0.000000      0.000000      0.000000
 --------------------------------------------------------
                        XY            XZ            YZ
 --------------------------------------------------------
     1   Atom        0.000000      0.000000      0.000000
     2   Atom        0.000000      0.000000      0.000000
     3   Atom        0.000000      0.000000      0.000000
     4   Atom        0.000000      0.000000      0.000000
     5   Atom        0.000000      0.000000      0.000000
     6   Atom        0.000000      0.000000      0.000000
     7   Atom        0.000000      0.000000      0.000000
 --------------------------------------------------------


 ---------------------------------------------------------------------------------
              Anisotropic Spin Dipole Couplings in Principal Axis System
 ---------------------------------------------------------------------------------

       Atom             a.u.   MegaHertz   Gauss  10(-4) cm-1        Axes

              Baa     0.0000     0.000     0.000     0.000  1.0000  0.0000  0.0000
     1 C(13)  Bbb     0.0000     0.000     0.000     0.000 -0.0000  1.0000  0.0000
              Bcc     0.0000     0.000     0.000     0.000  0.0000  0.0000  1.0000
 
              Baa     0.0000     0.000     0.000     0.000  1.0000  0.0000  0.0000
     2 S(33)  Bbb     0.0000     0.000     0.000     0.000 -0.0000  1.0000  0.0000
              Bcc     0.0000     0.000     0.000     0.000  0.0000  0.0000  1.0000
 
              Baa     0.0000     0.000     0.000     0.000  1.0000  0.0000  0.0000
     3 C(13)  Bbb     0.0000     0.000     0.000     0.000 -0.0000  1.0000  0.0000
              Bcc     0.0000     0.000     0.000     0.000  0.0000  0.0000  1.0000
 
              Baa     0.0000     0.000     0.000     0.000  1.0000  0.0000  0.0000
     4 H(1)   Bbb     0.0000     0.000     0.000     0.000 -0.0000  1.0000  0.0000
              Bcc     0.0000     0.000     0.000     0.000  0.0000  0.0000  1.0000
 
              Baa     0.0000     0.000     0.000     0.000  1.0000  0.0000  0.0000
     5 H(1)   Bbb     0.0000     0.000     0.000     0.000 -0.0000  1.0000  0.0000
              Bcc     0.0000     0.000     0.000     0.000  0.0000  0.0000  1.0000
 
              Baa     0.0000     0.000     0.000     0.000  1.0000  0.0000  0.0000
     6 H(1)   Bbb     0.0000     0.000     0.000     0.000 -0.0000  1.0000  0.0000
              Bcc     0.0000     0.000     0.000     0.000  0.0000  0.0000  1.0000
 
              Baa     0.0000     0.000     0.000     0.000  1.0000  0.0000  0.0000
     7 H(1)   Bbb     0.0000     0.000     0.000     0.000 -0.0000  1.0000  0.0000
              Bcc     0.0000     0.000     0.000     0.000  0.0000  0.0000  1.0000
 

 ---------------------------------------------------------------------------------

 No NMR shielding tensors so no spin-rotation constants.
 Leave Link  601 at Tue Jan  3 09:05:58 2023, MaxMem=   536870912 cpu:               0.3 elap:               0.1
 (Enter /opt/software/gaussian/g16.c01/l801.exe)
 DoSCS=F DFT=T ScalE2(SS,OS)=  1.000000  1.000000
 Range of M.O.s used for correlation:     1    66
 NBasis=    66 NAE=    16 NBE=    16 NFC=     0 NFV=     0
 NROrb=     66 NOA=    16 NOB=    16 NVA=    50 NVB=    50
 Leave Link  801 at Tue Jan  3 09:05:58 2023, MaxMem=   536870912 cpu:               0.1 elap:               0.0
 (Enter /opt/software/gaussian/g16.c01/l914.exe)
 UHF ground state
 Doing stability rather than CIS.
 Keep R1 and R2 ints in memory in canonical form, NReq=12421959.
 FoFCou: FMM=F IPFlag=           0 FMFlag=           0 FMFlg1=           0
         NFxFlg=           0 DoJE=F BraDBF=F KetDBF=F FulRan=T
         wScrn=  0.000000 ICntrl=       600 IOpCl=  0 I1Cent=           0 NGrid=           0
         NMat0=    1 NMatS0=   2211 NMatT0=    0 NMatD0=    1 NMtDS0=    0 NMtDT0=    0
 Symmetry not used in FoFCou.
 Two-electron integral symmetry not used.
 MDV=   536870912 DFT=T DoStab=T Mixed=T DoRPA=F DoScal=F NonHer=F
 Making orbital integer symmetry assigments:
    12 initial guesses have been made.
 Convergence on wavefunction:    0.001000000000000
 Davidson Disk Diagonalization:  ConvIn= 1.00D-03 SkipCon=T Conv= 1.00D-03.
 Max sub-space:  2000 roots to seek:    12 dimension of matrix:         1600
 Iteration     1 Dimension    12 NMult     0 NNew     12
 CISAX will form    12 AO SS matrices at one time.
 NMat=    12 NSing=    12 JSym2X= 0.
 New state      1 was old state      2
 Excitation Energies [eV] at current iteration:
 Root      1 :     0.372317695321219
 Root      2 :     5.393039667001859
 Root      3 :     5.518409683515345
 Root      4 :     6.249302696931469
 Root      5 :     6.400841175088228
 Root      6 :     6.816647562963253
 Root      7 :     6.829834266258651
 Root      8 :     6.931006213060727
 Root      9 :     7.429505506707150
 Root     10 :     7.725329200063990
 Root     11 :    11.001472734927344
 Root     12 :    12.765400675554025
 Iteration     2 Dimension    24 NMult    12 NNew     12
 CISAX will form    12 AO SS matrices at one time.
 NMat=    12 NSing=    12 JSym2X= 0.
 Root      1 not converged, maximum delta is    0.061564298794371
 Excitation Energies [eV] at current iteration:
 Root      1 :     0.055603872761430   Change is   -0.316713822559789
 Root      2 :     5.075881836151952   Change is   -0.317157830849907
 Root      3 :     5.228957988765256   Change is   -0.289451694750089
 Root      4 :     5.923347469887873   Change is   -0.477493705200355
 Root      5 :     6.025917781070731   Change is   -4.975554953856612
 Root      6 :     6.041932604452510   Change is   -0.207370092478958
 Root      7 :     6.432538822159603   Change is   -0.397295444099048
 Root      8 :     6.562494742578127   Change is   -0.254152820385127
 Root      9 :     6.751488821765140   Change is   -0.179517391295588
 Root     10 :     7.201810709138548   Change is   -0.227694797568602
 Root     11 :     7.364910265907294   Change is   -0.360418934156695
 Root     12 :     9.340550844277901   Change is   -3.424849831276124
 Iteration     3 Dimension    27 NMult    24 NNew      3
 CISAX will form     3 AO SS matrices at one time.
 NMat=     3 NSing=     3 JSym2X= 0.
 Root      1 not converged, maximum delta is    0.003946689089867
 Excitation Energies [eV] at current iteration:
 Root      1 :     0.049032460591483   Change is   -0.006571412169947
 Root      2 :     5.063624703033377   Change is   -0.012257133118575
 Root      3 :     5.217394914427318   Change is   -0.011563074337938
 Iteration     4 Dimension    30 NMult    27 NNew      3
 CISAX will form     3 AO SS matrices at one time.
 NMat=     3 NSing=     3 JSym2X= 0.
 Root      1 has converged.
 Excitation Energies [eV] at current iteration:
 Root      1 :     0.048830799163673   Change is   -0.000201661427810
 Root      2 :     5.062672858369553   Change is   -0.000951844663824
 Root      3 :     5.216187046879223   Change is   -0.001207867548095
 Convergence achieved on expansion vectors.
 ***********************************************************************
 Stability analysis using <AA,BB:AA,BB> singles matrix:
 ***********************************************************************
 1PDM for each excited state written to RWF  633
 Ground to excited state transition densities written to RWF  633

 Eigenvectors of the stability matrix:
 
 Excited state symmetry could not be determined.
 Eigenvector   1:  3.000-?Sym  Eigenvalue= 0.0017945  <S**2>=2.000
     16A -> 17A        0.70051
     16B -> 17B       -0.70051
 The wavefunction is stable under the perturbations considered.
 Leave Link  914 at Tue Jan  3 09:06:14 2023, MaxMem=   536870912 cpu:              31.3 elap:              15.7
 (Enter /opt/software/gaussian/g16.c01/l508.exe)
 The wavefunction is already stable.
 Leave Link  508 at Tue Jan  3 09:06:14 2023, MaxMem=   536870912 cpu:               0.0 elap:               0.0
 (Enter /opt/software/gaussian/g16.c01/l601.exe)
 Copying SCF densities to generalized density rwf, IOpCl= 1 IROHF=0.

 **********************************************************************

            Population analysis using the SCF Density.

 **********************************************************************

 Alpha  occ. eigenvalues --  -89.07791 -10.30784 -10.30780  -8.12603  -6.07835
 Alpha  occ. eigenvalues --   -6.07678  -6.07373  -0.95152  -0.78778  -0.65695
 Alpha  occ. eigenvalues --   -0.55579  -0.54482  -0.48495  -0.44751  -0.41417
 Alpha  occ. eigenvalues --   -0.26855
 Alpha virt. eigenvalues --    0.01819   0.15592   0.15938   0.17104   0.21229
 Alpha virt. eigenvalues --    0.23282   0.29419   0.38492   0.47542   0.48833
 Alpha virt. eigenvalues --    0.55790   0.55952   0.58068   0.61805   0.62615
 Alpha virt. eigenvalues --    0.69235   0.71653   0.73235   0.73741   0.75672
 Alpha virt. eigenvalues --    0.77347   0.81940   0.85023   0.88199   0.99724
 Alpha virt. eigenvalues --    1.07831   1.18011   1.26152   1.27975   1.28090
 Alpha virt. eigenvalues --    1.63955   1.64099   1.65265   1.66008   1.76453
 Alpha virt. eigenvalues --    1.77255   2.06370   2.08084   2.11904   2.12062
 Alpha virt. eigenvalues --    2.13745   2.18887   2.31311   2.32002   2.46320
 Alpha virt. eigenvalues --    2.52000   2.91680   2.96922   2.99086   2.99832
  Beta  occ. eigenvalues --  -89.07791 -10.30784 -10.30780  -8.12603  -6.07835
  Beta  occ. eigenvalues --   -6.07678  -6.07373  -0.95152  -0.78778  -0.65695
  Beta  occ. eigenvalues --   -0.55579  -0.54482  -0.48495  -0.44751  -0.41417
  Beta  occ. eigenvalues --   -0.26855
  Beta virt. eigenvalues --    0.01819   0.15592   0.15938   0.17104   0.21229
  Beta virt. eigenvalues --    0.23282   0.29419   0.38492   0.47542   0.48833
  Beta virt. eigenvalues --    0.55790   0.55952   0.58068   0.61805   0.62615
  Beta virt. eigenvalues --    0.69235   0.71653   0.73235   0.73741   0.75672
  Beta virt. eigenvalues --    0.77347   0.81940   0.85023   0.88199   0.99724
  Beta virt. eigenvalues --    1.07831   1.18011   1.26152   1.27975   1.28090
  Beta virt. eigenvalues --    1.63955   1.64099   1.65265   1.66008   1.76453
  Beta virt. eigenvalues --    1.77255   2.06370   2.08084   2.11904   2.12062
  Beta virt. eigenvalues --    2.13745   2.18887   2.31311   2.32002   2.46320
  Beta virt. eigenvalues --    2.52000   2.91680   2.96922   2.99086   2.99832
          Condensed to atoms (all electrons):
               1          2          3          4          5          6
     1  C    5.127353   0.432146  -0.070596   0.411988   0.407523  -0.004491
     2  S    0.432146  15.019664   0.432159  -0.031587  -0.023504  -0.023504
     3  C   -0.070596   0.432159   5.127325   0.003164  -0.004490   0.407521
     4  H    0.411988  -0.031587   0.003164   0.536762  -0.019407   0.000065
     5  H    0.407523  -0.023504  -0.004490  -0.019407   0.541646   0.003374
     6  H   -0.004491  -0.023504   0.407521   0.000065   0.003374   0.541646
     7  H    0.003164  -0.031588   0.411989  -0.000163   0.000065  -0.019407
               7
     1  C    0.003164
     2  S   -0.031588
     3  C    0.411989
     4  H   -0.000163
     5  H    0.000065
     6  H   -0.019407
     7  H    0.536759
          Atomic-Atomic Spin Densities.
               1          2          3          4          5          6
     1  C    0.000000   0.000000   0.000000   0.000000   0.000000   0.000000
     2  S    0.000000   0.000000   0.000000   0.000000   0.000000   0.000000
     3  C    0.000000   0.000000   0.000000   0.000000   0.000000   0.000000
     4  H    0.000000   0.000000   0.000000   0.000000   0.000000   0.000000
     5  H    0.000000   0.000000   0.000000   0.000000   0.000000   0.000000
     6  H    0.000000   0.000000   0.000000   0.000000   0.000000   0.000000
     7  H    0.000000   0.000000   0.000000   0.000000   0.000000   0.000000
               7
     1  C    0.000000
     2  S    0.000000
     3  C    0.000000
     4  H    0.000000
     5  H    0.000000
     6  H    0.000000
     7  H    0.000000
 Mulliken charges and spin densities:
               1          2
     1  C   -0.307086   0.000000
     2  S    0.226213   0.000000
     3  C   -0.307073   0.000000
     4  H    0.099177   0.000000
     5  H    0.094794   0.000000
     6  H    0.094796   0.000000
     7  H    0.099180   0.000000
 Sum of Mulliken charges =  -0.00000   0.00000
 Mulliken charges and spin densities with hydrogens summed into heavy atoms:
               1          2
     1  C   -0.113115   0.000000
     2  S    0.226213   0.000000
     3  C   -0.113097   0.000000
 Electronic spatial extent (au):  <R**2>=            870.1341
 Charge=             -0.0000 electrons
 Dipole moment (field-independent basis, Debye):
    X=             -0.0653    Y=              0.0333    Z=             -0.0873  Tot=              0.1140
 Quadrupole moment (field-independent basis, Debye-Ang):
   XX=            -24.7674   YY=            -27.9195   ZZ=            -25.0411
   XY=              0.3172   XZ=             -0.0737   YZ=             -1.5448
 Traceless Quadrupole moment (field-independent basis, Debye-Ang):
   XX=              1.1420   YY=             -2.0102   ZZ=              0.8682
   XY=              0.3172   XZ=             -0.0737   YZ=             -1.5448
 Octapole moment (field-independent basis, Debye-Ang**2):
  XXX=           -169.8511  YYY=            -21.1977  ZZZ=             26.5916  XYY=            -64.5622
  XXY=             -4.0879  XXZ=              7.7140  XZZ=            -60.9631  YZZ=             -4.2033
  YYZ=              9.8097  XYZ=             -2.3335
 Hexadecapole moment (field-independent basis, Debye-Ang**3):
 XXXX=           -932.2593 YYYY=            -64.1394 ZZZZ=           -117.8649 XXXY=            -46.8974
 XXXZ=             79.2808 YYYX=            -69.3215 YYYZ=             26.5563 ZZZX=             92.1014
 ZZZY=             17.4861 XXYY=           -189.4874 XXZZ=           -193.2242 YYZZ=            -29.1566
 XXYZ=              1.3663 YYXZ=             33.0286 ZZXY=            -14.2097
 N-N= 1.003068122987D+02 E-N=-1.327393468746D+03  KE= 4.746228943478D+02
                          Isotropic Fermi Contact Couplings
        Atom                 a.u.       MegaHertz       Gauss      10(-4) cm-1
     1  C(13)              0.00000       0.00000       0.00000       0.00000
     2  S(33)              0.00000       0.00000       0.00000       0.00000
     3  C(13)              0.00000       0.00000       0.00000       0.00000
     4  H(1)               0.00000       0.00000       0.00000       0.00000
     5  H(1)               0.00000       0.00000       0.00000       0.00000
     6  H(1)               0.00000       0.00000       0.00000       0.00000
     7  H(1)               0.00000       0.00000       0.00000       0.00000
 --------------------------------------------------------
       Center         ----  Spin Dipole Couplings  ----
                      3XX-RR        3YY-RR        3ZZ-RR
 --------------------------------------------------------
     1   Atom        0.000000      0.000000      0.000000
     2   Atom        0.000000      0.000000      0.000000
     3   Atom        0.000000      0.000000      0.000000
     4   Atom        0.000000      0.000000      0.000000
     5   Atom        0.000000      0.000000      0.000000
     6   Atom        0.000000      0.000000      0.000000
     7   Atom        0.000000      0.000000      0.000000
 --------------------------------------------------------
                        XY            XZ            YZ
 --------------------------------------------------------
     1   Atom        0.000000      0.000000      0.000000
     2   Atom        0.000000      0.000000      0.000000
     3   Atom        0.000000      0.000000      0.000000
     4   Atom        0.000000      0.000000      0.000000
     5   Atom        0.000000      0.000000      0.000000
     6   Atom        0.000000      0.000000      0.000000
     7   Atom        0.000000      0.000000      0.000000
 --------------------------------------------------------


 ---------------------------------------------------------------------------------
              Anisotropic Spin Dipole Couplings in Principal Axis System
 ---------------------------------------------------------------------------------

       Atom             a.u.   MegaHertz   Gauss  10(-4) cm-1        Axes

              Baa     0.0000     0.000     0.000     0.000  1.0000  0.0000  0.0000
     1 C(13)  Bbb     0.0000     0.000     0.000     0.000 -0.0000  1.0000  0.0000
              Bcc     0.0000     0.000     0.000     0.000  0.0000  0.0000  1.0000
 
              Baa     0.0000     0.000     0.000     0.000  1.0000  0.0000  0.0000
     2 S(33)  Bbb     0.0000     0.000     0.000     0.000 -0.0000  1.0000  0.0000
              Bcc     0.0000     0.000     0.000     0.000  0.0000  0.0000  1.0000
 
              Baa     0.0000     0.000     0.000     0.000  1.0000  0.0000  0.0000
     3 C(13)  Bbb     0.0000     0.000     0.000     0.000 -0.0000  1.0000  0.0000
              Bcc     0.0000     0.000     0.000     0.000  0.0000  0.0000  1.0000
 
              Baa     0.0000     0.000     0.000     0.000  1.0000  0.0000  0.0000
     4 H(1)   Bbb     0.0000     0.000     0.000     0.000 -0.0000  1.0000  0.0000
              Bcc     0.0000     0.000     0.000     0.000  0.0000  0.0000  1.0000
 
              Baa     0.0000     0.000     0.000     0.000  1.0000  0.0000  0.0000
     5 H(1)   Bbb     0.0000     0.000     0.000     0.000 -0.0000  1.0000  0.0000
              Bcc     0.0000     0.000     0.000     0.000  0.0000  0.0000  1.0000
 
              Baa     0.0000     0.000     0.000     0.000  1.0000  0.0000  0.0000
     6 H(1)   Bbb     0.0000     0.000     0.000     0.000 -0.0000  1.0000  0.0000
              Bcc     0.0000     0.000     0.000     0.000  0.0000  0.0000  1.0000
 
              Baa     0.0000     0.000     0.000     0.000  1.0000  0.0000  0.0000
     7 H(1)   Bbb     0.0000     0.000     0.000     0.000 -0.0000  1.0000  0.0000
              Bcc     0.0000     0.000     0.000     0.000  0.0000  0.0000  1.0000
 

 ---------------------------------------------------------------------------------

 No NMR shielding tensors so no spin-rotation constants.
 Leave Link  601 at Tue Jan  3 09:06:14 2023, MaxMem=   536870912 cpu:               0.3 elap:               0.1
 (Enter /opt/software/gaussian/g16.c01/l9999.exe)

 Test job not archived.
 1\1\GINC-GRA1083\Stability\UwB97XD\Gen\C2H4S1\BHAVUK\03-Jan-2023\0\\#p
  uwb97xd/gen stable=opt scf=(maxcycle=900,verytightlineq,xqc) integral
 =grid=ultrafine symmetry=None density=current iop(99/18=-1) output=wfn
 \\0003_q000_m01_k00_opt_uwb97xd_def2svpd/0003_q000_m01_k00_force_uwb97
 xd_def2svp stable-force\\0,1\C,0,0.9838325225,-0.0325586033,0.04885801
 78\S,0,2.6071301422,0.0991997065,0.0187984451\C,0,3.2273228911,0.73619
 7977,-1.3460048506\H,0,0.570421034,-0.4575297175,0.9597448627\H,0,0.34
 38072589,0.2782232167,-0.7754915598\H,0,2.615218944,1.0564841772,-2.18
 77415072\H,0,4.3104572053,0.8236432464,-1.365823405\\Version=ES64L-G16
 RevC.01\HF=-476.4993019\S2=0.\S2-1=0.\S2A=0.\RMSD=3.898e-09\Dipole=-0.
 025703,0.0130955,-0.0343372\Quadrupole=0.849031,-1.4945003,0.6454693,0
 .2358484,-0.0547975,-1.1485171\PG=Unknown\\@

 Writing a WFN file to "0003_q000_m01_k00_force_uwb97xd_def2svp.wfn"


 IT PROBABLY IS NOT POSSIBLE FOR A SCIENTIST TO INTERROGATE NATURE 
 FROM A WHOLLY DISINTERESTED VIEWPOINT.
 EVEN IF HE HAS NO PARTICULAR AXE TO GRIND, HE IS LIKELY TO HAVE 
 A DISTINCTIVE WAY OF VIEWING NATURE.

                                                   -- JOHN LOSEE
 Job cpu time:       0 days  0 hours  0 minutes 48.2 seconds.
 Elapsed time:       0 days  0 hours  0 minutes 24.1 seconds.
 File lengths (MBytes):  RWF=     59 Int=      0 D2E=      0 Chk=      2 Scr=      1
 Normal termination of Gaussian 16 at Tue Jan  3 09:06:14 2023.
 Initial command:
 /opt/software/gaussian/g16.c01/l1.exe "/localscratch/bhavuk.2151387.0/Gau-30972.inp" -scrdir="/localscratch/bhavuk.2151387.0/"
 Entering Link 1 = /opt/software/gaussian/g16.c01/l1.exe PID=     31689.
  
 Copyright (c) 1988-2019, Gaussian, Inc.  All Rights Reserved.
  
 This is part of the Gaussian(R) 16 program.  It is based on
 the Gaussian(R) 09 system (copyright 2009, Gaussian, Inc.),
 the Gaussian(R) 03 system (copyright 2003, Gaussian, Inc.),
 the Gaussian(R) 98 system (copyright 1998, Gaussian, Inc.),
 the Gaussian(R) 94 system (copyright 1995, Gaussian, Inc.),
 the Gaussian 92(TM) system (copyright 1992, Gaussian, Inc.),
 the Gaussian 90(TM) system (copyright 1990, Gaussian, Inc.),
 the Gaussian 88(TM) system (copyright 1988, Gaussian, Inc.),
 the Gaussian 86(TM) system (copyright 1986, Carnegie Mellon
 University), and the Gaussian 82(TM) system (copyright 1983,
 Carnegie Mellon University). Gaussian is a federally registered
 trademark of Gaussian, Inc.
  
 This software contains proprietary and confidential information,
 including trade secrets, belonging to Gaussian, Inc.
  
 This software is provided under written license and may be
 used, copied, transmitted, or stored only in accord with that
 written license.
  
 The following legend is applicable only to US Government
 contracts under FAR:
  
                    RESTRICTED RIGHTS LEGEND
  
 Use, reproduction and disclosure by the US Government is
 subject to restrictions as set forth in subparagraphs (a)
 and (c) of the Commercial Computer Software - Restricted
 Rights clause in FAR 52.227-19.
  
 Gaussian, Inc.
 340 Quinnipiac St., Bldg. 40, Wallingford CT 06492
  
  
 ---------------------------------------------------------------
 Warning -- This program may not be used in any manner that
 competes with the business of Gaussian, Inc. or will provide
 assistance to any competitor of Gaussian, Inc.  The licensee
 of this program is prohibited from giving any competitor of
 Gaussian, Inc. access to this program.  By using this program,
 the user acknowledges that Gaussian, Inc. is engaged in the
 business of creating and licensing software in the field of
 computational chemistry and represents and warrants to the
 licensee that it is not a competitor of Gaussian, Inc. and that
 it will not use this program in any manner prohibited above.
 ---------------------------------------------------------------
  

 Cite this work as:
 Gaussian 16, Revision C.01,
 M. J. Frisch, G. W. Trucks, H. B. Schlegel, G. E. Scuseria, 
 M. A. Robb, J. R. Cheeseman, G. Scalmani, V. Barone, 
 G. A. Petersson, H. Nakatsuji, X. Li, M. Caricato, A. V. Marenich, 
 J. Bloino, B. G. Janesko, R. Gomperts, B. Mennucci, H. P. Hratchian, 
 J. V. Ortiz, A. F. Izmaylov, J. L. Sonnenberg, D. Williams-Young, 
 F. Ding, F. Lipparini, F. Egidi, J. Goings, B. Peng, A. Petrone, 
 T. Henderson, D. Ranasinghe, V. G. Zakrzewski, J. Gao, N. Rega, 
 G. Zheng, W. Liang, M. Hada, M. Ehara, K. Toyota, R. Fukuda, 
 J. Hasegawa, M. Ishida, T. Nakajima, Y. Honda, O. Kitao, H. Nakai, 
 T. Vreven, K. Throssell, J. A. Montgomery, Jr., J. E. Peralta, 
 F. Ogliaro, M. J. Bearpark, J. J. Heyd, E. N. Brothers, K. N. Kudin, 
 V. N. Staroverov, T. A. Keith, R. Kobayashi, J. Normand, 
 K. Raghavachari, A. P. Rendell, J. C. Burant, S. S. Iyengar, 
 J. Tomasi, M. Cossi, J. M. Millam, M. Klene, C. Adamo, R. Cammi, 
 J. W. Ochterski, R. L. Martin, K. Morokuma, O. Farkas, 
 J. B. Foresman, and D. J. Fox, Gaussian, Inc., Wallingford CT, 2019.
 
 ******************************************
 Gaussian 16:  ES64L-G16RevC.01  3-Jul-2019
                 3-Jan-2023 
 ******************************************
 %chk=0003_q000_m01_k00_force_uwb97xd_def2svp.chk
 %nprocshared=2
 Will use up to    2 processors via shared memory.
 %mem=4GB
 ----------------------------------------------------------------------
 #p uwb97xd/chkbasis force guess=read geom=check scf=(maxcycle=900,very
 tightlineq,xqc) integral=grid=ultrafine symmetry=None density=current 
 pop=(cm5,hlygat,mbs,npa) output=wfx
 ----------------------------------------------------------------------
 1/10=7,29=2,30=1,38=1/1,3;
 2/12=2,15=3,40=1/2;
 3/5=7,6=2,11=2,14=-4,25=1,30=1,67=1,71=1,74=-58,75=-5,116=2/1,2,3;
 4/5=1/1;
 5/5=2,7=900,8=3,13=1,17=3,38=6/2,8;
 6/7=2,8=2,9=2,10=2,15=8,20=15,22=-1,27=100,28=1,40=-1,79=1/1,2,7;
 7/29=1,30=1/1,2,3,16;
 1/10=7,30=1/3;
 99/6=200/99;
 Leave Link    1 at Tue Jan  3 09:06:14 2023, MaxMem=   536870912 cpu:               0.2 elap:               0.1
 (Enter /opt/software/gaussian/g16.c01/l101.exe)
 ----------------------------------------------------------------------
 0003_q000_m01_k00_opt_uwb97xd_def2svpd/0003_q000_m01_k00_force_uwb97xd
 _def2svp stable-force
 ----------------------------------------------------------------------
 Structure from the checkpoint file:  "0003_q000_m01_k00_force_uwb97xd_def2svp.chk"
 Charge =  0 Multiplicity = 1
 Z-Matrix found in chk file.
 C,0,0.9838325225,-0.0325586033,0.0488580178
 S,0,2.6071301422,0.0991997065,0.0187984451
 C,0,3.2273228911,0.736197977,-1.3460048506
 H,0,0.570421034,-0.4575297175,0.9597448627
 H,0,0.3438072589,0.2782232167,-0.7754915598
 H,0,2.615218944,1.0564841772,-2.1877415072
 H,0,4.3104572053,0.8236432464,-1.365823405
 Recover connectivity data from disk.
 ITRead=  0  0  0  0  0  0  0
 MicOpt= -1 -1 -1 -1 -1 -1 -1
 NAtoms=      7 NQM=        7 NQMF=       0 NMMI=      0 NMMIF=      0
                NMic=       0 NMicF=      0.
                    Isotopes and Nuclear Properties:
 (Nuclear quadrupole moments (NQMom) in fm**2, nuclear magnetic moments (NMagM)
  in nuclear magnetons)

  Atom         1           2           3           4           5           6           7
 IAtWgt=          12          32          12           1           1           1           1
 AtmWgt=  12.0000000  31.9720718  12.0000000   1.0078250   1.0078250   1.0078250   1.0078250
 NucSpn=           0           0           0           1           1           1           1
 AtZEff=   3.6000000  13.6000000   3.6000000   1.0000000   1.0000000   1.0000000   1.0000000
 NQMom=    0.0000000   0.0000000   0.0000000   0.0000000   0.0000000   0.0000000   0.0000000
 NMagM=    0.0000000   0.0000000   0.0000000   2.7928460   2.7928460   2.7928460   2.7928460
 AtZNuc=   6.0000000  16.0000000   6.0000000   1.0000000   1.0000000   1.0000000   1.0000000
 Leave Link  101 at Tue Jan  3 09:06:15 2023, MaxMem=   536870912 cpu:               0.4 elap:               0.2
 (Enter /opt/software/gaussian/g16.c01/l103.exe)

 GradGradGradGradGradGradGradGradGradGradGradGradGradGradGradGradGradGrad
 Berny optimization.
 Initialization pass.
 Trust Radius=3.00D-01 FncErr=1.00D-07 GrdErr=1.00D-07 EigMax=2.50D+02 EigMin=1.00D-04
 Number of steps in this run=      2 maximum allowed number of steps=      2.
 GradGradGradGradGradGradGradGradGradGradGradGradGradGradGradGradGradGrad

 Leave Link  103 at Tue Jan  3 09:06:15 2023, MaxMem=   536870912 cpu:               0.1 elap:               0.0
 (Enter /opt/software/gaussian/g16.c01/l202.exe)
                          Input orientation:                          
 ---------------------------------------------------------------------
 Center     Atomic      Atomic             Coordinates (Angstroms)
 Number     Number       Type             X           Y           Z
 ---------------------------------------------------------------------
      1          6           0        0.983833   -0.032559    0.048858
      2         16           0        2.607130    0.099200    0.018798
      3          6           0        3.227323    0.736198   -1.346005
      4          1           0        0.570421   -0.457530    0.959745
      5          1           0        0.343807    0.278223   -0.775492
      6          1           0        2.615219    1.056484   -2.187742
      7          1           0        4.310457    0.823643   -1.365823
 ---------------------------------------------------------------------
                    Distance matrix (angstroms):
                    1          2          3          4          5
     1  C    0.000000
     2  S    1.628913   0.000000
     3  C    2.751341   1.628832   0.000000
     4  H    1.086841   2.311604   3.714915   0.000000
     5  H    1.088931   2.405323   2.974876   1.898350   0.000000
     6  H    2.974864   2.405260   1.088933   4.047234   2.785579
     7  H    3.714948   2.311562   1.086839   4.586670   4.047257
                    6          7
     6  H    0.000000
     7  H    1.898314   0.000000
 Symmetry turned off by external request.
 Stoichiometry    C2H4S
 Rotational constants (GHZ):          32.8865896           8.4327606           6.7117401
 Leave Link  202 at Tue Jan  3 09:06:15 2023, MaxMem=   536870912 cpu:               0.0 elap:               0.0
 (Enter /opt/software/gaussian/g16.c01/l301.exe)
 Basis read from chk: "0003_q000_m01_k00_force_uwb97xd_def2svp.chk" (5D, 7F)
 No pseudopotential information found on chk file.
    66 basis functions,   115 primitive gaussians,    69 cartesian basis functions
    16 alpha electrons       16 beta electrons
       nuclear repulsion energy       100.3080120317 Hartrees.
 IExCor= 4639 DFT=T Ex+Corr=wB97XD ExCW=0 ScaHFX=  1.000000
 ScaDFX=  1.000000  1.000000  1.000000  1.000000 ScalE2=  1.000000  1.000000
 IRadAn=      5 IRanWt=     -1 IRanGd=            0 ICorTp=0 IEmpDi=121
 HFx  wShort=  0.000000 wLong=  0.200000 cFull=  0.222036 cShort=  0.000000 cLong=  0.777964
 DFx  wShort=  0.000000 wLong=  0.200000 cFull=  0.000000 cShort=  0.000000 cLong=  1.000000
 NAtoms=    7 NActive=    7 NUniq=    7 SFac= 1.00D+00 NAtFMM=   60 NAOKFM=F Big=F
 Integral buffers will be    131072 words long.
 Raffenetti 2 integral format.
 Two-electron integral symmetry is turned off.
 R6Disp:  Grimme-D2 Dispersion energy=       -0.0011997330 Hartrees.
 Nuclear repulsion after empirical dispersion term =      100.3068122987 Hartrees.
 No density basis found on file  20724.
 Leave Link  301 at Tue Jan  3 09:06:15 2023, MaxMem=   536870912 cpu:               0.1 elap:               0.1
 (Enter /opt/software/gaussian/g16.c01/l302.exe)
 NPDir=0 NMtPBC=     1 NCelOv=     1 NCel=       1 NClECP=     1 NCelD=      1
         NCelK=      1 NCelE2=     1 NClLst=     1 CellRange=     0.0.
 One-electron integrals computed using PRISM.
 NBasis=    66 RedAO= T EigKep=  6.57D-03  NBF=    66
 NBsUse=    66 1.00D-06 EigRej= -1.00D+00 NBFU=    66
 Precomputing XC quadrature grid using
 IXCGrd= 4 IRadAn=           5 IRanWt=          -1 IRanGd=           0 AccXCQ= 0.00D+00.
 Generated NRdTot=       0 NPtTot=           0 NUsed=           0 NTot=          32
 NSgBfM=    69    69    69    69    69 MxSgAt=     7 MxSgA2=     7.
 Leave Link  302 at Tue Jan  3 09:06:15 2023, MaxMem=   536870912 cpu:               0.3 elap:               0.2
 (Enter /opt/software/gaussian/g16.c01/l303.exe)
 DipDrv:  MaxL=1.
 Leave Link  303 at Tue Jan  3 09:06:15 2023, MaxMem=   536870912 cpu:               0.1 elap:               0.0
 (Enter /opt/software/gaussian/g16.c01/l401.exe)
 Initial guess from the checkpoint file:  "0003_q000_m01_k00_force_uwb97xd_def2svp.chk"
 B after Tr=     0.000000    0.000000    0.000000
         Rot=    1.000000    0.000000    0.000000    0.000000 Ang=   0.00 deg.
 Guess basis will be translated and rotated to current coordinates.
 JPrj=2 DoOrth=T DoCkMO=T.
 Initial guess <Sx>= 0.0000 <Sy>= 0.0000 <Sz>= 0.0000 <S**2>= 0.0000 S= 0.0000
 Leave Link  401 at Tue Jan  3 09:06:15 2023, MaxMem=   536870912 cpu:               0.2 elap:               0.1
 (Enter /opt/software/gaussian/g16.c01/l502.exe)
 Keep R1 and R2 ints in memory in canonical form, NReq=11719429.
 FoFCou: FMM=F IPFlag=           0 FMFlag=           0 FMFlg1=           0
         NFxFlg=           0 DoJE=F BraDBF=F KetDBF=F FulRan=T
         wScrn=  0.000000 ICntrl=       600 IOpCl=  0 I1Cent=           0 NGrid=           0
         NMat0=    1 NMatS0=   2211 NMatT0=    0 NMatD0=    1 NMtDS0=    0 NMtDT0=    0
 Symmetry not used in FoFCou.
 Two-electron integral symmetry not used.
 UHF open shell SCF:
 Using DIIS extrapolation, IDIIS=  1040.
 NGot=   536870912 LenX=   527078637 LenY=   527073435
 Requested convergence on RMS density matrix=1.00D-08 within 128 cycles.
 Requested convergence on MAX density matrix=1.00D-06.
 Requested convergence on             energy=1.00D-06.
 No special actions if energy rises.

 Cycle   1  Pass 1  IDiag  1:
 E= -476.499301873907    
 DIIS: error= 1.74D-09 at cycle   1 NSaved=   1.
 NSaved= 1 IEnMin= 1 EnMin= -476.499301873907     IErMin= 1 ErrMin= 1.74D-09
 ErrMax= 1.74D-09  0.00D+00 EMaxC= 1.00D-01 BMatC= 1.45D-15 BMatP= 1.45D-15
 IDIUse=1 WtCom= 1.00D+00 WtEn= 0.00D+00
 Coeff-Com:  0.100D+01
 Coeff:      0.100D+01
 Gap=     0.287 Goal=   None    Shift=    0.000
 Gap=     0.287 Goal=   None    Shift=    0.000
 RMSDP=8.99D-10 MaxDP=7.91D-09              OVMax= 1.75D-08

 SCF Done:  E(UwB97XD) =  -476.499301874     A.U. after    1 cycles
            NFock=  1  Conv=0.90D-09     -V/T= 2.0040
 <Sx>= 0.0000 <Sy>= 0.0000 <Sz>= 0.0000 <S**2>= 0.0000 S= 0.0000
 <L.S>=  0.00000000000    
 KE= 4.746228943897D+02 PE=-1.327393468788D+03 EE= 2.759644602255D+02
 Annihilation of the first spin contaminant:
 S**2 before annihilation     0.0000,   after     0.0000
 Leave Link  502 at Tue Jan  3 09:06:16 2023, MaxMem=   536870912 cpu:               1.9 elap:               1.0
 (Enter /opt/software/gaussian/g16.c01/l508.exe)
 QCSCF skips out because SCF is already converged.
 Leave Link  508 at Tue Jan  3 09:06:16 2023, MaxMem=   536870912 cpu:               0.0 elap:               0.0
 (Enter /opt/software/gaussian/g16.c01/l601.exe)
 Copying SCF densities to generalized density rwf, IOpCl= 1 IROHF=0.

 **********************************************************************

            Population analysis using the SCF Density.

 **********************************************************************

 Alpha  occ. eigenvalues --  -89.07791 -10.30784 -10.30780  -8.12603  -6.07835
 Alpha  occ. eigenvalues --   -6.07678  -6.07373  -0.95152  -0.78778  -0.65695
 Alpha  occ. eigenvalues --   -0.55579  -0.54482  -0.48495  -0.44751  -0.41417
 Alpha  occ. eigenvalues --   -0.26855
 Alpha virt. eigenvalues --    0.01819   0.15592   0.15938   0.17104   0.21229
 Alpha virt. eigenvalues --    0.23282   0.29419   0.38492   0.47542   0.48833
 Alpha virt. eigenvalues --    0.55790   0.55952   0.58068   0.61805   0.62615
 Alpha virt. eigenvalues --    0.69235   0.71653   0.73235   0.73741   0.75672
 Alpha virt. eigenvalues --    0.77347   0.81940   0.85023   0.88199   0.99724
 Alpha virt. eigenvalues --    1.07831   1.18011   1.26152   1.27975   1.28090
 Alpha virt. eigenvalues --    1.63955   1.64099   1.65265   1.66008   1.76453
 Alpha virt. eigenvalues --    1.77255   2.06370   2.08084   2.11904   2.12062
 Alpha virt. eigenvalues --    2.13745   2.18887   2.31311   2.32002   2.46320
 Alpha virt. eigenvalues --    2.52000   2.91680   2.96922   2.99086   2.99832
  Beta  occ. eigenvalues --  -89.07791 -10.30784 -10.30780  -8.12603  -6.07835
  Beta  occ. eigenvalues --   -6.07678  -6.07373  -0.95152  -0.78778  -0.65695
  Beta  occ. eigenvalues --   -0.55579  -0.54482  -0.48495  -0.44751  -0.41417
  Beta  occ. eigenvalues --   -0.26855
  Beta virt. eigenvalues --    0.01819   0.15592   0.15938   0.17104   0.21229
  Beta virt. eigenvalues --    0.23282   0.29419   0.38492   0.47542   0.48833
  Beta virt. eigenvalues --    0.55790   0.55952   0.58068   0.61805   0.62615
  Beta virt. eigenvalues --    0.69235   0.71653   0.73235   0.73741   0.75672
  Beta virt. eigenvalues --    0.77347   0.81940   0.85023   0.88199   0.99724
  Beta virt. eigenvalues --    1.07831   1.18011   1.26152   1.27975   1.28090
  Beta virt. eigenvalues --    1.63955   1.64099   1.65265   1.66008   1.76453
  Beta virt. eigenvalues --    1.77255   2.06370   2.08084   2.11904   2.12062
  Beta virt. eigenvalues --    2.13745   2.18887   2.31311   2.32002   2.46320
  Beta virt. eigenvalues --    2.52000   2.91680   2.96922   2.99086   2.99832
          Condensed to atoms (all electrons):
               1          2          3          4          5          6
     1  C    5.127353   0.432146  -0.070596   0.411988   0.407523  -0.004491
     2  S    0.432146  15.019664   0.432159  -0.031587  -0.023504  -0.023504
     3  C   -0.070596   0.432159   5.127325   0.003164  -0.004490   0.407521
     4  H    0.411988  -0.031587   0.003164   0.536762  -0.019407   0.000065
     5  H    0.407523  -0.023504  -0.004490  -0.019407   0.541646   0.003374
     6  H   -0.004491  -0.023504   0.407521   0.000065   0.003374   0.541646
     7  H    0.003164  -0.031588   0.411989  -0.000163   0.000065  -0.019407
               7
     1  C    0.003164
     2  S   -0.031588
     3  C    0.411989
     4  H   -0.000163
     5  H    0.000065
     6  H   -0.019407
     7  H    0.536759
          Atomic-Atomic Spin Densities.
               1          2          3          4          5          6
     1  C    0.000000   0.000000   0.000000   0.000000   0.000000   0.000000
     2  S    0.000000   0.000000   0.000000   0.000000   0.000000   0.000000
     3  C    0.000000   0.000000   0.000000   0.000000   0.000000   0.000000
     4  H    0.000000   0.000000   0.000000   0.000000   0.000000   0.000000
     5  H    0.000000   0.000000   0.000000   0.000000   0.000000   0.000000
     6  H    0.000000   0.000000   0.000000   0.000000   0.000000   0.000000
     7  H    0.000000   0.000000   0.000000   0.000000   0.000000   0.000000
               7
     1  C    0.000000
     2  S    0.000000
     3  C    0.000000
     4  H    0.000000
     5  H    0.000000
     6  H    0.000000
     7  H    0.000000
 Mulliken charges and spin densities:
               1          2
     1  C   -0.307086   0.000000
     2  S    0.226213   0.000000
     3  C   -0.307073   0.000000
     4  H    0.099177   0.000000
     5  H    0.094794   0.000000
     6  H    0.094796   0.000000
     7  H    0.099180   0.000000
 Sum of Mulliken charges =  -0.00000   0.00000
 Mulliken charges and spin densities with hydrogens summed into heavy atoms:
               1          2
     1  C   -0.113115   0.000000
     2  S    0.226213   0.000000
     3  C   -0.113097   0.000000
 Electronic spatial extent (au):  <R**2>=            870.1341
 Charge=              0.0000 electrons
 Dipole moment (field-independent basis, Debye):
    X=             -0.0653    Y=              0.0333    Z=             -0.0873  Tot=              0.1140
 Quadrupole moment (field-independent basis, Debye-Ang):
   XX=            -24.7674   YY=            -27.9195   ZZ=            -25.0411
   XY=              0.3172   XZ=             -0.0737   YZ=             -1.5448
 Traceless Quadrupole moment (field-independent basis, Debye-Ang):
   XX=              1.1420   YY=             -2.0102   ZZ=              0.8682
   XY=              0.3172   XZ=             -0.0737   YZ=             -1.5448
 Octapole moment (field-independent basis, Debye-Ang**2):
  XXX=           -169.8511  YYY=            -21.1977  ZZZ=             26.5916  XYY=            -64.5622
  XXY=             -4.0879  XXZ=              7.7140  XZZ=            -60.9631  YZZ=             -4.2033
  YYZ=              9.8097  XYZ=             -2.3335
 Hexadecapole moment (field-independent basis, Debye-Ang**3):
 XXXX=           -932.2593 YYYY=            -64.1394 ZZZZ=           -117.8649 XXXY=            -46.8974
 XXXZ=             79.2808 YYYX=            -69.3215 YYYZ=             26.5563 ZZZX=             92.1014
 ZZZY=             17.4861 XXYY=           -189.4874 XXZZ=           -193.2242 YYZZ=            -29.1566
 XXYZ=              1.3663 YYXZ=             33.0286 ZZXY=            -14.2097
 N-N= 1.003068122987D+02 E-N=-1.327393468842D+03  KE= 4.746228943897D+02
 There are a total of      153736 grid points.
 ElSum from          density=       31.9999995173
 ElSum from atomic densities=       32.0000007239
 Hirshfeld populations at iteration   1 (CA, CB, DipXYZ):
               1          2          3          4          5
     1  C    3.084279   3.084279  -0.029392   0.004041  -0.014136
     2  S    7.907581   7.907581  -0.021463   0.010835  -0.028555
     3  C    3.084272   3.084272  -0.003823   0.012717  -0.030070
     4  H    0.481415   0.481415  -0.077499  -0.070028   0.148518
     5  H    0.480522   0.480522  -0.109325   0.048866  -0.131071
     6  H    0.480519   0.480519  -0.094579   0.053900  -0.140242
     7  H    0.481412   0.481412   0.180265   0.018228  -0.011790
       Tot  16.000000  16.000000  -0.155815   0.078559  -0.207346

 Dip from Atomic Chgs              0.130114  -0.065467   0.173005
         Total Dipole             -0.025702   0.013092  -0.034341

 Hirshfeld charges, spin densities, dipoles, and CM5 charges using IRadAn=      5:
              Q-H        S-H        Dx         Dy         Dz        Q-CM5   
     1  C   -0.168557   0.000000  -0.029392   0.004041  -0.014136  -0.247408
     2  S    0.184837   0.000000  -0.021463   0.010835  -0.028555   0.128231
     3  C   -0.168544   0.000000  -0.003823   0.012717  -0.030070  -0.247391
     4  H    0.037170   0.000000  -0.077499  -0.070028   0.148518   0.091291
     5  H    0.038956   0.000000  -0.109325   0.048866  -0.131071   0.091987
     6  H    0.038961   0.000000  -0.094579   0.053900  -0.140242   0.091992
     7  H    0.037176   0.000000   0.180265   0.018228  -0.011790   0.091298
       Tot   0.000000   0.000000  -0.155815   0.078559  -0.207346   0.000000
 Hirshfeld charges and spin densities with hydrogens summed into heavy atoms:
              Q-H        S-H       Q-CM5   
     1  C   -0.092431   0.000000  -0.064130
     2  S    0.184837   0.000000   0.128231
     3  C   -0.092406   0.000000  -0.064101
 
 EQQ=  0.00000000000     EQD=  0.00000000000     EDD= 0.837289260645E-03
 EQQ+QD+DD= 0.837289260645E-03
 
 GSVD:  LWork=       -1008 too small for GESVD, short by        4340 words or        4340 for optimal perf.
          MBS Condensed to atoms (all electrons):
               1          2          3          4          5          6
     1  C    5.106796   0.465631  -0.018844   0.386331   0.381073  -0.001980
     2  S    0.465631  14.992503   0.465663  -0.023564  -0.017034  -0.017035
     3  C   -0.018844   0.465663   5.106738   0.000714  -0.001979   0.381071
     4  H    0.386331  -0.023564   0.000714   0.530803  -0.017738   0.000000
     5  H    0.381073  -0.017034  -0.001979  -0.017738   0.536976   0.001171
     6  H   -0.001980  -0.017035   0.381071   0.000000   0.001171   0.536980
     7  H    0.000714  -0.023565   0.386330  -0.000019   0.000000  -0.017739
               7
     1  C    0.000714
     2  S   -0.023565
     3  C    0.386330
     4  H   -0.000019
     5  H    0.000000
     6  H   -0.017739
     7  H    0.530803
          MBS Atomic-Atomic Spin Densities.
               1          2          3          4          5          6
     1  C    0.000000   0.000000   0.000000  -0.000000   0.000000  -0.000000
     2  S    0.000000   0.000000   0.000000   0.000000   0.000000   0.000000
     3  C    0.000000   0.000000   0.000000  -0.000000   0.000000   0.000000
     4  H   -0.000000   0.000000  -0.000000  -0.000000   0.000000  -0.000000
     5  H    0.000000   0.000000   0.000000   0.000000  -0.000000   0.000000
     6  H   -0.000000   0.000000   0.000000  -0.000000   0.000000   0.000000
     7  H    0.000000   0.000000   0.000000   0.000000  -0.000000  -0.000000
               7
     1  C    0.000000
     2  S    0.000000
     3  C    0.000000
     4  H    0.000000
     5  H   -0.000000
     6  H   -0.000000
     7  H    0.000000
 MBS Mulliken charges and spin densities:
               1          2
     1  C   -0.319722  -0.000000
     2  S    0.157402   0.000000
     3  C   -0.319693   0.000000
     4  H    0.123473  -0.000000
     5  H    0.117532  -0.000000
     6  H    0.117533  -0.000000
     7  H    0.123476   0.000000
 Sum of MBS Mulliken charges =   0.00000   0.00000
 MBS Mulliken charges and spin densities with hydrogens summed into heavy atoms:
               1          2
     1  C   -0.078717  -0.000000
     2  S    0.157402   0.000000
     3  C   -0.078684   0.000000
 MBS Atomic Valencies and Mayer Atomic Bond Orders:
               1          2          3          4          5          6
     1  C    3.860343   1.595644   0.351313   0.950270   0.951335   0.002818
     2  S    1.595644   3.287149   1.595706   0.020644   0.027253   0.027255
     3  C    0.351313   1.595706   3.860390   0.008958   0.002816   0.951332
     4  H    0.950270   0.020644   0.008958   0.984754   0.003048   0.000002
     5  H    0.951335   0.027253   0.002816   0.003048   0.986186   0.001732
     6  H    0.002818   0.027255   0.951332   0.000002   0.001732   0.986186
     7  H    0.008962   0.020646   0.950265   0.001831   0.000002   0.003047
               7
     1  C    0.008962
     2  S    0.020646
     3  C    0.950265
     4  H    0.001831
     5  H    0.000002
     6  H    0.003047
     7  H    0.984754
 MBS Mayer-style numbers of lone pairs (16.000 valence pairs, 8.525 lone pairs):
               1
     1  C    1.229690
     2  S    6.277725
     3  C    1.229651
     4  H   -0.054114
     5  H   -0.051859
     6  H   -0.051859
     7  H   -0.054115
 BEBO parameters in MulMin, MxElBE=  0:
 ELP=  0.00000000000     EBEBO= 0.307965371292E-04 Sum= 0.307965371292E-04
 ELP=  0.00000000000     EBEBO= 0.307965371292E-04 EJK= 0.307965371292E-04  0.00000000000     Sum= 0.307965371292E-04
 0 EA= 0.153982685646E-04 EB= 0.153982685646E-04 ETot= 0.307965371292E-04
 1 EA= 0.153982685646E-04 EB= 0.153982685646E-04 ETot= 0.307965371292E-04
 2 EA= 0.153982685646E-04 EB= 0.153982685646E-04 ETot= 0.307965371292E-04
 3 EJ= 0.307965371292E-04 EK=  0.00000000000     ETot= 0.307965371292E-04
 4 EJ= 0.307965371292E-04 EK=  0.00000000000     ETot= 0.307965371292E-04
 5 EA= 0.153982685646E-04 EB= 0.153982685646E-04 ETot= 0.307965371292E-04
                          Isotropic Fermi Contact Couplings
        Atom                 a.u.       MegaHertz       Gauss      10(-4) cm-1
     1  C(13)              0.00000       0.00000       0.00000       0.00000
     2  S(33)              0.00000       0.00000       0.00000       0.00000
     3  C(13)              0.00000       0.00000       0.00000       0.00000
     4  H(1)               0.00000       0.00000       0.00000       0.00000
     5  H(1)               0.00000       0.00000       0.00000       0.00000
     6  H(1)               0.00000       0.00000       0.00000       0.00000
     7  H(1)               0.00000       0.00000       0.00000       0.00000
 --------------------------------------------------------
       Center         ----  Spin Dipole Couplings  ----
                      3XX-RR        3YY-RR        3ZZ-RR
 --------------------------------------------------------
     1   Atom        0.000000      0.000000      0.000000
     2   Atom        0.000000      0.000000      0.000000
     3   Atom        0.000000      0.000000      0.000000
     4   Atom        0.000000      0.000000      0.000000
     5   Atom        0.000000      0.000000      0.000000
     6   Atom        0.000000      0.000000      0.000000
     7   Atom        0.000000      0.000000      0.000000
[...]
 
    62    H    7  S      Val( 1S)     0.38076       0.09965
    63    H    7  S      Ryd( 2S)     0.00022       0.38814
    64    H    7  px     Ryd( 2p)     0.00038       2.46385
    65    H    7  py     Ryd( 2p)     0.00015       1.72542
    66    H    7  pz     Ryd( 2p)     0.00006       1.83428


 Summary of Natural Population Analysis:                  
                                                          
                                       Natural Population 
                Natural  -----------------------------------------------
    Atom  No    Charge         Core      Valence    Rydberg      Total
 -----------------------------------------------------------------------
      C    1   -0.40347      0.99969     2.39330    0.01047     3.40347
      S    2    0.34467      4.99914     2.61639    0.03980     7.65533
      C    3   -0.40347      0.99969     2.39330    0.01048     3.40347
      H    4    0.11842      0.00000     0.38077    0.00081     0.38158
      H    5    0.11271      0.00000     0.38620    0.00109     0.38729
      H    6    0.11271      0.00000     0.38620    0.00109     0.38729
      H    7    0.11842      0.00000     0.38076    0.00081     0.38158
 =======================================================================
   * Total *   -0.00000      6.99853     8.93693    0.06454    16.00000

                                 Natural Population      
 --------------------------------------------------------
   Core                       6.99853 ( 99.9790% of   7)
   Valence                    8.93693 ( 99.2992% of   9)
   Natural Minimal Basis     15.93546 ( 99.5966% of  16)
   Natural Rydberg Basis      0.06454 (  0.4034% of  16)
 --------------------------------------------------------

    Atom  No          Natural Electron Configuration
 ----------------------------------------------------------------------------
      C    1      [core]2S( 0.57)2p( 1.82)3p( 0.01)
      S    2      [core]3S( 0.75)3p( 1.87)3d( 0.03)
      C    3      [core]2S( 0.57)2p( 1.82)3p( 0.01)
      H    4            1S( 0.38)
      H    5            1S( 0.39)
      H    6            1S( 0.39)
      H    7            1S( 0.38)


 NBO analysis skipped by request.


 ***************************************************
 *******         Beta  spin orbitals         *******
 ***************************************************


 NATURAL POPULATIONS:  Natural atomic orbital occupancies 
                                                          
   NAO  Atom  No  lang   Type(AO)    Occupancy      Energy
 ----------------------------------------------------------
     1    C    1  S      Cor( 1S)     0.99969     -10.21353
     2    C    1  S      Val( 2S)     0.56843      -0.32182
     3    C    1  S      Ryd( 3S)     0.00082       0.59881
     4    C    1  px     Val( 2p)     0.52489      -0.13735
     5    C    1  px     Ryd( 3p)     0.00342       0.59243
     6    C    1  py     Val( 2p)     0.66393      -0.17667
     7    C    1  py     Ryd( 3p)     0.00336       0.63283
     8    C    1  pz     Val( 2p)     0.63606      -0.11251
     9    C    1  pz     Ryd( 3p)     0.00151       0.77443
    10    C    1  dxy    Ryd( 3d)     0.00042       2.05414
    11    C    1  dxz    Ryd( 3d)     0.00030       2.40717
    12    C    1  dyz    Ryd( 3d)     0.00012       2.17676
    13    C    1  dx2y2  Ryd( 3d)     0.00030       2.23909
    14    C    1  dz2    Ryd( 3d)     0.00023       2.26668
 
    15    S    2  S      Cor( 1S)     1.00000     -88.44593
    16    S    2  S      Cor( 2S)     0.99947      -8.46799
    17    S    2  S      Val( 3S)     0.74765      -0.73521
    18    S    2  S      Ryd( 4S)     0.00497       0.62201
    19    S    2  px     Cor( 2p)     0.99987      -6.06683
    20    S    2  px     Val( 3p)     0.57258      -0.19301
    21    S    2  px     Ryd( 4p)     0.00256       0.91047
    22    S    2  py     Cor( 2p)     0.99992      -6.06969
    23    S    2  py     Val( 3p)     0.62958      -0.26235
    24    S    2  py     Ryd( 4p)     0.00055       0.82581
    25    S    2  pz     Cor( 2p)     0.99990      -6.06694
    26    S    2  pz     Val( 3p)     0.66658      -0.24664
    27    S    2  pz     Ryd( 4p)     0.00185       0.88345
    28    S    2  dxy    Ryd( 3d)     0.00892       0.78479
    29    S    2  dxz    Ryd( 3d)     0.00435       0.92361
    30    S    2  dyz    Ryd( 3d)     0.00473       0.84599
    31    S    2  dx2y2  Ryd( 3d)     0.00586       0.95646
    32    S    2  dz2    Ryd( 3d)     0.00601       0.92038
 
    33    C    3  S      Cor( 1S)     0.99969     -10.21352
    34    C    3  S      Val( 2S)     0.56842      -0.32181
    35    C    3  S      Ryd( 3S)     0.00082       0.59879
    36    C    3  px     Val( 2p)     0.61142      -0.10728
    37    C    3  px     Ryd( 3p)     0.00148       0.77042
    38    C    3  py     Val( 2p)     0.64898      -0.18187
    39    C    3  py     Ryd( 3p)     0.00370       0.60210
    40    C    3  pz     Val( 2p)     0.56448      -0.13742
    41    C    3  pz     Ryd( 3p)     0.00311       0.62714
    42    C    3  dxy    Ryd( 3d)     0.00010       2.04298
    43    C    3  dxz    Ryd( 3d)     0.00033       2.36841
    44    C    3  dyz    Ryd( 3d)     0.00033       2.14729
    45    C    3  dx2y2  Ryd( 3d)     0.00026       2.31732
    46    C    3  dz2    Ryd( 3d)     0.00035       2.26789
 
    47    H    4  S      Val( 1S)     0.38077       0.09966
    48    H    4  S      Ryd( 2S)     0.00022       0.38815
    49    H    4  px     Ryd( 2p)     0.00011       1.95437
    50    H    4  py     Ryd( 2p)     0.00020       1.81333
    51    H    4  pz     Ryd( 2p)     0.00029       2.25584
 
    52    H    5  S      Val( 1S)     0.38620       0.09689
    53    H    5  S      Ryd( 2S)     0.00055       0.39631
    54    H    5  px     Ryd( 2p)     0.00016       2.08168
    55    H    5  py     Ryd( 2p)     0.00013       1.77101
    56    H    5  pz     Ryd( 2p)     0.00024       2.17562
 
    57    H    6  S      Val( 1S)     0.38620       0.09688
    58    H    6  S      Ryd( 2S)     0.00055       0.39631
    59    H    6  px     Ryd( 2p)     0.00014       2.04377
    60    H    6  py     Ryd( 2p)     0.00014       1.77752
    61    H    6  pz     Ryd( 2p)     0.00026       2.20702
 
    62    H    7  S      Val( 1S)     0.38076       0.09965
    63    H    7  S      Ryd( 2S)     0.00022       0.38814
    64    H    7  px     Ryd( 2p)     0.00038       2.46385
    65    H    7  py     Ryd( 2p)     0.00015       1.72542
    66    H    7  pz     Ryd( 2p)     0.00006       1.83428


 Summary of Natural Population Analysis:                  
                                                          
                                       Natural Population 
                Natural  -----------------------------------------------
    Atom  No    Charge         Core      Valence    Rydberg      Total
 -----------------------------------------------------------------------
      C    1   -0.40347      0.99969     2.39330    0.01047     3.40347
      S    2    0.34467      4.99914     2.61639    0.03980     7.65533
      C    3   -0.40347      0.99969     2.39330    0.01048     3.40347
      H    4    0.11842      0.00000     0.38077    0.00081     0.38158
      H    5    0.11271      0.00000     0.38620    0.00109     0.38729
      H    6    0.11271      0.00000     0.38620    0.00109     0.38729
      H    7    0.11842      0.00000     0.38076    0.00081     0.38158
 =======================================================================
   * Total *   -0.00000      6.99853     8.93693    0.06454    16.00000

                                 Natural Population      
 --------------------------------------------------------
   Core                       6.99853 ( 99.9790% of   7)
   Valence                    8.93693 ( 99.2992% of   9)
   Natural Minimal Basis     15.93546 ( 99.5966% of  16)
   Natural Rydberg Basis      0.06454 (  0.4034% of  16)
 --------------------------------------------------------

    Atom  No          Natural Electron Configuration
 ----------------------------------------------------------------------------
      C    1      [core]2S( 0.57)2p( 1.82)3p( 0.01)
      S    2      [core]3S( 0.75)3p( 1.87)3d( 0.03)
      C    3      [core]2S( 0.57)2p( 1.82)3p( 0.01)
      H    4            1S( 0.38)
      H    5            1S( 0.39)
      H    6            1S( 0.39)
      H    7            1S( 0.38)


 NBO analysis skipped by request.
 Leave Link  607 at Tue Jan  3 09:06:19 2023, MaxMem=   536870912 cpu:               3.5 elap:               1.8
 (Enter /opt/software/gaussian/g16.c01/l701.exe)
 ... and contract with generalized density number  0.
 Compute integral first derivatives.
 R6Disp: Adding Grimme-D2 dispersion energy 1st derivatives to the gradient.
 Leave Link  701 at Tue Jan  3 09:06:19 2023, MaxMem=   536870912 cpu:               0.2 elap:               0.1
 (Enter /opt/software/gaussian/g16.c01/l702.exe)
 L702 exits ... SP integral derivatives will be done elsewhere.
 Leave Link  702 at Tue Jan  3 09:06:19 2023, MaxMem=   536870912 cpu:               0.1 elap:               0.0
 (Enter /opt/software/gaussian/g16.c01/l703.exe)
 Integral derivatives from FoFJK, PRISM(SPDF).
 Compute integral first derivatives, UseDBF=F ICtDFT=           0.
 Calling FoFJK, ICntrl=      2127 FMM=F ISym2X=0 I1Cent= 0 IOpClX= 1 NMat=1 NMatS=1 NMatT=0.
 FoFJK:  IHMeth= 1 ICntrl=    2127 DoSepK=T KAlg= 0 I1Cent=           0 FoldK=F
 IRaf=         1 NMat=       1 IRICut=       1 DoRegI=T DoRafI=F ISym2E= 0 IDoP0=0 IntGTp=1.
 FoFCou: FMM=F IPFlag=           0 FMFlag=      100000 FMFlg1=         800
         NFxFlg=           0 DoJE=F BraDBF=F KetDBF=F FulRan=T
         wScrn=  0.000000 ICntrl=      2527 IOpCl=  0 I1Cent=           0 NGrid=           0
         NMat0=    1 NMatS0=      1 NMatT0=    0 NMatD0=    1 NMtDS0=    0 NMtDT0=    0
 Symmetry not used in FoFCou.
 Leave Link  703 at Tue Jan  3 09:06:21 2023, MaxMem=   536870912 cpu:               3.4 elap:               1.7
 (Enter /opt/software/gaussian/g16.c01/l716.exe)
 Dipole        =-2.57031117D-02 1.30954383D-02-3.43372118D-02
 -------------------------------------------------------------------
 Center     Atomic                   Forces (Hartrees/Bohr)
 Number     Number              X              Y              Z
 -------------------------------------------------------------------
      1        6           0.003089654   -0.000000477    0.000516086
      2       16          -0.001704877    0.000862872   -0.002266465
      3        6          -0.000591126   -0.001258725    0.002808178
      4        1          -0.000778384   -0.000516093    0.001063255
      5        1          -0.000760450    0.000321528   -0.000883921
      6        1          -0.000626065    0.000368648   -0.000966155
      7        1           0.001371249    0.000222247   -0.000270977
 -------------------------------------------------------------------
 Cartesian Forces:  Max     0.003089654 RMS     0.001297437
 Z-matrix is all fixed cartesians, so copy forces.
 Force constants in Cartesian coordinates: 
                1             2             3             4             5 
      1  0.799457D+00
      2  0.386953D-01  0.202300D+00
      3  0.262318D-01 -0.197489D+00  0.573805D+00
      4 -0.458605D+00 -0.232735D-01 -0.165583D-01  0.577555D+00
      5 -0.320482D-01 -0.525335D-01  0.183029D-01  0.867656D-01  0.122175D+00
      6  0.365769D-02  0.197847D-01 -0.872720D-01 -0.110154D+00 -0.165608D+00
      7  0.122699D-02 -0.100692D-01  0.221250D-01 -0.139616D+00 -0.489763D-01
      8 -0.597775D-03  0.748286D-02  0.517705D-03 -0.577409D-01 -0.107626D+00
      9  0.278568D-03 -0.108316D-02  0.102956D-01  0.116790D+00  0.142526D+00
     10 -0.144909D+00 -0.441803D-01  0.836168D-01  0.115252D-02 -0.932375D-02
     11 -0.404522D-01 -0.846163D-01  0.105218D+00 -0.241587D-03  0.264194D-02
     12  0.750267D-01  0.104603D+00 -0.264763D+00  0.410365D-03 -0.299905D-02
     13 -0.197168D+00  0.388020D-01 -0.115426D+00 -0.916549D-03  0.691836D-02
     14  0.343779D-01 -0.722913D-01  0.735979D-01 -0.146773D-02  0.180903D-01
     15 -0.105206D+00  0.743316D-01 -0.232001D+00  0.158269D-03  0.144866D-02
     16 -0.246017D-04  0.336366D-03  0.145813D-03  0.192862D-01 -0.309494D-02
     17  0.337132D-03 -0.460942D-02 -0.199817D-02  0.528610D-02  0.146053D-01
     18  0.146171D-03 -0.199852D-02 -0.866351D-03 -0.120134D-01  0.780803D-02
     19  0.227250D-04 -0.310706D-03 -0.134690D-03  0.114404D-02 -0.240739D-03
     20 -0.312161D-03  0.426801D-02  0.185017D-02 -0.932793D-02  0.264671D-02
     21 -0.135369D-03  0.185083D-02  0.802328D-03  0.213670D-01 -0.147893D-02
                6             7             8             9            10 
      6  0.407473D+00
      7  0.965700D-01  0.667382D+00
      8  0.141042D+00  0.492959D-01  0.225135D+00
      9 -0.351317D+00 -0.206782D-01 -0.248346D+00  0.683203D+00
     10  0.213707D-01  0.228255D-04 -0.312081D-03 -0.135286D-03  0.115530D+00
     11 -0.146606D-02 -0.312069D-03  0.426675D-02  0.184962D-02  0.445604D-01
     12  0.901525D-02 -0.135235D-03  0.184900D-02  0.801534D-03 -0.864441D-01
     13 -0.191712D-01 -0.246447D-04  0.336954D-03  0.146068D-03  0.282041D-01
     14  0.324183D-04  0.336979D-03 -0.460733D-02 -0.199726D-02  0.925576D-02
     15  0.148968D-01  0.146176D-03 -0.199858D-02 -0.866379D-03 -0.184082D-01
     16  0.731953D-02 -0.179623D+00  0.329496D-01 -0.989913D-01  0.000000D+00
     17  0.921888D-02  0.373763D-01 -0.753070D-01  0.810589D-01  0.000000D+00
     18 -0.181486D-02 -0.109211D+00  0.803191D-01 -0.246533D+00  0.000000D+00
     19  0.407512D-03 -0.349368D+00 -0.239317D-01  0.258983D-02  0.000000D+00
     20 -0.300348D-02 -0.276515D-01 -0.493443D-01  0.259912D-01  0.000000D+00
     21  0.901933D-02  0.111835D-01  0.266169D-01 -0.955832D-01  0.000000D+00
               11            12            13            14            15 
     11  0.698063D-01
     12 -0.111340D+00  0.260624D+00
     13 -0.355446D-02  0.111423D-01  0.169905D+00
     14  0.790132D-02  0.788712D-02 -0.425029D-01  0.509070D-01
     15  0.573850D-02 -0.567740D-02  0.123309D+00 -0.795202D-01  0.223648D+00
     16  0.000000D+00  0.000000D+00  0.000000D+00  0.000000D+00  0.000000D+00
     17  0.000000D+00  0.000000D+00  0.000000D+00  0.000000D+00  0.000000D+00
     18  0.000000D+00  0.000000D+00  0.000000D+00  0.000000D+00  0.000000D+00
     19  0.000000D+00  0.000000D+00  0.000000D+00  0.000000D+00  0.000000D+00
     20  0.000000D+00  0.000000D+00  0.000000D+00  0.000000D+00  0.000000D+00
     21  0.000000D+00  0.000000D+00  0.000000D+00  0.000000D+00  0.000000D+00
               16            17            18            19            20 
     16  0.161831D+00
     17 -0.418445D-01  0.522901D-01
     18  0.120449D+00 -0.826089D-01  0.230340D+00
     19 -0.147004D-02 -0.115499D-02  0.629518D-03  0.349671D+00
     20  0.116534D-01  0.130211D-01 -0.351969D-02  0.256381D-01  0.294086D-01
     21 -0.289230D-01 -0.567069D-02  0.188748D-01 -0.349217D-02 -0.213182D-01
               21 
     21  0.668867D-01
 Leave Link  716 at Tue Jan  3 09:06:21 2023, MaxMem=   536870912 cpu:               0.1 elap:               0.0
 (Enter /opt/software/gaussian/g16.c01/l103.exe)

 GradGradGradGradGradGradGradGradGradGradGradGradGradGradGradGradGradGrad
 Berny optimization.
 Search for a local minimum.
 Step number   1 out of a maximum of    2
 All quantities printed in internal units (Hartrees-Bohrs-Radians)
 Second derivative matrix not updated -- first step.
 ITU=  0
     Eigenvalues ---    0.00860   0.01482   0.01804   0.07108   0.07556
     Eigenvalues ---    0.11270   0.14823   0.15345   0.17618   0.32617
     Eigenvalues ---    0.36576   0.82416   0.92900   1.11635   1.31988
 Angle between quadratic step and forces=  70.60 degrees.
 Linear search not attempted -- first point.
 B after Tr=    -0.001342    0.000680   -0.001784
         Rot=    1.000000   -0.000010   -0.000003    0.000006 Ang=  -0.00 deg.
 Variable       Old X    -DE/DX   Delta X   Delta X   Delta X     New X
                                 (Linear)    (Quad)   (Total)
    X1        1.85917   0.00309   0.00000  -0.00116  -0.00250   1.85667
    Y1       -0.06153  -0.00000   0.00000  -0.00207  -0.00141  -0.06294
    Z1        0.09233   0.00052   0.00000   0.00460   0.00280   0.09513
    X2        4.92676  -0.00170   0.00000  -0.00505  -0.00639   4.92037
    Y2        0.18746   0.00086   0.00000   0.00249   0.00311   0.19057
    Z2        0.03552  -0.00227   0.00000  -0.00675  -0.00857   0.02696
    X3        6.09876  -0.00059   0.00000   0.00513   0.00379   6.10254
    Y3        1.39121  -0.00126   0.00000   0.00008   0.00074   1.39195
    Z3       -2.54358   0.00281   0.00000   0.00069  -0.00111  -2.54469
    X4        1.07794  -0.00078   0.00000   0.00110  -0.00024   1.07769
    Y4       -0.86461  -0.00052   0.00000  -0.00389  -0.00326  -0.86787
    Z4        1.81365   0.00106   0.00000   0.00948   0.00768   1.82133
    X5        0.64970  -0.00076   0.00000  -0.00886  -0.01020   0.63950
    Y5        0.52577   0.00032   0.00000  -0.00311  -0.00240   0.52336
    Z5       -1.46547  -0.00088   0.00000   0.00562   0.00384  -1.46162
    X6        4.94205  -0.00063   0.00000   0.00898   0.00764   4.94968
    Y6        1.99647   0.00037   0.00000   0.00299   0.00369   2.00015
    Z6       -4.13423  -0.00097   0.00000  -0.00548  -0.00726  -4.14149
    X7        8.14558   0.00137   0.00000   0.00925   0.00791   8.15350
    Y7        1.55646   0.00022   0.00000  -0.00108  -0.00045   1.55601
    Z7       -2.58103  -0.00027   0.00000   0.00442   0.00261  -2.57842
         Item               Value     Threshold  Converged?
 Maximum Force            0.003090     0.000450     NO 
 RMS     Force            0.001297     0.000300     NO 
 Maximum Displacement     0.010203     0.001800     NO 
 RMS     Displacement     0.005092     0.001200     NO 
 Predicted change in Energy=-2.383904D-05
 GradGradGradGradGradGradGradGradGradGradGradGradGradGradGradGradGradGrad

 Leave Link  103 at Tue Jan  3 09:06:21 2023, MaxMem=   536870912 cpu:               0.0 elap:               0.0
 (Enter /opt/software/gaussian/g16.c01/l9999.exe)
 Unable to Open any file for archive entry.
 1\1\GINC-GRA1083\Force\UwB97XD\Gen\C2H4S1\BHAVUK\03-Jan-2023\0\\#p uwb
 97xd/chkbasis force guess=read geom=check scf=(maxcycle=900,verytightl
 ineq,xqc) integral=grid=ultrafine symmetry=None density=current pop=(c
 m5,hlygat,mbs,npa) output=wfx\\0003_q000_m01_k00_opt_uwb97xd_def2svpd/
 0003_q000_m01_k00_force_uwb97xd_def2svp stable-force\\0,1\C,0.98383252
 25,-0.0325586033,0.0488580178\S,2.6071301422,0.0991997065,0.0187984451
 \C,3.2273228911,0.736197977,-1.3460048506\H,0.570421034,-0.4575297175,
 0.9597448627\H,0.3438072589,0.2782232167,-0.7754915598\H,2.615218944,1
 .0564841772,-2.1877415072\H,4.3104572053,0.8236432464,-1.365823405\\Ve
 rsion=ES64L-G16RevC.01\HF=-476.4993019\S2=0.\S2-1=0.\S2A=0.\RMSD=8.992
 e-10\RMSF=1.297e-03\Dipole=-0.0257031,0.0130954,-0.0343372\Quadrupole=
 0.8490304,-1.4945,0.6454696,0.2358482,-0.0547973,-1.1485171\PG=Unknown
 \\@
 The archive entry for this job was punched.

 Writing a WFNX file to "0003_q000_m01_k00_force_uwb97xd_def2svp.wfx"


 WE'RE IN THE POSITION OF A VISITOR FROM ANOTHER
 DIMENSION WHO COMES TO EARTH AND SEES A CHESS MATCH.
 ASSUMING HE KNOWS IT'S A GAME, HE'S GOT TWO PROBLEMS:
 FIRST, FIGURE OUT THE RULES, AND SECOND, FIGURE OUT HOW TO WIN.
 NINETY PERCENT OF SCIENCE (INCLUDING VIRTUALLY ALL OF CHEMISRY)
 IS IN THAT SECOND CATEGORY.  THEY'RE TRYING TO APPLY
 THE LAWS THAT ARE ALREADY KNOWN.

                     -- SHELDON GLASHOW, 1979
 Job cpu time:       0 days  0 hours  0 minutes 12.5 seconds.
 Elapsed time:       0 days  0 hours  0 minutes  6.1 seconds.
 File lengths (MBytes):  RWF=      6 Int=      0 D2E=      0 Chk=      2 Scr=      1
 Normal termination of Gaussian 16 at Tue Jan  3 09:06:21 2023.
