 Entering Gaussian System, Link 0=g16
 Input=0003_q000_m01_k00_force_uhf_def2qzvp.com
 Output=0003_q000_m01_k00_force_uhf_def2qzvp.log
 Initial command:
 /opt/software/gaussian/g16.c01/l1.exe "/localscratch/bhavuk.2151379.0/Gau-12571.inp" -scrdir="/localscratch/bhavuk.2151379.0/"
 Entering Link 1 = /opt/software/gaussian/g16.c01/l1.exe PID=     12572.
  
 Copyright (c) 1988-2019, Gaussian, Inc.  All Rights Reserved.
  
 This is part of the Gaussian(R) 16 program.  It is based on
 the Gaussian(R) 09 system (copyright 2009, Gaussian, Inc.),
 the Gaussian(R) 03 system (copyright 2003, Gaussian, Inc.),
 the Gaussian(R) 98 system (copyright 1998, Gaussian, Inc.),
 the Gaussian(R) 94 system (copyright 1995, Gaussian, Inc.),
 the Gaussian 92(TM) system (copyright 1992, Gaussian, Inc.),
 the Gaussian 90(TM) system (copyright 1990, Gaussian, Inc.),
 the Gaussian 88(TM) system (copyright 1988, Gaussian, Inc.),
 the Gaussian 86(TM) system (copyright 1986, Carnegie Mellon
 University), and the Gaussian 82(TM) system (copyright 1983,
 Carnegie Mellon University). Gaussian is a federally registered
 trademark of Gaussian, Inc.
  
 This software contains proprietary and confidential information,
 including trade secrets, belonging to Gaussian, Inc.
  
 This software is provided under written license and may be
 used, copied, transmitted, or stored only in accord with that
 written license.
  
 The following legend is applicable only to US Government
 contracts under FAR:
  
                    RESTRICTED RIGHTS LEGEND
  
 Use, reproduction and disclosure by the US Government is
 subject to restrictions as set forth in subparagraphs (a)
 and (c) of the Commercial Computer Software - Restricted
 Rights clause in FAR 52.227-19.
  
 Gaussian, Inc.
 340 Quinnipiac St., Bldg. 40, Wallingford CT 06492
  
  
 ---------------------------------------------------------------
 Warning -- This program may not be used in any manner that
 competes with the business of Gaussian, Inc. or will provide
 assistance to any competitor of Gaussian, Inc.  The licensee
 of this program is prohibited from giving any competitor of
 Gaussian, Inc. access to this program.  By using this program,
 the user acknowledges that Gaussian, Inc. is engaged in the
 business of creating and licensing software in the field of
 computational chemistry and represents and warrants to the
 licensee that it is not a competitor of Gaussian, Inc. and that
 it will not use this program in any manner prohibited above.
 ---------------------------------------------------------------
  

 Cite this work as:
 Gaussian 16, Revision C.01,
 M. J. Frisch, G. W. Trucks, H. B. Schlegel, G. E. Scuseria, 
 M. A. Robb, J. R. Cheeseman, G. Scalmani, V. Barone, 
 G. A. Petersson, H. Nakatsuji, X. Li, M. Caricato, A. V. Marenich, 
 J. Bloino, B. G. Janesko, R. Gomperts, B. Mennucci, H. P. Hratchian, 
 J. V. Ortiz, A. F. Izmaylov, J. L. Sonnenberg, D. Williams-Young, 
 F. Ding, F. Lipparini, F. Egidi, J. Goings, B. Peng, A. Petrone, 
 T. Henderson, D. Ranasinghe, V. G. Zakrzewski, J. Gao, N. Rega, 
 G. Zheng, W. Liang, M. Hada, M. Ehara, K. Toyota, R. Fukuda, 
 J. Hasegawa, M. Ishida, T. Nakajima, Y. Honda, O. Kitao, H. Nakai, 
 T. Vreven, K. Throssell, J. A. Montgomery, Jr., J. E. Peralta, 
 F. Ogliaro, M. J. Bearpark, J. J. Heyd, E. N. Brothers, K. N. Kudin, 
 V. N. Staroverov, T. A. Keith, R. Kobayashi, J. Normand, 
 K. Raghavachari, A. P. Rendell, J. C. Burant, S. S. Iyengar, 
 J. Tomasi, M. Cossi, J. M. Millam, M. Klene, C. Adamo, R. Cammi, 
 J. W. Ochterski, R. L. Martin, K. Morokuma, O. Farkas, 
 J. B. Foresman, and D. J. Fox, Gaussian, Inc., Wallingford CT, 2019.
 
 ******************************************
 Gaussian 16:  ES64L-G16RevC.01  3-Jul-2019
                 3-Jan-2023 
 ******************************************
 %chk=0003_q000_m01_k00_force_uhf_def2qzvp.chk
 %nprocshared=2
 Will use up to    2 processors via shared memory.
 %mem=4GB
 ----------------------------------------------------------------------
 #p uhf/gen stable=opt scf=(maxcycle=900,verytightlineq,xqc) integral=g
 rid=ultrafine symmetry=None density=current iop(99/18=-1) output=wfn
 ----------------------------------------------------------------------
 1/38=1,172=1/1;
 2/12=2,15=3,17=6,18=5,40=1/2;
 3/5=7,11=2,25=1,30=1,75=-5,116=2/1,2,3;
 4//1;
 5/5=2,7=900,8=3,13=1,17=3,38=5/2,8;
 6/7=2,8=2,9=2,10=2,22=-1,28=1/1;
 8/6=1,10=90,11=11/1;
 9/8=-3,42=1,46=1/14;
 5/5=2,7=900,8=3,17=43,38=5/8(-2);
 6/7=2,8=2,9=2,10=2,22=-1,28=1/1;
 99/5=1,6=100,9=1,18=-1/99;
 Leave Link    1 at Tue Jan  3 09:05:22 2023, MaxMem=   536870912 cpu:               0.1 elap:               0.1
 (Enter /opt/software/gaussian/g16.c01/l101.exe)
 ----------------------------------------------------------------------
 0003_q000_m01_k00_opt_uwb97xd_def2svpd/0003_q000_m01_k00_force_uhf_def
 2qzvp stable-force
 ----------------------------------------------------------------------
 Symbolic Z-matrix:
 Charge =  0 Multiplicity = 1
 C                     0.98383  -0.03256   0.04886 
 S                     2.60713   0.0992    0.0188 
 C                     3.22732   0.7362   -1.346 
 H                     0.57042  -0.45753   0.95974 
 H                     0.34381   0.27822  -0.77549 
 H                     2.61522   1.05648  -2.18774 
 H                     4.31046   0.82364  -1.36582 
 
 ITRead=  0  0  0  0  0  0  0
 MicOpt= -1 -1 -1 -1 -1 -1 -1
 NAtoms=      7 NQM=        7 NQMF=       0 NMMI=      0 NMMIF=      0
                NMic=       0 NMicF=      0.
                    Isotopes and Nuclear Properties:
 (Nuclear quadrupole moments (NQMom) in fm**2, nuclear magnetic moments (NMagM)
  in nuclear magnetons)

  Atom         1           2           3           4           5           6           7
 IAtWgt=          12          32          12           1           1           1           1
 AtmWgt=  12.0000000  31.9720718  12.0000000   1.0078250   1.0078250   1.0078250   1.0078250
 NucSpn=           0           0           0           1           1           1           1
 AtZEff=  -0.0000000  -0.0000000  -0.0000000  -0.0000000  -0.0000000  -0.0000000  -0.0000000
 NQMom=    0.0000000   0.0000000   0.0000000   0.0000000   0.0000000   0.0000000   0.0000000
 NMagM=    0.0000000   0.0000000   0.0000000   2.7928460   2.7928460   2.7928460   2.7928460
 AtZNuc=   6.0000000  16.0000000   6.0000000   1.0000000   1.0000000   1.0000000   1.0000000
 Leave Link  101 at Tue Jan  3 09:05:23 2023, MaxMem=   536870912 cpu:               0.2 elap:               0.1
 (Enter /opt/software/gaussian/g16.c01/l202.exe)
                          Input orientation:                          
 ---------------------------------------------------------------------
 Center     Atomic      Atomic             Coordinates (Angstroms)
 Number     Number       Type             X           Y           Z
 ---------------------------------------------------------------------
      1          6           0        0.983833   -0.032559    0.048858
      2         16           0        2.607130    0.099200    0.018798
      3          6           0        3.227323    0.736198   -1.346005
      4          1           0        0.570421   -0.457530    0.959745
      5          1           0        0.343807    0.278223   -0.775492
      6          1           0        2.615219    1.056484   -2.187742
      7          1           0        4.310457    0.823643   -1.365823
 ---------------------------------------------------------------------
                    Distance matrix (angstroms):
                    1          2          3          4          5
     1  C    0.000000
     2  S    1.628913   0.000000
     3  C    2.751341   1.628832   0.000000
     4  H    1.086841   2.311604   3.714915   0.000000
     5  H    1.088931   2.405323   2.974876   1.898350   0.000000
     6  H    2.974864   2.405260   1.088933   4.047234   2.785579
     7  H    3.714948   2.311562   1.086839   4.586670   4.047257
                    6          7
     6  H    0.000000
     7  H    1.898314   0.000000
 Symmetry turned off by external request.
 Stoichiometry    C2H4S
 Rotational constants (GHZ):          32.8865896           8.4327606           6.7117401
 Leave Link  202 at Tue Jan  3 09:05:23 2023, MaxMem=   536870912 cpu:               0.0 elap:               0.0
 (Enter /opt/software/gaussian/g16.c01/l301.exe)
 General basis read from cards:  (5D, 7F)
 Centers:       4      5      6      7
 S 4 1.00
     Exponent=  1.9069169000D+02 Coefficients=  7.0815167000D-04
     Exponent=  2.8605532000D+01 Coefficients=  5.4678827000D-03
     Exponent=  6.5095943000D+00 Coefficients=  2.7966605000D-02
     Exponent=  1.8412455000D+00 Coefficients=  1.0764538000D-01
 S 1 1.00
     Exponent=  5.9853725000D-01 Coefficients=  1.0000000000D+00
 S 1 1.00
     Exponent=  2.1397624000D-01 Coefficients=  1.0000000000D+00
 S 1 1.00
     Exponent=  8.0316286000D-02 Coefficients=  1.0000000000D+00
 P 1 1.00
     Exponent=  2.2920000000D+00 Coefficients=  1.0000000000D+00
 P 1 1.00
     Exponent=  8.3800000000D-01 Coefficients=  1.0000000000D+00
 P 1 1.00
     Exponent=  2.9200000000D-01 Coefficients=  1.0000000000D+00
 D 1 1.00
     Exponent=  2.0620000000D+00 Coefficients=  1.0000000000D+00
 D 1 1.00
     Exponent=  6.6200000000D-01 Coefficients=  1.0000000000D+00
 F 1 1.00
     Exponent=  1.3970000000D+00 Coefficients=  1.0000000000D+00
 ****
 Centers:       1      3
 S 8 1.00
     Exponent=  6.7025071029D+04 Coefficients=  3.8736308501D-05
     Exponent=  1.0039986538D+04 Coefficients=  3.0107917575D-04
     Exponent=  2.2849316911D+03 Coefficients=  1.5787918095D-03
     Exponent=  6.4714122130D+02 Coefficients=  6.6087087195D-03
     Exponent=  2.1109472335D+02 Coefficients=  2.3367123250D-02
     Exponent=  7.6177643862D+01 Coefficients=  7.0420716898D-02
     Exponent=  2.9633839163D+01 Coefficients=  1.7360344953D-01
     Exponent=  1.2187785081D+01 Coefficients=  3.2292305648D-01
 S 2 1.00
     Exponent=  5.3026006299D+01 Coefficients=  7.4897404492D-02
     Exponent=  1.5258502776D+01 Coefficients=  7.6136220983D-01
 S 1 1.00
     Exponent=  5.2403957464D+00 Coefficients=  1.0000000000D+00
 S 1 1.00
     Exponent=  2.2905022379D+00 Coefficients=  1.0000000000D+00
 S 1 1.00
     Exponent=  6.9673283006D-01 Coefficients=  1.0000000000D+00
 S 1 1.00
     Exponent=  2.7599337363D-01 Coefficients=  1.0000000000D+00
 S 1 1.00
     Exponent=  1.0739884389D-01 Coefficients=  1.0000000000D+00
 P 5 1.00
     Exponent=  1.0512555082D+02 Coefficients=  8.4647553844D-04
     Exponent=  2.4884461066D+01 Coefficients=  6.6274038534D-03
     Exponent=  7.8637230826D+00 Coefficients=  3.0120390419D-02
     Exponent=  2.8407001835D+00 Coefficients=  9.9951435476D-02
     Exponent=  1.1227137335D+00 Coefficients=  2.3826299282D-01
 P 1 1.00
     Exponent=  4.6050725555D-01 Coefficients=  1.0000000000D+00
 P 1 1.00
     Exponent=  1.8937530913D-01 Coefficients=  1.0000000000D+00
 P 1 1.00
     Exponent=  7.5983791611D-02 Coefficients=  1.0000000000D+00
 D 1 1.00
     Exponent=  1.8480000000D+00 Coefficients=  1.0000000000D+00
 D 1 1.00
     Exponent=  6.4900000000D-01 Coefficients=  1.0000000000D+00
 D 1 1.00
     Exponent=  2.2800000000D-01 Coefficients=  1.0000000000D+00
 F 1 1.00
     Exponent=  1.4190000000D+00 Coefficients=  1.0000000000D+00
 F 1 1.00
     Exponent=  4.8500000000D-01 Coefficients=  1.0000000000D+00
 G 1 1.00
     Exponent=  1.0110000000D+00 Coefficients=  1.0000000000D+00
 ****
 Centers:       2
 S 10 1.00
     Exponent=  1.2734109023D+06 Coefficients=  1.1767088246D-05
     Exponent=  1.9069783007D+05 Coefficients=  9.1478610166D-05
     Exponent=  4.3397885330D+04 Coefficients=  4.8090078640D-04
     Exponent=  1.2291809677D+04 Coefficients=  2.0257193592D-03
     Exponent=  4.0097420824D+03 Coefficients=  7.3190096406D-03
     Exponent=  1.4473531030D+03 Coefficients=  2.3300499900D-02
     Exponent=  5.6430102913D+02 Coefficients=  6.5386213610D-02
     Exponent=  2.3374506243D+02 Coefficients=  1.5614449910D-01
     Exponent=  1.0156402814D+02 Coefficients=  2.9318563787D-01
     Exponent=  4.5805907187D+01 Coefficients=  3.6287914289D-01
 S 3 1.00
     Exponent=  3.9427281503D+02 Coefficients=  1.8753305081D-02
     Exponent=  1.2172249591D+02 Coefficients=  1.6870726663D-01
     Exponent=  4.6754125963D+01 Coefficients=  6.3806830653D-01
 S 1 1.00
     Exponent=  2.0923008254D+01 Coefficients=  1.0000000000D+00
 S 1 1.00
     Exponent=  8.2685567800D+00 Coefficients=  1.0000000000D+00
 S 1 1.00
     Exponent=  3.8629345671D+00 Coefficients=  1.0000000000D+00
 S 1 1.00
     Exponent=  1.7794684781D+00 Coefficients=  1.0000000000D+00
 S 1 1.00
     Exponent=  6.1064260103D-01 Coefficients=  1.0000000000D+00
 S 1 1.00
     Exponent=  2.7412269445D-01 Coefficients=  1.0000000000D+00
 S 1 1.00
     Exponent=  1.1325939107D-01 Coefficients=  1.0000000000D+00
 P 8 1.00
     Exponent=  2.1898930459D+03 Coefficients=  2.3912552864D-04
     Exponent=  5.1894596592D+02 Coefficients=  2.0772032158D-03
     Exponent=  1.6819560151D+02 Coefficients=  1.1242420571D-02
     Exponent=  6.3745282788D+01 Coefficients=  4.4069933941D-02
     Exponent=  2.6597033077D+01 Coefficients=  1.2918778608D-01
     Exponent=  1.1774251449D+01 Coefficients=  2.6910820167D-01
     Exponent=  5.3534379024D+00 Coefficients=  3.7855928620D-01
     Exponent=  2.4701911802D+00 Coefficients=  2.9692134655D-01
 P 2 1.00
     Exponent=  8.2120288349D+01 Coefficients= -3.9420318847D-02
     Exponent=  4.9523532869D+00 Coefficients=  6.4048403090D-01
 P 1 1.00
     Exponent=  1.0828262029D+00 Coefficients=  1.0000000000D+00
 P 1 1.00
     Exponent=  4.9271277356D-01 Coefficients=  1.0000000000D+00
 P 1 1.00
     Exponent=  2.0483450942D-01 Coefficients=  1.0000000000D+00
 P 1 1.00
     Exponent=  8.0743615716D-02 Coefficients=  1.0000000000D+00
 D 1 1.00
     Exponent=  4.1590000000D+00 Coefficients=  1.0000000000D+00
 D 1 1.00
     Exponent=  1.0190000000D+00 Coefficients=  1.0000000000D+00
 D 1 1.00
     Exponent=  4.6400000000D-01 Coefficients=  1.0000000000D+00
 D 1 1.00
     Exponent=  1.9400000000D-01 Coefficients=  1.0000000000D+00
 F 1 1.00
     Exponent=  8.6900000000D-01 Coefficients=  1.0000000000D+00
 F 1 1.00
     Exponent=  3.3500000000D-01 Coefficients=  1.0000000000D+00
 G 1 1.00
     Exponent=  6.8300000000D-01 Coefficients=  1.0000000000D+00
 ****
 Ernie: Thresh=  0.10000D-02 Tol=  0.10000D-05 Strict=F.
   304 basis functions,   457 primitive gaussians,   370 cartesian basis functions
    16 alpha electrons       16 beta electrons
       nuclear repulsion energy       100.3080120317 Hartrees.
 IExCor=    0 DFT=F Ex=HF Corr=None ExCW=0 ScaHFX=  1.000000
 ScaDFX=  1.000000  1.000000  1.000000  1.000000 ScalE2=  1.000000  1.000000
 IRadAn=      5 IRanWt=     -1 IRanGd=            0 ICorTp=0 IEmpDi=  4
 NAtoms=    7 NActive=    7 NUniq=    7 SFac= 1.00D+00 NAtFMM=   60 NAOKFM=F Big=F
 Integral buffers will be    131072 words long.
 Raffenetti 2 integral format.
 Two-electron integral symmetry is turned off.
 Leave Link  301 at Tue Jan  3 09:05:23 2023, MaxMem=   536870912 cpu:               0.2 elap:               0.1
 (Enter /opt/software/gaussian/g16.c01/l302.exe)
 NPDir=0 NMtPBC=     1 NCelOv=     1 NCel=       1 NClECP=     1 NCelD=      1
         NCelK=      1 NCelE2=     1 NClLst=     1 CellRange=     0.0.
 One-electron integrals computed using PRISM.
 NBasis=   304 RedAO= T EigKep=  1.23D-04  NBF=   304
 NBsUse=   304 1.00D-06 EigRej= -1.00D+00 NBFU=   304
 Leave Link  302 at Tue Jan  3 09:05:23 2023, MaxMem=   536870912 cpu:               0.4 elap:               0.2
 (Enter /opt/software/gaussian/g16.c01/l303.exe)
 DipDrv:  MaxL=1.
 Leave Link  303 at Tue Jan  3 09:05:23 2023, MaxMem=   536870912 cpu:               0.1 elap:               0.1
 (Enter /opt/software/gaussian/g16.c01/l401.exe)
 ExpMin= 7.60D-02 ExpMax= 1.27D+06 ExpMxC= 1.45D+03 IAcc=3 IRadAn=         5 AccDes= 0.00D+00
 Harris functional with IExCor=  205 and IRadAn=       5 diagonalized for initial guess.
 HarFok:  IExCor=  205 AccDes= 0.00D+00 IRadAn=         5 IDoV= 1 UseB2=F ITyADJ=14
 ICtDFT=  3500011 ScaDFX=  1.000000  1.000000  1.000000  1.000000
 FoFCou: FMM=F IPFlag=           0 FMFlag=      100000 FMFlg1=           0
         NFxFlg=           0 DoJE=T BraDBF=F KetDBF=T FulRan=T
         wScrn=  0.000000 ICntrl=       500 IOpCl=  0 I1Cent=   200000004 NGrid=           0
         NMat0=    1 NMatS0=      1 NMatT0=    0 NMatD0=    1 NMtDS0=    0 NMtDT0=    0
 Symmetry not used in FoFCou.
 Harris En= -475.421770834131    
 JPrj=0 DoOrth=F DoCkMO=F.
 Initial guess <Sx>= 0.0000 <Sy>= 0.0000 <Sz>= 0.0000 <S**2>=-0.0000 S=-0.0000
 Leave Link  401 at Tue Jan  3 09:05:24 2023, MaxMem=   536870912 cpu:               2.2 elap:               1.1
 (Enter /opt/software/gaussian/g16.c01/l502.exe)
 Two-electron integral symmetry not used.
 UHF open shell SCF:
 Using DIIS extrapolation, IDIIS=  1040.
 NGot=   536870912 LenX=   536592512 LenY=   536455171
 Requested convergence on RMS density matrix=1.00D-08 within 128 cycles.
 Requested convergence on MAX density matrix=1.00D-06.
 Requested convergence on             energy=1.00D-06.
 No special actions if energy rises.
 Fock matrices will be formed incrementally for  20 cycles.
 Integral accuracy reduced to 1.0D-05 until final iterations.

 Cycle   1  Pass 0  IDiag  1:
 FoFJK:  IHMeth= 1 ICntrl=       0 DoSepK=F KAlg= 0 I1Cent=           0 FoldK=F
 IRaf= 970000000 NMat=       1 IRICut=       1 DoRegI=T DoRafI=F ISym2E= 0 IDoP0=0 IntGTp=1.
 FoFCou: FMM=F IPFlag=           0 FMFlag=      100000 FMFlg1=           0
         NFxFlg=           0 DoJE=F BraDBF=F KetDBF=F FulRan=T
         wScrn=  0.000000 ICntrl=         0 IOpCl=  1 I1Cent=           0 NGrid=           0
         NMat0=    1 NMatS0=      1 NMatT0=    0 NMatD0=    1 NMtDS0=    0 NMtDT0=    0
 Symmetry not used in FoFCou.
 E= -475.284100687113    
 DIIS: error= 8.24D-02 at cycle   1 NSaved=   1.
 NSaved= 1 IEnMin= 1 EnMin= -475.284100687113     IErMin= 1 ErrMin= 8.24D-02
 ErrMax= 8.24D-02  0.00D+00 EMaxC= 1.00D-01 BMatC= 3.24D+00 BMatP= 3.24D+00
 IDIUse=3 WtCom= 1.76D-01 WtEn= 8.24D-01
 Coeff-Com:  0.100D+01
 Coeff-En:   0.100D+01
 Coeff:      0.100D+01
 Gap=     0.277 Goal=   None    Shift=    0.000
 Gap=     0.277 Goal=   None    Shift=    0.000
 GapD=    0.277 DampG=1.000 DampE=0.500 DampFc=0.5000 IDamp=-1.
 Damping current iteration by 5.00D-01
 RMSDP=1.22D-03 MaxDP=4.69D-02              OVMax= 2.03D-01

 Cycle   2  Pass 0  IDiag  1:
 RMSU=  6.06D-04    CP:  9.90D-01
 E= -475.425632340209     Delta-E=       -0.141531653096 Rises=F Damp=T
 DIIS: error= 4.06D-02 at cycle   2 NSaved=   2.
 NSaved= 2 IEnMin= 2 EnMin= -475.425632340209     IErMin= 2 ErrMin= 4.06D-02
 ErrMax= 4.06D-02  0.00D+00 EMaxC= 1.00D-01 BMatC= 6.89D-01 BMatP= 3.24D+00
 IDIUse=3 WtCom= 5.94D-01 WtEn= 4.06D-01
 Coeff-Com: -0.659D+00 0.166D+01
 Coeff-En:   0.000D+00 0.100D+01
 Coeff:     -0.392D+00 0.139D+01
 Gap=     0.350 Goal=   None    Shift=    0.000
 Gap=     0.350 Goal=   None    Shift=    0.000
 RMSDP=4.03D-04 MaxDP=2.01D-02 DE=-1.42D-01 OVMax= 8.31D-02

 Cycle   3  Pass 0  IDiag  1:
 RMSU=  3.14D-04    CP:  9.77D-01  1.38D+00
 E= -475.545079943940     Delta-E=       -0.119447603730 Rises=F Damp=F
 DIIS: error= 3.13D-03 at cycle   3 NSaved=   3.
 NSaved= 3 IEnMin= 3 EnMin= -475.545079943940     IErMin= 3 ErrMin= 3.13D-03
 ErrMax= 3.13D-03  0.00D+00 EMaxC= 1.00D-01 BMatC= 4.87D-03 BMatP= 6.89D-01
 IDIUse=3 WtCom= 9.69D-01 WtEn= 3.13D-02
 Coeff-Com: -0.669D-01 0.977D-01 0.969D+00
 Coeff-En:   0.000D+00 0.000D+00 0.100D+01
 Coeff:     -0.648D-01 0.947D-01 0.970D+00
 Gap=     0.344 Goal=   None    Shift=    0.000
 Gap=     0.344 Goal=   None    Shift=    0.000
 RMSDP=8.29D-05 MaxDP=4.45D-03 DE=-1.19D-01 OVMax= 1.48D-02

 Cycle   4  Pass 0  IDiag  1:
 RMSU=  6.50D-05    CP:  9.76D-01  1.46D+00  1.03D+00
 E= -475.546292932494     Delta-E=       -0.001212988554 Rises=F Damp=F
 DIIS: error= 1.02D-03 at cycle   4 NSaved=   4.
 NSaved= 4 IEnMin= 4 EnMin= -475.546292932494     IErMin= 4 ErrMin= 1.02D-03
 ErrMax= 1.02D-03  0.00D+00 EMaxC= 1.00D-01 BMatC= 2.74D-04 BMatP= 4.87D-03
 IDIUse=3 WtCom= 9.90D-01 WtEn= 1.02D-02
 Coeff-Com:  0.639D-02-0.185D-01 0.109D+00 0.903D+00
 Coeff-En:   0.000D+00 0.000D+00 0.000D+00 0.100D+01
 Coeff:      0.633D-02-0.183D-01 0.108D+00 0.904D+00
 Gap=     0.345 Goal=   None    Shift=    0.000
 Gap=     0.345 Goal=   None    Shift=    0.000
 RMSDP=2.20D-05 MaxDP=1.41D-03 DE=-1.21D-03 OVMax= 3.12D-03

 Cycle   5  Pass 0  IDiag  1:
 RMSU=  1.74D-05    CP:  9.76D-01  1.46D+00  1.07D+00  1.01D+00
 E= -475.546380868954     Delta-E=       -0.000087936460 Rises=F Damp=F
 DIIS: error= 3.14D-04 at cycle   5 NSaved=   5.
 NSaved= 5 IEnMin= 5 EnMin= -475.546380868954     IErMin= 5 ErrMin= 3.14D-04
 ErrMax= 3.14D-04  0.00D+00 EMaxC= 1.00D-01 BMatC= 2.43D-05 BMatP= 2.74D-04
 IDIUse=3 WtCom= 9.97D-01 WtEn= 3.14D-03
 Coeff-Com:  0.645D-02-0.106D-01-0.665D-01-0.330D-01 0.110D+01
 Coeff-En:   0.000D+00 0.000D+00 0.000D+00 0.000D+00 0.100D+01
 Coeff:      0.643D-02-0.106D-01-0.663D-01-0.329D-01 0.110D+01
 Gap=     0.345 Goal=   None    Shift=    0.000
 Gap=     0.345 Goal=   None    Shift=    0.000
 RMSDP=1.04D-05 MaxDP=5.98D-04 DE=-8.79D-05 OVMax= 1.27D-03

 Cycle   6  Pass 0  IDiag  1:
 RMSU=  4.07D-06    CP:  9.76D-01  1.46D+00  1.08D+00  1.12D+00  1.33D+00
 E= -475.546394243005     Delta-E=       -0.000013374051 Rises=F Damp=F
 DIIS: error= 5.69D-05 at cycle   6 NSaved=   6.
 NSaved= 6 IEnMin= 6 EnMin= -475.546394243005     IErMin= 6 ErrMin= 5.69D-05
 ErrMax= 5.69D-05  0.00D+00 EMaxC= 1.00D-01 BMatC= 1.69D-06 BMatP= 2.43D-05
 IDIUse=1 WtCom= 1.00D+00 WtEn= 0.00D+00
 Coeff-Com:  0.590D-03-0.401D-03-0.154D-01-0.645D-01 0.790D-01 0.100D+01
 Coeff:      0.590D-03-0.401D-03-0.154D-01-0.645D-01 0.790D-01 0.100D+01
 Gap=     0.345 Goal=   None    Shift=    0.000
 Gap=     0.345 Goal=   None    Shift=    0.000
 RMSDP=3.20D-06 MaxDP=2.29D-04 DE=-1.34D-05 OVMax= 4.11D-04

 Initial convergence to 1.0D-05 achieved.  Increase integral accuracy.
 Cycle   7  Pass 1  IDiag  1:
 E= -475.546394206103     Delta-E=        0.000000036903 Rises=F Damp=F
 DIIS: error= 2.52D-05 at cycle   1 NSaved=   1.
 NSaved= 1 IEnMin= 1 EnMin= -475.546394206103     IErMin= 1 ErrMin= 2.52D-05
 ErrMax= 2.52D-05  0.00D+00 EMaxC= 1.00D-01 BMatC= 2.07D-07 BMatP= 2.07D-07
 IDIUse=1 WtCom= 1.00D+00 WtEn= 0.00D+00
 Coeff-Com:  0.100D+01
 Coeff:      0.100D+01
 Gap=     0.345 Goal=   None    Shift=    0.000
 Gap=     0.345 Goal=   None    Shift=    0.000
 RMSDP=3.20D-06 MaxDP=2.29D-04 DE= 3.69D-08 OVMax= 1.37D-04

 Cycle   8  Pass 1  IDiag  1:
 RMSU=  3.12D-06    CP:  1.00D+00
 E= -475.546394293791     Delta-E=       -0.000000087688 Rises=F Damp=F
 DIIS: error= 1.05D-05 at cycle   2 NSaved=   2.
 NSaved= 2 IEnMin= 2 EnMin= -475.546394293791     IErMin= 2 ErrMin= 1.05D-05
 ErrMax= 1.05D-05  0.00D+00 EMaxC= 1.00D-01 BMatC= 2.77D-08 BMatP= 2.07D-07
 IDIUse=1 WtCom= 1.00D+00 WtEn= 0.00D+00
 Coeff-Com: -0.116D+00 0.112D+01
 Coeff:     -0.116D+00 0.112D+01
 Gap=     0.345 Goal=   None    Shift=    0.000
 Gap=     0.345 Goal=   None    Shift=    0.000
 RMSDP=4.49D-07 MaxDP=2.19D-05 DE=-8.77D-08 OVMax= 8.94D-05

 Cycle   9  Pass 1  IDiag  1:
 RMSU=  3.20D-07    CP:  1.00D+00  1.10D+00
 E= -475.546394317348     Delta-E=       -0.000000023557 Rises=F Damp=F
 DIIS: error= 5.74D-06 at cycle   3 NSaved=   3.
 NSaved= 3 IEnMin= 3 EnMin= -475.546394317348     IErMin= 3 ErrMin= 5.74D-06
 ErrMax= 5.74D-06  0.00D+00 EMaxC= 1.00D-01 BMatC= 7.38D-09 BMatP= 2.77D-08
 IDIUse=1 WtCom= 1.00D+00 WtEn= 0.00D+00
 Coeff-Com: -0.129D+00-0.107D+00 0.124D+01
 Coeff:     -0.129D+00-0.107D+00 0.124D+01
 Gap=     0.345 Goal=   None    Shift=    0.000
 Gap=     0.345 Goal=   None    Shift=    0.000
 RMSDP=2.24D-07 MaxDP=9.11D-06 DE=-2.36D-08 OVMax= 5.38D-05

 Cycle  10  Pass 1  IDiag  1:
 RMSU=  9.58D-08    CP:  1.00D+00  1.12D+00  1.59D+00
 E= -475.546394323803     Delta-E=       -0.000000006455 Rises=F Damp=F
 DIIS: error= 1.65D-06 at cycle   4 NSaved=   4.
 NSaved= 4 IEnMin= 4 EnMin= -475.546394323803     IErMin= 4 ErrMin= 1.65D-06
 ErrMax= 1.65D-06  0.00D+00 EMaxC= 1.00D-01 BMatC= 5.75D-10 BMatP= 7.38D-09
 IDIUse=1 WtCom= 1.00D+00 WtEn= 0.00D+00
 Coeff-Com:  0.595D-02-0.171D+00 0.100D+00 0.107D+01
 Coeff:      0.595D-02-0.171D+00 0.100D+00 0.107D+01
 Gap=     0.344 Goal=   None    Shift=    0.000
 Gap=     0.344 Goal=   None    Shift=    0.000
 RMSDP=7.72D-08 MaxDP=3.70D-06 DE=-6.46D-09 OVMax= 2.14D-05

 Cycle  11  Pass 1  IDiag  1:
 RMSU=  3.28D-08    CP:  1.00D+00  1.12D+00  1.79D+00  1.28D+00
 E= -475.546394324376     Delta-E=       -0.000000000573 Rises=F Damp=F
 DIIS: error= 2.55D-07 at cycle   5 NSaved=   5.
 NSaved= 5 IEnMin= 5 EnMin= -475.546394324376     IErMin= 5 ErrMin= 2.55D-07
 ErrMax= 2.55D-07  0.00D+00 EMaxC= 1.00D-01 BMatC= 3.93D-11 BMatP= 5.75D-10
 IDIUse=1 WtCom= 1.00D+00 WtEn= 0.00D+00
 Coeff-Com:  0.496D-02-0.221D-01-0.388D-01 0.157D+00 0.898D+00
 Coeff:      0.496D-02-0.221D-01-0.388D-01 0.157D+00 0.898D+00
 Gap=     0.344 Goal=   None    Shift=    0.000
 Gap=     0.344 Goal=   None    Shift=    0.000
 RMSDP=1.72D-08 MaxDP=9.04D-07 DE=-5.73D-10 OVMax= 2.26D-06

 Cycle  12  Pass 1  IDiag  1:
 RMSU=  9.86D-09    CP:  1.00D+00  1.12D+00  1.81D+00  1.36D+00  1.26D+00
 E= -475.546394324391     Delta-E=       -0.000000000014 Rises=F Damp=F
 DIIS: error= 1.01D-07 at cycle   6 NSaved=   6.
 NSaved= 6 IEnMin= 6 EnMin= -475.546394324391     IErMin= 6 ErrMin= 1.01D-07
 ErrMax= 1.01D-07  0.00D+00 EMaxC= 1.00D-01 BMatC= 5.40D-12 BMatP= 3.93D-11
 IDIUse=1 WtCom= 1.00D+00 WtEn= 0.00D+00
 Coeff-Com: -0.898D-03 0.326D-01-0.206D-01-0.189D+00 0.557D-01 0.112D+01
 Coeff:     -0.898D-03 0.326D-01-0.206D-01-0.189D+00 0.557D-01 0.112D+01
 Gap=     0.344 Goal=   None    Shift=    0.000
 Gap=     0.344 Goal=   None    Shift=    0.000
 RMSDP=9.99D-09 MaxDP=5.30D-07 DE=-1.43D-11 OVMax= 1.22D-06

 SCF Done:  E(UHF) =  -475.546394324     A.U. after   12 cycles
            NFock= 12  Conv=0.10D-07     -V/T= 2.0006
 <Sx>= 0.0000 <Sy>= 0.0000 <Sz>= 0.0000 <S**2>=-0.0000 S=-0.0000
 <L.S>=  0.00000000000    
 KE= 4.752659455733D+02 PE=-1.327845161655D+03 EE= 2.767248097256D+02
 Annihilation of the first spin contaminant:
 S**2 before annihilation    -0.0000,   after     0.0000
 Leave Link  502 at Tue Jan  3 09:08:57 2023, MaxMem=   536870912 cpu:             425.7 elap:             213.1
 (Enter /opt/software/gaussian/g16.c01/l508.exe)
 QCSCF skips out because SCF is already converged.
 Leave Link  508 at Tue Jan  3 09:08:57 2023, MaxMem=   536870912 cpu:               0.0 elap:               0.0
 (Enter /opt/software/gaussian/g16.c01/l601.exe)
 Copying SCF densities to generalized density rwf, IOpCl= 1 IROHF=0.

 **********************************************************************

            Population analysis using the SCF Density.

 **********************************************************************

 Alpha  occ. eigenvalues --  -92.03481 -11.24437 -11.24434  -9.03015  -6.71140
 Alpha  occ. eigenvalues --   -6.71123  -6.71111  -1.12125  -0.93934  -0.77167
 Alpha  occ. eigenvalues --   -0.63456  -0.62053  -0.55476  -0.48700  -0.46875
 Alpha  occ. eigenvalues --   -0.27951
 Alpha virt. eigenvalues --    0.06498   0.11797   0.12620   0.14053   0.16517
 Alpha virt. eigenvalues --    0.17565   0.21386   0.22050   0.24114   0.25883
 Alpha virt. eigenvalues --    0.27590   0.28646   0.30953   0.31961   0.34601
 Alpha virt. eigenvalues --    0.35529   0.40585   0.43564   0.44196   0.45102
 Alpha virt. eigenvalues --    0.47776   0.47867   0.50668   0.53286   0.58128
 Alpha virt. eigenvalues --    0.61226   0.64193   0.64950   0.68406   0.68956
 Alpha virt. eigenvalues --    0.76299   0.77595   0.81913   0.83532   0.86122
 Alpha virt. eigenvalues --    0.86308   0.86318   0.87049   0.93513   0.95066
 Alpha virt. eigenvalues --    0.95399   0.96111   0.98343   0.98377   0.99256
 Alpha virt. eigenvalues --    1.02989   1.06188   1.06955   1.13559   1.14133
 Alpha virt. eigenvalues --    1.14632   1.17261   1.17377   1.19436   1.22961
 Alpha virt. eigenvalues --    1.24385   1.24745   1.26405   1.28890   1.35138
 Alpha virt. eigenvalues --    1.35307   1.41898   1.44271   1.48117   1.49155
 Alpha virt. eigenvalues --    1.56376   1.60286   1.62582   1.64212   1.64682
 Alpha virt. eigenvalues --    1.71774   1.74128   1.81354   1.83896   1.91138
 Alpha virt. eigenvalues --    1.93952   2.02774   2.06049   2.08124   2.11192
 Alpha virt. eigenvalues --    2.13085   2.13302   2.14467   2.17527   2.17616
 Alpha virt. eigenvalues --    2.19988   2.21858   2.24301   2.28940   2.30375
 Alpha virt. eigenvalues --    2.33794   2.35208   2.39656   2.44284   2.44535
 Alpha virt. eigenvalues --    2.51041   2.54162   2.54706   2.55164   2.58184
 Alpha virt. eigenvalues --    2.59118   2.62216   2.63847   2.63978   2.70852
 Alpha virt. eigenvalues --    2.72487   2.74733   2.80657   2.82390   2.84392
 Alpha virt. eigenvalues --    2.86872   2.88532   2.90589   2.91654   2.91824
 Alpha virt. eigenvalues --    2.98067   3.01817   3.02553   3.03522   3.04646
 Alpha virt. eigenvalues --    3.08777   3.10514   3.15762   3.16334   3.26637
 Alpha virt. eigenvalues --    3.29654   3.38810   3.39400   3.43533   3.54085
 Alpha virt. eigenvalues --    3.54305   3.60243   3.60532   3.61213   3.61905
 Alpha virt. eigenvalues --    3.67233   3.67262   3.67746   3.68720   3.74203
 Alpha virt. eigenvalues --    3.79237   3.83596   3.84261   3.90356   3.90653
 Alpha virt. eigenvalues --    3.91684   3.99714   4.01998   4.07364   4.07809
 Alpha virt. eigenvalues --    4.11716   4.12044   4.17181   4.23578   4.31783
 Alpha virt. eigenvalues --    4.39102   4.43953   4.44885   4.59322   4.63939
 Alpha virt. eigenvalues --    4.87967   4.92307   5.30979   5.40798   5.57674
 Alpha virt. eigenvalues --    5.58373   5.63561   5.63563   5.64909   5.65451
 Alpha virt. eigenvalues --    5.65489   5.69853   5.70651   5.70751   5.77529
 Alpha virt. eigenvalues --    5.78815   5.90608   5.93693   6.09290   6.12405
 Alpha virt. eigenvalues --    6.15330   6.16685   6.19711   6.20839   6.25746
 Alpha virt. eigenvalues --    6.29589   6.30035   6.32632   6.33631   6.36423
 Alpha virt. eigenvalues --    6.36484   6.41335   6.52249   6.54442   6.60913
 Alpha virt. eigenvalues --    6.64795   6.68679   6.69012   6.71214   6.75701
 Alpha virt. eigenvalues --    6.78860   6.81916   6.84956   6.90239   6.99696
 Alpha virt. eigenvalues --    7.00368   7.08231   7.11116   7.15049   7.20719
 Alpha virt. eigenvalues --    7.23793   7.26816   7.50431   7.52492   7.53616
 Alpha virt. eigenvalues --    7.54955   7.56224   7.61151   7.70289   7.72059
 Alpha virt. eigenvalues --    7.77624   7.82694   7.85440   7.86599   7.87814
 Alpha virt. eigenvalues --    7.91072   7.93075   7.94535   8.00757   8.02051
 Alpha virt. eigenvalues --    8.06424   8.21937   8.23486   8.33099   8.40541
 Alpha virt. eigenvalues --    8.40659   8.45005   8.51416   8.51895   8.54824
 Alpha virt. eigenvalues --    8.56792   8.65911   8.66579   8.69413   8.70248
 Alpha virt. eigenvalues --    8.71688   8.73309   8.75295   8.80465   8.81240
 Alpha virt. eigenvalues --    8.82780   8.97668   8.98478   9.28198   9.32950
 Alpha virt. eigenvalues --    9.36059   9.37407   9.39526   9.44737   9.52112
 Alpha virt. eigenvalues --    9.93775   9.93907  10.05151  10.06821  10.14176
 Alpha virt. eigenvalues --   10.20719  10.21156  10.27721  10.27886  10.28467
 Alpha virt. eigenvalues --   10.79746  10.81645  10.89577  10.92516  12.06887
 Alpha virt. eigenvalues --   12.17168  13.23248  13.31207  25.65792  29.44668
 Alpha virt. eigenvalues --   29.49693  29.97818  30.38914  30.73351  85.93489
 Alpha virt. eigenvalues --  149.87142 149.91326 455.83051
  Beta  occ. eigenvalues --  -92.03481 -11.24437 -11.24434  -9.03015  -6.71140
  Beta  occ. eigenvalues --   -6.71123  -6.71111  -1.12125  -0.93934  -0.77167
  Beta  occ. eigenvalues --   -0.63456  -0.62053  -0.55476  -0.48700  -0.46875
  Beta  occ. eigenvalues --   -0.27951
  Beta virt. eigenvalues --    0.06498   0.11797   0.12620   0.14053   0.16517
  Beta virt. eigenvalues --    0.17565   0.21386   0.22050   0.24114   0.25883
  Beta virt. eigenvalues --    0.27590   0.28646   0.30953   0.31961   0.34601
  Beta virt. eigenvalues --    0.35529   0.40585   0.43564   0.44196   0.45102
  Beta virt. eigenvalues --    0.47776   0.47867   0.50668   0.53286   0.58128
  Beta virt. eigenvalues --    0.61226   0.64193   0.64950   0.68406   0.68956
  Beta virt. eigenvalues --    0.76299   0.77595   0.81913   0.83532   0.86122
  Beta virt. eigenvalues --    0.86308   0.86318   0.87049   0.93513   0.95066
  Beta virt. eigenvalues --    0.95399   0.96111   0.98343   0.98377   0.99256
  Beta virt. eigenvalues --    1.02989   1.06188   1.06955   1.13559   1.14133
  Beta virt. eigenvalues --    1.14632   1.17261   1.17377   1.19436   1.22961
  Beta virt. eigenvalues --    1.24385   1.24745   1.26405   1.28890   1.35138
  Beta virt. eigenvalues --    1.35307   1.41898   1.44271   1.48117   1.49155
  Beta virt. eigenvalues --    1.56376   1.60286   1.62582   1.64212   1.64682
  Beta virt. eigenvalues --    1.71774   1.74128   1.81354   1.83896   1.91138
  Beta virt. eigenvalues --    1.93952   2.02774   2.06049   2.08124   2.11192
  Beta virt. eigenvalues --    2.13085   2.13302   2.14467   2.17527   2.17616
  Beta virt. eigenvalues --    2.19988   2.21858   2.24301   2.28940   2.30375
  Beta virt. eigenvalues --    2.33794   2.35208   2.39656   2.44284   2.44535
  Beta virt. eigenvalues --    2.51041   2.54162   2.54706   2.55164   2.58184
  Beta virt. eigenvalues --    2.59118   2.62216   2.63847   2.63978   2.70852
  Beta virt. eigenvalues --    2.72487   2.74733   2.80657   2.82390   2.84392
  Beta virt. eigenvalues --    2.86872   2.88532   2.90589   2.91654   2.91824
  Beta virt. eigenvalues --    2.98067   3.01817   3.02553   3.03522   3.04646
  Beta virt. eigenvalues --    3.08777   3.10514   3.15762   3.16334   3.26637
  Beta virt. eigenvalues --    3.29654   3.38810   3.39400   3.43533   3.54085
  Beta virt. eigenvalues --    3.54305   3.60243   3.60532   3.61213   3.61905
  Beta virt. eigenvalues --    3.67233   3.67262   3.67746   3.68720   3.74203
  Beta virt. eigenvalues --    3.79237   3.83596   3.84261   3.90356   3.90653
  Beta virt. eigenvalues --    3.91684   3.99714   4.01998   4.07364   4.07809
  Beta virt. eigenvalues --    4.11716   4.12044   4.17181   4.23578   4.31783
  Beta virt. eigenvalues --    4.39102   4.43953   4.44885   4.59322   4.63939
  Beta virt. eigenvalues --    4.87967   4.92307   5.30979   5.40798   5.57674
  Beta virt. eigenvalues --    5.58373   5.63561   5.63563   5.64909   5.65451
  Beta virt. eigenvalues --    5.65489   5.69853   5.70651   5.70751   5.77529
  Beta virt. eigenvalues --    5.78815   5.90608   5.93693   6.09290   6.12405
  Beta virt. eigenvalues --    6.15330   6.16685   6.19711   6.20839   6.25746
  Beta virt. eigenvalues --    6.29589   6.30035   6.32632   6.33631   6.36423
  Beta virt. eigenvalues --    6.36484   6.41335   6.52249   6.54442   6.60913
  Beta virt. eigenvalues --    6.64795   6.68679   6.69012   6.71214   6.75701
  Beta virt. eigenvalues --    6.78860   6.81916   6.84956   6.90239   6.99696
  Beta virt. eigenvalues --    7.00368   7.08231   7.11116   7.15049   7.20719
  Beta virt. eigenvalues --    7.23793   7.26816   7.50431   7.52492   7.53616
  Beta virt. eigenvalues --    7.54955   7.56224   7.61151   7.70289   7.72059
  Beta virt. eigenvalues --    7.77624   7.82694   7.85440   7.86599   7.87814
  Beta virt. eigenvalues --    7.91072   7.93075   7.94535   8.00757   8.02051
  Beta virt. eigenvalues --    8.06424   8.21937   8.23486   8.33099   8.40541
  Beta virt. eigenvalues --    8.40659   8.45005   8.51416   8.51895   8.54824
  Beta virt. eigenvalues --    8.56792   8.65911   8.66579   8.69413   8.70248
  Beta virt. eigenvalues --    8.71688   8.73309   8.75295   8.80465   8.81240
  Beta virt. eigenvalues --    8.82780   8.97668   8.98478   9.28198   9.32950
  Beta virt. eigenvalues --    9.36059   9.37407   9.39526   9.44737   9.52112
  Beta virt. eigenvalues --    9.93775   9.93907  10.05151  10.06821  10.14176
  Beta virt. eigenvalues --   10.20719  10.21156  10.27721  10.27886  10.28467
  Beta virt. eigenvalues --   10.79746  10.81645  10.89577  10.92516  12.06887
  Beta virt. eigenvalues --   12.17168  13.23248  13.31207  25.65792  29.44668
  Beta virt. eigenvalues --   29.49693  29.97818  30.38914  30.73351  85.93489
  Beta virt. eigenvalues --  149.87142 149.91326 455.83051
          Condensed to atoms (all electrons):
               1          2          3          4          5          6
     1  C    5.117592   0.555319  -0.121747   0.415025   0.432591  -0.000818
     2  S    0.555319  14.723424   0.555326  -0.037918  -0.029867  -0.029866
     3  C   -0.121747   0.555326   5.117520   0.002825  -0.000816   0.432594
     4  H    0.415025  -0.037918   0.002825   0.524322  -0.035235  -0.000165
     5  H    0.432591  -0.029867  -0.000816  -0.035235   0.512164   0.002670
     6  H   -0.000818  -0.029866   0.432594  -0.000165   0.002670   0.512165
     7  H    0.002825  -0.037919   0.415023  -0.000202  -0.000165  -0.035238
               7
     1  C    0.002825
     2  S   -0.037919
     3  C    0.415023
     4  H   -0.000202
     5  H   -0.000165
     6  H   -0.035238
     7  H    0.524327
          Atomic-Atomic Spin Densities.
               1          2          3          4          5          6
     1  C    0.000000   0.000000   0.000000   0.000000   0.000000   0.000000
     2  S    0.000000   0.000000   0.000000   0.000000   0.000000   0.000000
     3  C    0.000000   0.000000   0.000000   0.000000   0.000000   0.000000
     4  H    0.000000   0.000000   0.000000   0.000000   0.000000   0.000000
     5  H    0.000000   0.000000   0.000000   0.000000   0.000000   0.000000
     6  H    0.000000   0.000000   0.000000   0.000000   0.000000   0.000000
     7  H    0.000000   0.000000   0.000000   0.000000   0.000000   0.000000
               7
     1  C    0.000000
     2  S    0.000000
     3  C    0.000000
     4  H    0.000000
     5  H    0.000000
     6  H    0.000000
     7  H    0.000000
 Mulliken charges and spin densities:
               1          2
     1  C   -0.400787   0.000000
     2  S    0.301501   0.000000
     3  C   -0.400725   0.000000
     4  H    0.131348   0.000000
     5  H    0.118656   0.000000
     6  H    0.118657   0.000000
     7  H    0.131348   0.000000
 Sum of Mulliken charges =  -0.00000   0.00000
 Mulliken charges and spin densities with hydrogens summed into heavy atoms:
               1          2
     1  C   -0.150782   0.000000
     2  S    0.301501   0.000000
     3  C   -0.150719   0.000000
 Electronic spatial extent (au):  <R**2>=            871.8638
 Charge=             -0.0000 electrons
 Dipole moment (field-independent basis, Debye):
    X=             -0.1308    Y=              0.0663    Z=             -0.1747  Tot=              0.2281
 Quadrupole moment (field-independent basis, Debye-Ang):
   XX=            -25.4958   YY=            -29.0790   ZZ=            -25.4797
   XY=              0.3960   XZ=             -0.1422   YZ=             -1.9284
 Traceless Quadrupole moment (field-independent basis, Debye-Ang):
   XX=              1.1891   YY=             -2.3941   ZZ=              1.2051
   XY=              0.3960   XZ=             -0.1422   YZ=             -1.9284
 Octapole moment (field-independent basis, Debye-Ang**2):
  XXX=           -174.3945  YYY=            -22.0762  ZZZ=             26.7318  XYY=            -67.1863
  XXY=             -4.0027  XXZ=              7.9123  XZZ=            -61.9930  YZZ=             -3.8289
  YYZ=             10.0100  XYZ=             -3.2221
 Hexadecapole moment (field-independent basis, Debye-Ang**3):
 XXXX=           -959.5316 YYYY=            -72.3640 ZZZZ=           -122.8701 XXXY=            -47.2688
 XXXZ=             81.7507 YYYX=            -72.8732 YYYZ=             26.8796 ZZZX=             93.6400
 ZZZY=             16.1163 XXYY=           -198.6493 XXZZ=           -197.6247 YYZZ=            -31.0319
 XXYZ=             -1.5083 YYXZ=             34.1018 ZZXY=            -12.7675
 N-N= 1.003080120317D+02 E-N=-1.327845168033D+03  KE= 4.752659455733D+02
                          Isotropic Fermi Contact Couplings
        Atom                 a.u.       MegaHertz       Gauss      10(-4) cm-1
     1  C(13)              0.00000       0.00000       0.00000       0.00000
     2  S(33)              0.00000       0.00000       0.00000       0.00000
     3  C(13)              0.00000       0.00000       0.00000       0.00000
     4  H(1)               0.00000       0.00000       0.00000       0.00000
     5  H(1)               0.00000       0.00000       0.00000       0.00000
     6  H(1)               0.00000       0.00000       0.00000       0.00000
     7  H(1)               0.00000       0.00000       0.00000       0.00000
 --------------------------------------------------------
       Center         ----  Spin Dipole Couplings  ----
                      3XX-RR        3YY-RR        3ZZ-RR
 --------------------------------------------------------
     1   Atom        0.000000      0.000000      0.000000
     2   Atom        0.000000      0.000000      0.000000
     3   Atom        0.000000      0.000000      0.000000
     4   Atom        0.000000      0.000000      0.000000
     5   Atom        0.000000      0.000000      0.000000
     6   Atom        0.000000      0.000000      0.000000
     7   Atom        0.000000      0.000000      0.000000
 --------------------------------------------------------
                        XY            XZ            YZ
 --------------------------------------------------------
     1   Atom        0.000000      0.000000      0.000000
     2   Atom        0.000000      0.000000      0.000000
     3   Atom        0.000000      0.000000      0.000000
     4   Atom        0.000000      0.000000      0.000000
     5   Atom        0.000000      0.000000      0.000000
     6   Atom        0.000000      0.000000      0.000000
     7   Atom        0.000000      0.000000      0.000000
 --------------------------------------------------------


 ---------------------------------------------------------------------------------
              Anisotropic Spin Dipole Couplings in Principal Axis System
 ---------------------------------------------------------------------------------

       Atom             a.u.   MegaHertz   Gauss  10(-4) cm-1        Axes

              Baa     0.0000     0.000     0.000     0.000  1.0000  0.0000  0.0000
     1 C(13)  Bbb     0.0000     0.000     0.000     0.000 -0.0000  1.0000  0.0000
              Bcc     0.0000     0.000     0.000     0.000  0.0000  0.0000  1.0000
 
              Baa     0.0000     0.000     0.000     0.000  1.0000  0.0000  0.0000
     2 S(33)  Bbb     0.0000     0.000     0.000     0.000 -0.0000  1.0000  0.0000
              Bcc     0.0000     0.000     0.000     0.000  0.0000  0.0000  1.0000
 
              Baa     0.0000     0.000     0.000     0.000  1.0000  0.0000  0.0000
     3 C(13)  Bbb     0.0000     0.000     0.000     0.000 -0.0000  1.0000  0.0000
              Bcc     0.0000     0.000     0.000     0.000  0.0000  0.0000  1.0000
 
              Baa     0.0000     0.000     0.000     0.000  1.0000  0.0000  0.0000
     4 H(1)   Bbb     0.0000     0.000     0.000     0.000 -0.0000  1.0000  0.0000
              Bcc     0.0000     0.000     0.000     0.000  0.0000  0.0000  1.0000
 
              Baa     0.0000     0.000     0.000     0.000  1.0000  0.0000  0.0000
     5 H(1)   Bbb     0.0000     0.000     0.000     0.000 -0.0000  1.0000  0.0000
              Bcc     0.0000     0.000     0.000     0.000  0.0000  0.0000  1.0000
 
              Baa     0.0000     0.000     0.000     0.000  1.0000  0.0000  0.0000
     6 H(1)   Bbb     0.0000     0.000     0.000     0.000 -0.0000  1.0000  0.0000
              Bcc     0.0000     0.000     0.000     0.000  0.0000  0.0000  1.0000
 
              Baa     0.0000     0.000     0.000     0.000  1.0000  0.0000  0.0000
     7 H(1)   Bbb     0.0000     0.000     0.000     0.000 -0.0000  1.0000  0.0000
              Bcc     0.0000     0.000     0.000     0.000  0.0000  0.0000  1.0000
 

 ---------------------------------------------------------------------------------

 No NMR shielding tensors so no spin-rotation constants.
 Leave Link  601 at Tue Jan  3 09:08:58 2023, MaxMem=   536870912 cpu:               0.6 elap:               0.3
 (Enter /opt/software/gaussian/g16.c01/l801.exe)
 Range of M.O.s used for correlation:     1   304
 NBasis=   304 NAE=    16 NBE=    16 NFC=     0 NFV=     0
 NROrb=    304 NOA=    16 NOB=    16 NVA=   288 NVB=   288

 **** Warning!!: The largest alpha MO coefficient is  0.20505533D+02


 **** Warning!!: The largest beta MO coefficient is  0.20505533D+02

 Leave Link  801 at Tue Jan  3 09:08:58 2023, MaxMem=   536870912 cpu:               0.1 elap:               0.0
 (Enter /opt/software/gaussian/g16.c01/l914.exe)
 UHF ground state
 Doing stability rather than CIS.
 Two-electron integral symmetry not used.
 MDV=   536870912 DFT=F DoStab=T Mixed=F DoRPA=F DoScal=F NonHer=F
 Making orbital integer symmetry assigments:
 FoFJK:  IHMeth= 1 ICntrl=       0 DoSepK=F KAlg= 0 I1Cent=           0 FoldK=F
 IRaf=         0 NMat=       2 IRICut=       1 DoRegI=T DoRafI=F ISym2E= 0 IDoP0=0 IntGTp=1.
 FoFCou: FMM=F IPFlag=           0 FMFlag=      100000 FMFlg1=           0
         NFxFlg=           0 DoJE=F BraDBF=F KetDBF=F FulRan=T
         wScrn=  0.000000 ICntrl=         0 IOpCl=  1 I1Cent=           0 NGrid=           0
         NMat0=    2 NMatS0=      2 NMatT0=    0 NMatD0=    2 NMtDS0=    0 NMtDT0=    0
 Symmetry not used in FoFCou.
    12 initial guesses have been made.
 Convergence on wavefunction:    0.001000000000000
 Davidson Disk Diagonalization:  ConvIn= 1.00D-03 SkipCon=T Conv= 1.00D-03.
 Max sub-space:  2000 roots to seek:    12 dimension of matrix:         9216
 Iteration     1 Dimension    12 NMult     0 NNew     12
 CISAX will form    12 AO SS matrices at one time.
 NMat=    12 NSing=    12 JSym2X= 0.
 Excitation Energies [eV] at current iteration:
 Root      1 :    -0.762979452627919
 Root      2 :     4.285927341377322
 Root      3 :     4.885073823801804
 Root      4 :     5.609929869298646
 Root      5 :     6.084157303577542
 Root      6 :     6.100098105130855
 Root      7 :     6.437632124797472
 Root      8 :     6.450574941869838
 Root      9 :     7.080396849342698
 Root     10 :     8.080455455547927
 Root     11 :     8.622879677429772
 Root     12 :    12.126096873200417
 Iteration     2 Dimension    24 NMult    12 NNew     12
 CISAX will form    12 AO SS matrices at one time.
 NMat=    12 NSing=    12 JSym2X= 0.
 Root      1 not converged, maximum delta is    0.088151305120685
 Excitation Energies [eV] at current iteration:
 Root      1 :    -1.976953813127681   Change is   -1.213974360499762
 Root      2 :     3.075623525882119   Change is   -1.210303815495203
 Root      3 :     3.717725206147103   Change is   -1.167348617654701
 Root      4 :     4.341427546761230   Change is   -3.739027908786697
 Root      5 :     4.673513063104729   Change is   -0.936416806193917
 Root      6 :     5.453098317930232   Change is   -0.984533806867239
 Root      7 :     5.534255173090319   Change is   -0.916319768779518
 Root      8 :     5.546800735080551   Change is   -0.553297370050304
 Root      9 :     5.748702442466390   Change is   -0.335454861111152
 Root     10 :     6.380899183722366   Change is   -0.699497665620331
 Root     11 :     7.532861955942860   Change is   -1.090017721486912
 Root     12 :     8.584800914856167   Change is   -3.541295958344249
 Iteration     3 Dimension    27 NMult    24 NNew      3
 CISAX will form     3 AO SS matrices at one time.
 NMat=     3 NSing=     3 JSym2X= 0.
 Root      1 not converged, maximum delta is    0.018128954207751
 Excitation Energies [eV] at current iteration:
 Root      1 :    -2.034790785492438   Change is   -0.057836972364757
 Root      2 :     2.976994918289226   Change is   -0.098628607592893
 Root      3 :     3.641182998338418   Change is   -0.076542207808685
 Iteration     4 Dimension    30 NMult    27 NNew      3
 CISAX will form     3 AO SS matrices at one time.
 NMat=     3 NSing=     3 JSym2X= 0.
 Root      1 not converged, maximum delta is    0.002866563967554
 Excitation Energies [eV] at current iteration:
 Root      1 :    -2.039538147466038   Change is   -0.004747361973600
 Root      2 :     2.961902085537871   Change is   -0.015092832751355
 Root      3 :     3.631531196787080   Change is   -0.009651801551338
 Iteration     5 Dimension    33 NMult    30 NNew      3
 CISAX will form     3 AO SS matrices at one time.
 NMat=     3 NSing=     3 JSym2X= 0.
 Root      1 not converged, maximum delta is    0.001255868896809
 Excitation Energies [eV] at current iteration:
 Root      1 :    -2.039860204744436   Change is   -0.000322057278398
 Root      2 :     2.959400991293163   Change is   -0.002501094244708
 Root      3 :     3.630717161761995   Change is   -0.000814035025085
 Cease iterating as an instability has been found.
 ***********************************************************************
 Stability analysis using <AA,BB:AA,BB> singles matrix:
 ***********************************************************************
 1PDM for each excited state written to RWF  633
 Ground to excited state transition densities written to RWF  633

 Eigenvectors of the stability matrix:
 
 Excited state symmetry could not be determined.
 Eigenvector   1:  3.000-?Sym  Eigenvalue=-0.0749635  <S**2>=2.000
     16A -> 17A       -0.64637
     16A -> 24A       -0.15556
     16A -> 30A        0.17473
     16B -> 17B        0.64637
     16B -> 24B        0.15556
     16B -> 30B       -0.17473
 
 Excited state symmetry could not be determined.
 Eigenvector   2:  3.000-?Sym  Eigenvalue= 0.1087560  <S**2>=2.000
     14A -> 17A       -0.62464
     14A -> 30A        0.17515
     16A -> 26A       -0.14908
     16A -> 38A        0.11705
     14B -> 17B        0.62464
     14B -> 30B       -0.17515
     16B -> 26B        0.14908
     16B -> 38B       -0.11705
 
 Excited state symmetry could not be determined.
 Eigenvector   3:  3.000-?Sym  Eigenvalue= 0.1334264  <S**2>=2.000
     15A -> 17A       -0.53916
     16A -> 19A       -0.24760
     16A -> 22A       -0.12440
     16A -> 23A       -0.17051
     16A -> 28A       -0.12123
     16A -> 31A        0.11651
     15B -> 17B        0.53916
     16B -> 19B        0.24760
     16B -> 22B        0.12440
     16B -> 23B        0.17051
     16B -> 28B        0.12123
     16B -> 31B       -0.11651
 The wavefunction has an internal instability.
 Leave Link  914 at Tue Jan  3 09:15:04 2023, MaxMem=   536870912 cpu:             733.0 elap:             366.7
 (Enter /opt/software/gaussian/g16.c01/l508.exe)
 Two-electron integral symmetry not used.
 Very tight linear equation convergence will be used.
 UHF wavefunction.
 Quadratic Convergence SCF Method.
 Line search only if initial step raises energy.
 Fock matrices will be formed incrementally for  20 cycles.
 Perform preliminary linear searches along instability eigenvector.
     ILin= 1 X=0.000D+00 Y=-4.755463943244D+02 DE= 0.00D+00
 FoFJK:  IHMeth= 1 ICntrl=       0 DoSepK=F KAlg= 0 I1Cent=           0 FoldK=F
 IRaf= 970000000 NMat=       1 IRICut=       1 DoRegI=T DoRafI=F ISym2E= 0 IDoP0=0 IntGTp=1.
 FoFCou: FMM=F IPFlag=           0 FMFlag=      100000 FMFlg1=           0
         NFxFlg=           0 DoJE=F BraDBF=F KetDBF=F FulRan=T
         wScrn=  0.000000 ICntrl=         0 IOpCl=  1 I1Cent=           0 NGrid=           0
         NMat0=    1 NMatS0=      1 NMatT0=    0 NMatD0=    1 NMtDS0=    0 NMtDT0=    0
 Symmetry not used in FoFCou.
     ILin= 2 X=1.000D-01 Y=-4.755471317682D+02 DE=-7.37D-04
     ILin= 3 X=1.414D-01 Y=-4.755478451358D+02 DE=-1.45D-03
     ILin= 4 X=2.000D-01 Y=-4.755492004211D+02 DE=-2.81D-03
     ILin= 5 X=2.828D-01 Y=-4.755516305953D+02 DE=-5.24D-03
     ILin= 6 X=4.000D-01 Y=-4.755554117519D+02 DE=-9.02D-03
     ILin= 7 X=5.657D-01 Y=-4.755589827872D+02 DE=-1.26D-02
     ILin= 8 X=8.000D-01 Y=-4.755525547263D+02 DE=-6.16D-03
     Reject polynomial IMin12=  6  7 Big=T Turn=T Min=-6.710D-01 FVal=-4.755607974315D+02 Lims=  4.00D-01  8.00D-01
     ILin= 9 X=1.131D+00 Y=-4.755015699016D+02 DE= 4.48D-02
     Reject polynomial IMin12=  6  7 Big=T Turn=T Min=-6.235D-01 FVal=-4.755597511803D+02 Lims=  4.00D-01  8.00D-01
     ILin=10 X=1.600D+00 Y=-4.753375071283D+02 DE= 2.09D-01
     An  expanding polynomial of degree 10 produced  0.5979
 Iteration F X= 5.979D-01 EE=-4.755591094631981D+02
     ILin= 1 X=0.000D+00 Y=-4.755463943244D+02 DE= 0.00D+00
     ILin= 2 X=1.000D-01 Y=-4.755471317597D+02 DE=-7.37D-04
     ILin= 3 X=1.414D-01 Y=-4.755478451117D+02 DE=-1.45D-03
 The two search directions are symmetric.
 Iteration B X= 5.979D-01 EE=-4.755591094631981D+02
 Take forward step, X= 5.979D-01 Step= 5.979D-01
 Iteration   1 EE= -475.559109458866                                    Grad=4.839D-02 Max rot=    0.8746 deg.
 Gradient too large for Newton-Raphson -- use scaled steepest descent instead.
 Alpha Gap=     0.416 HL deriv= 3.63D-03
  Beta Gap=     0.416 HL deriv= 3.61D-03
     ILin= 1 X=0.000D+00 Y=-4.755591094589D+02 DE= 0.00D+00 F= -4.75D-03
 RMSU=  4.05D-05    CP:  1.00D+00
     ILin= 2 X=3.000D-01 Y=-4.755603950316D+02 DE=-1.29D-03 F= -3.82D-03 OKLS=F
 RMSU=  7.37D-07    CP:  1.00D+00  2.00D+00
     ILin= 3 X=6.000D-01 Y=-4.755613994243D+02 DE=-2.29D-03 F= -2.88D-03
 RMSU=  4.09D-05    CP:  1.00D+00  3.00D+00  3.00D+00
     ILin= 4 X=1.200D+00 Y=-4.755625634708D+02 DE=-3.45D-03 F= -1.00D-03
 RMSU=  6.85D-05    CP:  1.00D+00  3.00D+00  3.00D+00  3.00D+00
     ILin= 5 X=2.300D+00 Y=-4.755617681248D+02 DE=-2.66D-03 F=  2.45D-03
     An  expanding polynomial of degree  5 produced  1.5194
 RMSU=  8.12D-07    CP:  1.00D+00  3.00D+00  3.00D+00  2.06D+00  1.10D-03
 Iteration   2 EE= -475.562723269549     Delta-E=       -0.003613810684 Grad=2.448D-02 Max rot=    0.3843 deg.
 Gradient too large for Newton-Raphson -- use scaled steepest descent instead.
 Alpha Gap=     0.416 HL deriv= 1.61D-02
  Beta Gap=     0.416 HL deriv= 1.61D-02
     ILin= 1 X=0.000D+00 Y=-4.755627232695D+02 DE= 0.00D+00 F= -1.19D-03
 RMSU=  4.26D-05    CP:  1.00D+00  3.00D+00  3.00D+00  2.24D+00  5.02D-03
                    CP:  3.00D+00
     ILin= 2 X=7.000D-01 Y=-4.755633266141D+02 DE=-6.03D-04 F= -5.37D-04 OKLS=F
 RMSU=  2.30D-06    CP:  1.00D+00  3.00D+00  3.00D+00  2.41D+00  9.66D-03
                    CP:  3.00D+00  2.00D+00
     ILin= 3 X=1.400D+00 Y=-4.755634738700D+02 DE=-7.51D-04 F=  1.17D-04
     Accept linear search using points  2 and  3.
     An  expanding polynomial of degree  3 produced  1.1948
 RMSU=  5.97D-08    CP:  1.00D+00  3.00D+00  3.00D+00  2.36D+00  8.22D-03
                    CP:  3.00D+00  1.71D+00  6.72D-01
 Iteration   3 EE= -475.563478103064     Delta-E=       -0.000754833515 Grad=1.958D-02 Max rot=    0.2251 deg.
 Gradient too large for Newton-Raphson -- use scaled steepest descent instead.
 Alpha Gap=     0.422 HL deriv= 9.29D-03
  Beta Gap=     0.422 HL deriv= 9.31D-03
     ILin= 1 X=0.000D+00 Y=-4.755634781031D+02 DE= 0.00D+00 F= -6.13D-04
 RMSU=  4.08D-05    CP:  1.00D+00  3.00D+00  3.00D+00  3.00D+00  2.07D-01
                    CP:  3.00D+00  1.99D+00  1.20D+00  3.00D+00
     ILin= 2 X=1.300D+00 Y=-4.755638724612D+02 DE=-3.94D-04 F=  6.93D-06 OKLS=T
     Accept linear search using points  1 and  2.
     An  expanding polynomial of degree  2 produced  1.2928
     Minimum is close to point  2 DX= -7.22D-03 DF= -1.92D-08 DXR=  5.58D-03 DFR=  4.88D-05 which will be used.
 Iteration   4 EE= -475.563872461228     Delta-E=       -0.000394358163 Grad=1.553D-02 Max rot=    0.2252 deg.
 Gradient too large for Newton-Raphson -- use scaled steepest descent instead.
 Alpha Gap=     0.423 HL deriv= 9.05D-03
  Beta Gap=     0.423 HL deriv= 9.02D-03
     ILin= 1 X=0.000D+00 Y=-4.755638724612D+02 DE= 0.00D+00 F= -4.45D-04
 RMSU=  1.98D-05    CP:  1.00D+00  3.00D+00  3.00D+00  3.00D+00  3.54D-01
                    CP:  3.00D+00  2.80D+00  2.86D+00  3.00D+00  8.64D-01
     ILin= 2 X=1.200D+00 Y=-4.755641093448D+02 DE=-2.37D-04 F=  5.01D-05 OKLS=T
     Accept linear search using points  1 and  2.
     An  expanding polynomial of degree  2 produced  1.1177
     Minimum is close to point  2 DX= -8.23D-02 DF= -1.70D-06 DXR=  7.36D-02 DFR=  7.19D-03 which will be used.
 Iteration   5 EE= -475.564109344766     Delta-E=       -0.000236883538 Grad=1.376D-02 Max rot=    0.1288 deg.
 Gradient too large for Newton-Raphson -- use scaled steepest descent instead.
 Alpha Gap=     0.427 HL deriv= 5.23D-03
  Beta Gap=     0.428 HL deriv= 5.26D-03
     ILin= 1 X=0.000D+00 Y=-4.755641093448D+02 DE= 0.00D+00 F= -2.77D-04
 RMSU=  4.75D-06    CP:  1.00D+00  3.00D+00  3.00D+00  3.00D+00  6.94D-01
                    CP:  3.00D+00  2.89D+00  2.75D+00  3.00D+00  1.49D+00
                    CP:  8.95D-01
     ILin= 2 X=1.200D+00 Y=-4.755642517333D+02 DE=-1.42D-04 F=  4.00D-05 OKLS=T
     Accept linear search using points  1 and  2.
     An  expanding polynomial of degree  2 produced  1.0945
     Minimum is close to point  2 DX= -1.06D-01 DF= -1.74D-06 DXR=  9.64D-02 DFR=  1.22D-02 which will be used.
 Iteration   6 EE= -475.564251733278     Delta-E=       -0.000142388512 Grad=9.861D-03 Max rot=    0.1389 deg.
 QCNR:  CnvC1=9.60D-10 CnvC2=9.60D-09
 LinEq1:  Iter=  0 NonCon=     1 RMS=1.23D-04 Max=6.35D-03 NDo=     1
 AX will form     1 AO Fock derivatives at one time.
 LinEq1:  Iter=  1 NonCon=     1 RMS=6.71D-05 Max=1.92D-03 NDo=     1
 LinEq1:  Iter=  2 NonCon=     1 RMS=3.38D-06 Max=1.02D-04 NDo=     1
 LinEq1:  Iter=  3 NonCon=     1 RMS=9.03D-07 Max=2.06D-05 NDo=     1
 LinEq1:  Iter=  4 NonCon=     1 RMS=3.27D-07 Max=9.69D-06 NDo=     1
 LinEq1:  Iter=  5 NonCon=     1 RMS=5.51D-08 Max=8.43D-07 NDo=     1
 LinEq1:  Iter=  6 NonCon=     1 RMS=1.90D-08 Max=5.23D-07 NDo=     1
 LinEq1:  Iter=  7 NonCon=     1 RMS=6.95D-09 Max=1.46D-07 NDo=     1
 LinEq1:  Iter=  8 NonCon=     1 RMS=1.69D-09 Max=2.72D-08 NDo=     1
 LinEq1:  Iter=  9 NonCon=     0 RMS=4.08D-10 Max=6.78D-09 NDo=     1
 Linear equations converged to 9.600D-10 9.600D-09 after     9 iterations.
 Angle between quadratic step and gradient=  59.48 degrees.
     ILin= 1 X=0.000D+00 Y=-4.755642517333D+02 DE= 0.00D+00 F= -4.17D-04
 RMSU=  5.00D-05    CP:  1.00D+00  3.00D+00  3.00D+00  3.00D+00  1.38D+00
                    CP:  3.00D+00  3.00D+00  3.00D+00  3.00D+00  2.13D+00
                    CP:  2.29D+00  2.96D+00
     ILin= 2 X=1.000D+00 Y=-4.755644539756D+02 DE=-2.02D-04 F=  1.91D-05 OKLS=T
     Accept linear search using points  1 and  2.
     An  expanding polynomial of degree  2 produced  0.9580
     Minimum is close to point  2 DX= -4.20D-02 DF= -4.01D-07 DXR=  4.38D-02 DFR=  1.98D-03 which will be used.
 Iteration   7 EE= -475.564453975590     Delta-E=       -0.000202242312 Grad=3.477D-04 Max rot=    0.0084 deg.
 QCNR:  CnvC1=9.60D-10 CnvC2=9.60D-09
 LinEq1:  Iter=  0 NonCon=     1 RMS=6.41D-06 Max=3.48D-04 NDo=     1
 LinEq1:  Iter=  1 NonCon=     1 RMS=1.28D-06 Max=6.11D-05 NDo=     1
 LinEq1:  Iter=  2 NonCon=     1 RMS=4.50D-07 Max=1.06D-05 NDo=     1
 LinEq1:  Iter=  3 NonCon=     1 RMS=1.03D-07 Max=3.15D-06 NDo=     1
 LinEq1:  Iter=  4 NonCon=     1 RMS=2.75D-08 Max=4.87D-07 NDo=     1
 LinEq1:  Iter=  5 NonCon=     1 RMS=9.05D-09 Max=1.76D-07 NDo=     1
 LinEq1:  Iter=  6 NonCon=     1 RMS=2.33D-09 Max=3.58D-08 NDo=     1
 LinEq1:  Iter=  7 NonCon=     1 RMS=6.80D-10 Max=1.12D-08 NDo=     1
 LinEq1:  Iter=  8 NonCon=     0 RMS=1.68D-10 Max=3.24D-09 NDo=     1
 Linear equations converged to 9.600D-10 9.600D-09 after     8 iterations.
 Angle between quadratic step and gradient=  33.85 degrees.
     ILin= 1 X=0.000D+00 Y=-4.755644539756D+02 DE= 0.00D+00 F= -1.25D-06
 RMSU=  7.91D-07    CP:  1.00D+00  3.00D+00  3.00D+00  3.00D+00  1.35D+00
                    CP:  3.00D+00  3.00D+00  3.00D+00  3.00D+00  2.08D+00
                    CP:  2.20D+00  2.82D+00  9.52D-01
     ILin= 2 X=1.000D+00 Y=-4.755644545996D+02 DE=-6.24D-07 F= -4.57D-09 OKLS=T
     Reject lnstep IMin12=  1  2 Big=T Turn=F Min= 1.004D+00 FVal=-4.755644545996D+02 Lims=  0.00D+00  1.00D+00
 RMSU=  9.89D-09    CP:  1.00D+00  3.00D+00  3.00D+00  3.00D+00  1.33D+00
                    CP:  3.00D+00  3.00D+00  3.00D+00  3.00D+00  2.04D+00
                    CP:  2.12D+00  2.69D+00  9.05D-01  2.00D+00
     ILin= 3 X=2.000D+00 Y=-4.755644539878D+02 DE=-1.22D-08 F=  1.23D-06
     An  expanding polynomial of degree  3 produced  1.0049
     Minimum is close to point  2 DX=  4.93D-03 DF= -1.50D-11 DXR=  4.90D-03 DFR=  2.40D-05 which will be used.
 Iteration   8 EE= -475.564454599628     Delta-E=       -0.000000624038 Grad=1.791D-06 Max rot=    0.0000 deg.
 QCNR:  CnvC1=1.79D-11 CnvC2=1.79D-10
 LinEq1:  Iter=  0 NonCon=     1 RMS=2.38D-08 Max=1.38D-06 NDo=     1
 LinEq1:  Iter=  1 NonCon=     1 RMS=4.49D-09 Max=1.12D-07 NDo=     1
 LinEq1:  Iter=  2 NonCon=     1 RMS=2.14D-09 Max=9.95D-08 NDo=     1
 LinEq1:  Iter=  3 NonCon=     1 RMS=5.19D-10 Max=1.35D-08 NDo=     1
 LinEq1:  Iter=  4 NonCon=     1 RMS=2.05D-10 Max=5.24D-09 NDo=     1
 LinEq1:  Iter=  5 NonCon=     1 RMS=4.77D-11 Max=9.45D-10 NDo=     1
 LinEq1:  Iter=  6 NonCon=     1 RMS=2.03D-11 Max=4.58D-10 NDo=     1
 LinEq1:  Iter=  7 NonCon=     0 RMS=4.39D-12 Max=5.48D-11 NDo=     1
 Linear equations converged to 1.791D-11 1.791D-10 after     7 iterations.
 Angle between quadratic step and gradient=  53.32 degrees.
     ILin= 1 X=0.000D+00 Y=-4.755644545996D+02 DE= 0.00D+00 F= -1.79D-11
 RMSU=  2.97D-09    CP:  1.00D+00  3.00D+00  3.00D+00  3.00D+00  1.35D+00
                    CP:  3.00D+00  3.00D+00  3.00D+00  3.00D+00  2.08D+00
                    CP:  2.20D+00  2.82D+00  9.52D-01  1.00D+00 -2.39D-02
     ILin= 2 X=1.000D+00 Y=-4.755644545996D+02 DE=-7.62D-12
 Iteration   9 EE= -475.564454599636     Delta-E=       -0.000000000008 Grad=2.028D-08 Max rot=    0.0000 deg.
 Rotation gradient small -- convergence achieved.
 SCF Done:  E(UHF) =  -475.564454600     a.u. after    9 cycles
            Convg  =    0.2028D-07                    51 Fock formations.
              S**2 =  0.7234                  -V/T =  1.9999
 <Sx>= 0.0000 <Sy>= 0.0000 <Sz>= 0.0000 <S**2>= 0.7234 S= 0.4866
 <L.S>=  0.00000000000    
 Annihilation of the first spin contaminant:
 S**2 before annihilation     0.7234,   after     0.1410
 Leave Link  508 at Tue Jan  3 09:32:27 2023, MaxMem=   536870912 cpu:            2084.1 elap:            1042.6
 (Enter /opt/software/gaussian/g16.c01/l801.exe)
 Range of M.O.s used for correlation:     1   304
 NBasis=   304 NAE=    16 NBE=    16 NFC=     0 NFV=     0
 NROrb=    304 NOA=    16 NOB=    16 NVA=   288 NVB=   288

 **** Warning!!: The largest alpha MO coefficient is  0.20759116D+02


 **** Warning!!: The largest beta MO coefficient is  0.20758124D+02

 Leave Link  801 at Tue Jan  3 09:32:27 2023, MaxMem=   536870912 cpu:               0.1 elap:               0.0
 (Enter /opt/software/gaussian/g16.c01/l914.exe)
 UHF ground state
 Doing stability rather than CIS.
 Two-electron integral symmetry not used.
 MDV=   536870912 DFT=F DoStab=T Mixed=F DoRPA=F DoScal=F NonHer=F
 Making orbital integer symmetry assigments:
 FoFJK:  IHMeth= 1 ICntrl=       0 DoSepK=F KAlg= 0 I1Cent=           0 FoldK=F
 IRaf=         0 NMat=       2 IRICut=       1 DoRegI=T DoRafI=F ISym2E= 0 IDoP0=0 IntGTp=1.
 FoFCou: FMM=F IPFlag=           0 FMFlag=      100000 FMFlg1=           0
         NFxFlg=           0 DoJE=F BraDBF=F KetDBF=F FulRan=T
         wScrn=  0.000000 ICntrl=         0 IOpCl=  1 I1Cent=           0 NGrid=           0
         NMat0=    2 NMatS0=      2 NMatT0=    0 NMatD0=    2 NMtDS0=    0 NMtDT0=    0
 Symmetry not used in FoFCou.
    12 initial guesses have been made.
 Convergence on wavefunction:    0.001000000000000
 Davidson Disk Diagonalization:  ConvIn= 1.00D-03 SkipCon=T Conv= 1.00D-03.
 Max sub-space:  2000 roots to seek:    12 dimension of matrix:         9216
 Iteration     1 Dimension    12 NMult     0 NNew     12
 CISAX will form    12 AO SS matrices at one time.
 NMat=    12 NSing=    12 JSym2X= 0.
 Excitation Energies [eV] at current iteration:
 Root      1 :     4.272067930125139
 Root      2 :     6.067312000592039
 Root      3 :     6.461885608951855
 Root      4 :     6.633074381517974
 Root      5 :     6.679950558353980
 Root      6 :     6.682927673962365
 Root      7 :     7.212845746713927
 Root      8 :     7.346061210731708
 Root      9 :     7.512197260964939
 Root     10 :     7.613524076732670
 Root     11 :     7.613837949950300
 Root     12 :     9.558137520660853
 Iteration     2 Dimension    24 NMult    12 NNew     12
 CISAX will form    12 AO SS matrices at one time.
 NMat=    12 NSing=    12 JSym2X= 0.
 Root      1 not converged, maximum delta is    0.045728983371461
 Excitation Energies [eV] at current iteration:
 Root      1 :     3.344210656067480   Change is   -0.927857274057658
 Root      2 :     4.270455202703440   Change is   -2.409495355650539
 Root      3 :     5.110162814275774   Change is   -0.957149186316265
 Root      4 :     5.740156733154903   Change is   -0.942770940807463
 Root      5 :     5.788858905905657   Change is   -0.673026703046199
 Root      6 :     5.947513414272127   Change is   -0.685560967245848
 Root      7 :     6.328758902439529   Change is   -0.884086844274397
 Root      8 :     6.622697439628912   Change is   -0.723363771102795
 Root      9 :     6.912607102653189   Change is   -0.599590158311751
 Root     10 :     7.092182292381741   Change is   -0.521341784350929
 Root     11 :     7.243371088752389   Change is   -0.370466861197911
 Root     12 :     8.295398675842309   Change is   -1.262738844818544
 Iteration     3 Dimension    27 NMult    24 NNew      3
 CISAX will form     3 AO SS matrices at one time.
 NMat=     3 NSing=     3 JSym2X= 0.
 Root      1 not converged, maximum delta is    0.065405814569665
 Excitation Energies [eV] at current iteration:
 Root      1 :     3.089289539466182   Change is   -0.254921116601298
 Root      2 :     3.455290742714930   Change is   -0.815164459988510
 Root      3 :     5.051166780084994   Change is   -0.058996034190780
 Iteration     4 Dimension    30 NMult    27 NNew      3
 CISAX will form     3 AO SS matrices at one time.
 NMat=     3 NSing=     3 JSym2X= 0.
 Root      1 not converged, maximum delta is    0.020463959984403
 Excitation Energies [eV] at current iteration:
 Root      1 :     3.059186495808333   Change is   -0.030103043657849
 Root      2 :     3.279663944936462   Change is   -0.175626797778468
 Root      3 :     5.041720972362085   Change is   -0.009445807722910
 Iteration     5 Dimension    33 NMult    30 NNew      3
 CISAX will form     3 AO SS matrices at one time.
 NMat=     3 NSing=     3 JSym2X= 0.
 Root      1 not converged, maximum delta is    0.006554496134993
 Excitation Energies [eV] at current iteration:
 Root      1 :     3.053160526205549   Change is   -0.006025969602784
 Root      2 :     3.259194694821968   Change is   -0.020469250114494
 Root      3 :     5.039508964102098   Change is   -0.002212008259986
 Iteration     6 Dimension    36 NMult    33 NNew      3
 CISAX will form     3 AO SS matrices at one time.
 NMat=     3 NSing=     3 JSym2X= 0.
 Root      1 not converged, maximum delta is    0.001552728679667
 Excitation Energies [eV] at current iteration:
 Root      1 :     3.051861624413038   Change is   -0.001298901792510
 Root      2 :     3.255909990332241   Change is   -0.003284704489728
 Root      3 :     5.039147272155830   Change is   -0.000361691946268
 Iteration     7 Dimension    39 NMult    36 NNew      3
 CISAX will form     3 AO SS matrices at one time.
 NMat=     3 NSing=     3 JSym2X= 0.
 Root      1 not converged, maximum delta is    0.001149951160868
 Excitation Energies [eV] at current iteration:
 Root      1 :     3.051563789045300   Change is   -0.000297835367739
 Root      2 :     3.255283178404113   Change is   -0.000626811928127
 Root      3 :     5.039087463411912   Change is   -0.000059808743919
 Iteration     8 Dimension    42 NMult    39 NNew      3
 CISAX will form     3 AO SS matrices at one time.
 NMat=     3 NSing=     3 JSym2X= 0.
 Root      1 has converged.
 Excitation Energies [eV] at current iteration:
 Root      1 :     3.051507524750544   Change is   -0.000056264294756
 Root      2 :     3.255171623283954   Change is   -0.000111555120159
 Root      3 :     5.039074141118555   Change is   -0.000013322293356
 Convergence achieved on expansion vectors.
 ***********************************************************************
 Stability analysis using <AA,BB:AA,BB> singles matrix:
 ***********************************************************************
 1PDM for each excited state written to RWF  633
 Ground to excited state transition densities written to RWF  633

 Eigenvectors of the stability matrix:
 
 Excited state symmetry could not be determined.
 Eigenvector   1:  1.888-?Sym  Eigenvalue= 0.1121408  <S**2>=0.641
     16A -> 17A        0.63344
     16A -> 24A       -0.17852
     16A -> 30A        0.16618
     16B -> 17B        0.63243
     16B -> 24B       -0.17851
     16B -> 30B        0.16598
 The wavefunction is stable under the perturbations considered.
 Leave Link  914 at Tue Jan  3 09:41:31 2023, MaxMem=   536870912 cpu:            1088.5 elap:             544.4
 (Enter /opt/software/gaussian/g16.c01/l508.exe)
 The wavefunction is already stable.
 Leave Link  508 at Tue Jan  3 09:41:32 2023, MaxMem=   536870912 cpu:               0.0 elap:               0.0
 (Enter /opt/software/gaussian/g16.c01/l601.exe)
 Copying SCF densities to generalized density rwf, IOpCl= 1 IROHF=0.

 **********************************************************************

            Population analysis using the SCF Density.

 **********************************************************************

 Alpha  occ. eigenvalues --  -91.98846 -11.25080 -11.23180  -8.98938  -6.67159
 Alpha  occ. eigenvalues --   -6.67016  -6.67011  -1.11272  -0.93953  -0.76564
 Alpha  occ. eigenvalues --   -0.63476  -0.61833  -0.55497  -0.49358  -0.45196
 Alpha  occ. eigenvalues --   -0.31283
 Alpha virt. eigenvalues --    0.10067   0.11608   0.12752   0.14246   0.16714
 Alpha virt. eigenvalues --    0.17469   0.21655   0.21985   0.24486   0.26496
 Alpha virt. eigenvalues --    0.27856   0.28895   0.31241   0.33252   0.34666
 Alpha virt. eigenvalues --    0.36072   0.40609   0.44033   0.44789   0.45159
 Alpha virt. eigenvalues --    0.47719   0.48962   0.50662   0.53897   0.58266
 Alpha virt. eigenvalues --    0.61352   0.64307   0.64982   0.68349   0.69704
 Alpha virt. eigenvalues --    0.76597   0.77845   0.81865   0.83003   0.86058
 Alpha virt. eigenvalues --    0.86255   0.86863   0.87189   0.93776   0.95178
 Alpha virt. eigenvalues --    0.95509   0.96343   0.98074   0.98489   0.98524
 Alpha virt. eigenvalues --    1.03844   1.06104   1.07436   1.13747   1.14310
 Alpha virt. eigenvalues --    1.14775   1.17272   1.18994   1.20833   1.22739
 Alpha virt. eigenvalues --    1.24871   1.26570   1.26803   1.30021   1.35618
 Alpha virt. eigenvalues --    1.36839   1.42522   1.45158   1.48169   1.49710
 Alpha virt. eigenvalues --    1.57547   1.61434   1.63532   1.64401   1.65016
 Alpha virt. eigenvalues --    1.72312   1.74347   1.82304   1.84341   1.91953
 Alpha virt. eigenvalues --    1.93302   2.02690   2.05782   2.07770   2.10780
 Alpha virt. eigenvalues --    2.11981   2.14159   2.14209   2.17496   2.17507
 Alpha virt. eigenvalues --    2.20100   2.21738   2.24378   2.28907   2.30588
 Alpha virt. eigenvalues --    2.33834   2.35355   2.39516   2.44184   2.44548
 Alpha virt. eigenvalues --    2.51264   2.54384   2.54555   2.55503   2.58048
 Alpha virt. eigenvalues --    2.59349   2.62090   2.63682   2.64169   2.70634
 Alpha virt. eigenvalues --    2.72395   2.74763   2.81456   2.82343   2.84335
 Alpha virt. eigenvalues --    2.86796   2.89014   2.90572   2.91142   2.93043
 Alpha virt. eigenvalues --    2.98533   3.02478   3.02507   3.04678   3.05652
 Alpha virt. eigenvalues --    3.08616   3.12194   3.15999   3.17938   3.27864
 Alpha virt. eigenvalues --    3.30904   3.39877   3.40428   3.44991   3.54496
 Alpha virt. eigenvalues --    3.55523   3.60724   3.61894   3.62322   3.63960
 Alpha virt. eigenvalues --    3.67349   3.68745   3.68752   3.69411   3.75578
 Alpha virt. eigenvalues --    3.79204   3.84145   3.85508   3.91802   3.92897
 Alpha virt. eigenvalues --    3.93274   3.99763   4.02251   4.08834   4.08873
 Alpha virt. eigenvalues --    4.11723   4.13042   4.17937   4.25179   4.33020
 Alpha virt. eigenvalues --    4.39066   4.45229   4.45275   4.59592   4.64788
 Alpha virt. eigenvalues --    4.88274   4.92920   5.31224   5.40835   5.57313
 Alpha virt. eigenvalues --    5.58079   5.63335   5.63473   5.64608   5.65013
 Alpha virt. eigenvalues --    5.65457   5.69312   5.70613   5.70764   5.77567
 Alpha virt. eigenvalues --    5.78651   5.89952   5.93452   6.08888   6.12270
 Alpha virt. eigenvalues --    6.15088   6.16664   6.19290   6.20846   6.25446
 Alpha virt. eigenvalues --    6.29326   6.29800   6.32299   6.33372   6.36213
 Alpha virt. eigenvalues --    6.36263   6.41155   6.51946   6.54338   6.60411
 Alpha virt. eigenvalues --    6.64762   6.68563   6.68990   6.70988   6.75532
 Alpha virt. eigenvalues --    6.78810   6.81899   6.84677   6.90079   6.99410
 Alpha virt. eigenvalues --    7.00319   7.07491   7.11304   7.15069   7.20826
 Alpha virt. eigenvalues --    7.23487   7.27267   7.50102   7.52401   7.53382
 Alpha virt. eigenvalues --    7.55117   7.56125   7.61299   7.70119   7.71926
 Alpha virt. eigenvalues --    7.78407   7.82411   7.85137   7.86349   7.87582
 Alpha virt. eigenvalues --    7.90900   7.92811   7.94259   8.00516   8.02467
 Alpha virt. eigenvalues --    8.06205   8.21665   8.23452   8.33234   8.40694
 Alpha virt. eigenvalues --    8.40944   8.45951   8.51586   8.51689   8.54577
 Alpha virt. eigenvalues --    8.56523   8.66026   8.66363   8.69178   8.70277
 Alpha virt. eigenvalues --    8.71506   8.73155   8.75203   8.80150   8.81218
 Alpha virt. eigenvalues --    8.82482   8.97579   8.98293   9.31936   9.33056
 Alpha virt. eigenvalues --    9.35883   9.38010   9.42955   9.44659   9.54158
 Alpha virt. eigenvalues --    9.94633   9.94727  10.05006  10.06679  10.15514
 Alpha virt. eigenvalues --   10.20303  10.20994  10.27080  10.27918  10.29818
 Alpha virt. eigenvalues --   10.79750  10.81867  10.89521  10.92566  12.06724
 Alpha virt. eigenvalues --   12.16986  13.23113  13.31102  25.69690  29.44894
 Alpha virt. eigenvalues --   29.49945  30.02161  30.42977  30.77354  85.97809
 Alpha virt. eigenvalues --  149.87515 149.91708 455.87621
  Beta  occ. eigenvalues --  -91.98846 -11.25081 -11.23179  -8.98938  -6.67159
  Beta  occ. eigenvalues --   -6.67015  -6.67011  -1.11272  -0.93954  -0.76563
  Beta  occ. eigenvalues --   -0.63476  -0.61833  -0.55497  -0.49357  -0.45196
  Beta  occ. eigenvalues --   -0.31285
  Beta virt. eigenvalues --    0.10067   0.11608   0.12752   0.14246   0.16714
  Beta virt. eigenvalues --    0.17469   0.21655   0.21985   0.24486   0.26496
  Beta virt. eigenvalues --    0.27856   0.28895   0.31241   0.33252   0.34665
  Beta virt. eigenvalues --    0.36073   0.40609   0.44033   0.44789   0.45160
  Beta virt. eigenvalues --    0.47719   0.48962   0.50662   0.53897   0.58266
  Beta virt. eigenvalues --    0.61352   0.64307   0.64982   0.68348   0.69705
  Beta virt. eigenvalues --    0.76597   0.77845   0.81865   0.83003   0.86058
  Beta virt. eigenvalues --    0.86254   0.86863   0.87189   0.93776   0.95178
  Beta virt. eigenvalues --    0.95509   0.96343   0.98075   0.98489   0.98524
  Beta virt. eigenvalues --    1.03844   1.06104   1.07436   1.13747   1.14310
  Beta virt. eigenvalues --    1.14775   1.17272   1.18994   1.20833   1.22739
  Beta virt. eigenvalues --    1.24871   1.26570   1.26804   1.30021   1.35617
  Beta virt. eigenvalues --    1.36839   1.42522   1.45158   1.48169   1.49710
  Beta virt. eigenvalues --    1.57547   1.61434   1.63532   1.64400   1.65016
  Beta virt. eigenvalues --    1.72312   1.74347   1.82304   1.84342   1.91953
  Beta virt. eigenvalues --    1.93302   2.02690   2.05782   2.07770   2.10779
  Beta virt. eigenvalues --    2.11980   2.14159   2.14209   2.17496   2.17507
  Beta virt. eigenvalues --    2.20100   2.21738   2.24378   2.28907   2.30588
  Beta virt. eigenvalues --    2.33834   2.35355   2.39516   2.44184   2.44547
  Beta virt. eigenvalues --    2.51264   2.54382   2.54555   2.55505   2.58049
  Beta virt. eigenvalues --    2.59349   2.62090   2.63682   2.64169   2.70634
  Beta virt. eigenvalues --    2.72395   2.74763   2.81456   2.82343   2.84335
  Beta virt. eigenvalues --    2.86796   2.89015   2.90571   2.91142   2.93043
  Beta virt. eigenvalues --    2.98533   3.02478   3.02507   3.04678   3.05652
  Beta virt. eigenvalues --    3.08616   3.12195   3.15999   3.17938   3.27864
  Beta virt. eigenvalues --    3.30904   3.39877   3.40428   3.44991   3.54496
  Beta virt. eigenvalues --    3.55523   3.60723   3.61895   3.62321   3.63960
  Beta virt. eigenvalues --    3.67349   3.68745   3.68753   3.69411   3.75578
  Beta virt. eigenvalues --    3.79204   3.84145   3.85508   3.91801   3.92897
  Beta virt. eigenvalues --    3.93275   3.99763   4.02252   4.08835   4.08873
  Beta virt. eigenvalues --    4.11724   4.13042   4.17937   4.25179   4.33019
  Beta virt. eigenvalues --    4.39066   4.45229   4.45277   4.59592   4.64788
  Beta virt. eigenvalues --    4.88274   4.92920   5.31223   5.40836   5.57311
  Beta virt. eigenvalues --    5.58077   5.63335   5.63472   5.64611   5.65010
  Beta virt. eigenvalues --    5.65457   5.69311   5.70614   5.70764   5.77568
  Beta virt. eigenvalues --    5.78651   5.89951   5.93453   6.08888   6.12270
  Beta virt. eigenvalues --    6.15087   6.16665   6.19286   6.20849   6.25447
  Beta virt. eigenvalues --    6.29326   6.29800   6.32298   6.33372   6.36213
  Beta virt. eigenvalues --    6.36262   6.41155   6.51946   6.54338   6.60412
  Beta virt. eigenvalues --    6.64760   6.68559   6.68994   6.70988   6.75533
  Beta virt. eigenvalues --    6.78810   6.81900   6.84676   6.90080   6.99410
  Beta virt. eigenvalues --    7.00319   7.07491   7.11304   7.15069   7.20827
  Beta virt. eigenvalues --    7.23478   7.27275   7.50099   7.52404   7.53384
  Beta virt. eigenvalues --    7.55114   7.56125   7.61300   7.70118   7.71926
  Beta virt. eigenvalues --    7.78407   7.82411   7.85137   7.86350   7.87583
  Beta virt. eigenvalues --    7.90900   7.92811   7.94259   8.00516   8.02467
  Beta virt. eigenvalues --    8.06205   8.21664   8.23453   8.33234   8.40689
  Beta virt. eigenvalues --    8.40949   8.45951   8.51587   8.51687   8.54577
  Beta virt. eigenvalues --    8.56523   8.66026   8.66363   8.69179   8.70277
  Beta virt. eigenvalues --    8.71506   8.73155   8.75203   8.80150   8.81218
  Beta virt. eigenvalues --    8.82482   8.97579   8.98293   9.31936   9.33057
  Beta virt. eigenvalues --    9.35883   9.38010   9.42955   9.44659   9.54159
  Beta virt. eigenvalues --    9.94637   9.94723  10.05006  10.06679  10.15514
  Beta virt. eigenvalues --   10.20302  10.20995  10.27081  10.27916  10.29818
  Beta virt. eigenvalues --   10.79750  10.81867  10.89520  10.92567  12.06724
  Beta virt. eigenvalues --   12.16987  13.23112  13.31102  25.69690  29.44894
  Beta virt. eigenvalues --   29.49946  30.02161  30.42977  30.77354  85.97809
  Beta virt. eigenvalues --  149.87515 149.91708 455.87621
          Condensed to atoms (all electrons):
[...]
   195    H    4  pz     Ryd( 2p)     0.00056       1.52940
   196    H    4  pz     Ryd( 3p)     0.00003       5.58598
   197    H    4  pz     Ryd( 4p)     0.00000       7.97979
   198    H    4  dxy    Ryd( 3d)     0.00000       4.12467
   199    H    4  dxy    Ryd( 4d)     0.00000       7.55144
   200    H    4  dxz    Ryd( 3d)     0.00002       4.90100
   201    H    4  dxz    Ryd( 4d)     0.00000       7.97016
   202    H    4  dyz    Ryd( 3d)     0.00003       4.77378
   203    H    4  dyz    Ryd( 4d)     0.00000       7.91025
   204    H    4  dx2y2  Ryd( 3d)     0.00001       4.29289
   205    H    4  dx2y2  Ryd( 4d)     0.00000       7.55140
   206    H    4  dz2    Ryd( 3d)     0.00003       5.02948
   207    H    4  dz2    Ryd( 4d)     0.00000       8.05484
   208    H    4  f(0)   Ryd( 4f)     0.00001       7.08982
   209    H    4  f(C1)  Ryd( 4f)     0.00002       6.98163
   210    H    4  f(S1)  Ryd( 4f)     0.00001       6.92902
   211    H    4  f(C2)  Ryd( 4f)     0.00000       6.84870
   212    H    4  f(S2)  Ryd( 4f)     0.00001       6.78044
   213    H    4  f(C3)  Ryd( 4f)     0.00000       6.53501
   214    H    4  f(S3)  Ryd( 4f)     0.00000       6.53114
 
   215    H    5  S      Val( 1S)     0.37814       0.09884
   216    H    5  S      Ryd( 3S)     0.00032       1.30167
   217    H    5  S      Ryd( 2S)     0.00010       1.29611
   218    H    5  S      Ryd( 4S)     0.00000       5.56876
   219    H    5  px     Ryd( 2p)     0.00008       3.10438
   220    H    5  px     Ryd( 3p)     0.00003       4.48631
   221    H    5  px     Ryd( 4p)     0.00000       8.14852
   222    H    5  py     Ryd( 2p)     0.00004       2.50950
   223    H    5  py     Ryd( 3p)     0.00013       3.63232
   224    H    5  py     Ryd( 4p)     0.00000       7.68520
   225    H    5  pz     Ryd( 2p)     0.00019       3.17833
   226    H    5  pz     Ryd( 3p)     0.00003       4.87071
   227    H    5  pz     Ryd( 4p)     0.00000       8.23279
   228    H    5  dxy    Ryd( 3d)     0.00006       3.26031
   229    H    5  dxy    Ryd( 4d)     0.00000       8.46651
   230    H    5  dxz    Ryd( 3d)     0.00002       3.81468
   231    H    5  dxz    Ryd( 4d)     0.00000       8.87867
   232    H    5  dyz    Ryd( 3d)     0.00006       3.44764
   233    H    5  dyz    Ryd( 4d)     0.00000       8.62409
   234    H    5  dx2y2  Ryd( 3d)     0.00001       3.36524
   235    H    5  dx2y2  Ryd( 4d)     0.00000       8.52414
   236    H    5  dz2    Ryd( 3d)     0.00006       3.66660
   237    H    5  dz2    Ryd( 4d)     0.00000       8.80884
   238    H    5  f(0)   Ryd( 4f)     0.00000       7.02658
   239    H    5  f(C1)  Ryd( 4f)     0.00002       6.93549
   240    H    5  f(S1)  Ryd( 4f)     0.00001       6.87818
   241    H    5  f(C2)  Ryd( 4f)     0.00001       6.77719
   242    H    5  f(S2)  Ryd( 4f)     0.00001       6.72912
   243    H    5  f(C3)  Ryd( 4f)     0.00000       6.65572
   244    H    5  f(S3)  Ryd( 4f)     0.00000       6.62563
 
   245    H    6  S      Val( 1S)     0.42019       0.06829
   246    H    6  S      Ryd( 3S)     0.00028       1.29723
   247    H    6  S      Ryd( 2S)     0.00011       1.29586
   248    H    6  S      Ryd( 4S)     0.00001       5.56735
   249    H    6  px     Ryd( 2p)     0.00015       2.94990
   250    H    6  px     Ryd( 3p)     0.00001       4.40070
   251    H    6  px     Ryd( 4p)     0.00000       8.19294
   252    H    6  py     Ryd( 2p)     0.00003       2.53679
   253    H    6  py     Ryd( 3p)     0.00003       3.64841
   254    H    6  py     Ryd( 4p)     0.00000       7.67767
   255    H    6  pz     Ryd( 2p)     0.00019       3.30525
   256    H    6  pz     Ryd( 3p)     0.00003       4.94109
   257    H    6  pz     Ryd( 4p)     0.00000       8.19324
   258    H    6  dxy    Ryd( 3d)     0.00001       3.21489
   259    H    6  dxy    Ryd( 4d)     0.00000       8.44135
   260    H    6  dxz    Ryd( 3d)     0.00002       3.76700
   261    H    6  dxz    Ryd( 4d)     0.00001       8.86868
   262    H    6  dyz    Ryd( 3d)     0.00002       3.50912
   263    H    6  dyz    Ryd( 4d)     0.00000       8.66120
   264    H    6  dx2y2  Ryd( 3d)     0.00002       3.33249
   265    H    6  dx2y2  Ryd( 4d)     0.00000       8.48467
   266    H    6  dz2    Ryd( 3d)     0.00002       3.73983
   267    H    6  dz2    Ryd( 4d)     0.00000       8.84015
   268    H    6  f(0)   Ryd( 4f)     0.00000       7.04141
   269    H    6  f(C1)  Ryd( 4f)     0.00002       6.94722
   270    H    6  f(S1)  Ryd( 4f)     0.00001       6.89878
   271    H    6  f(C2)  Ryd( 4f)     0.00001       6.78145
   272    H    6  f(S2)  Ryd( 4f)     0.00002       6.73275
   273    H    6  f(C3)  Ryd( 4f)     0.00000       6.63893
   274    H    6  f(S3)  Ryd( 4f)     0.00000       6.59360
 
   275    H    7  S      Val( 1S)     0.41446       0.07204
   276    H    7  S      Ryd( 2S)     0.00018       1.93325
   277    H    7  S      Ryd( 3S)     0.00002       3.28559
   278    H    7  S      Ryd( 4S)     0.00001       3.67228
   279    H    7  px     Ryd( 2p)     0.00077       1.75780
   280    H    7  px     Ryd( 3p)     0.00004       6.14391
   281    H    7  px     Ryd( 4p)     0.00000       8.19399
   282    H    7  py     Ryd( 2p)     0.00005       1.15059
   283    H    7  py     Ryd( 3p)     0.00001       4.22903
   284    H    7  py     Ryd( 4p)     0.00000       7.27221
   285    H    7  pz     Ryd( 2p)     0.00019       1.21781
   286    H    7  pz     Ryd( 3p)     0.00001       4.27919
   287    H    7  pz     Ryd( 4p)     0.00000       7.58507
   288    H    7  dxy    Ryd( 3d)     0.00002       4.88457
   289    H    7  dxy    Ryd( 4d)     0.00000       7.95501
   290    H    7  dxz    Ryd( 3d)     0.00002       5.13570
   291    H    7  dxz    Ryd( 4d)     0.00000       8.03258
   292    H    7  dyz    Ryd( 3d)     0.00000       3.85337
   293    H    7  dyz    Ryd( 4d)     0.00000       7.35334
   294    H    7  dx2y2  Ryd( 3d)     0.00003       5.03443
   295    H    7  dx2y2  Ryd( 4d)     0.00000       8.08204
   296    H    7  dz2    Ryd( 3d)     0.00002       4.22257
   297    H    7  dz2    Ryd( 4d)     0.00000       7.61178
   298    H    7  f(0)   Ryd( 4f)     0.00000       6.59341
   299    H    7  f(C1)  Ryd( 4f)     0.00001       6.96966
   300    H    7  f(S1)  Ryd( 4f)     0.00000       6.29512
   301    H    7  f(C2)  Ryd( 4f)     0.00001       6.86319
   302    H    7  f(S2)  Ryd( 4f)     0.00000       6.93268
   303    H    7  f(C3)  Ryd( 4f)     0.00003       6.94317
   304    H    7  f(S3)  Ryd( 4f)     0.00000       7.10513

 WARNING:  Population inversion found on atom  C    1
           Population inversion found on atom  S    2
           Population inversion found on atom  C    3
           Population inversion found on atom  H    5
           Population inversion found on atom  H    6


 Summary of Natural Population Analysis:                  
                                                          
                                       Natural Population 
                Natural  -----------------------------------------------
    Atom  No    Charge         Core      Valence    Rydberg      Total
 -----------------------------------------------------------------------
      C    1   -0.74857      0.99980     2.73194    0.01683     3.74857
      S    2    0.28271      4.99928     2.66747    0.05053     7.71729
      C    3    0.05851      0.99978     1.92227    0.01944     2.94149
      H    4    0.12379      0.00000     0.37474    0.00147     0.37621
      H    5    0.12064      0.00000     0.37814    0.00122     0.37936
      H    6    0.07882      0.00000     0.42019    0.00099     0.42118
      H    7    0.08410      0.00000     0.41446    0.00144     0.41590
 =======================================================================
   * Total *    0.00000      6.99886     8.90921    0.09192    16.00000

                                 Natural Population      
 --------------------------------------------------------
   Core                       6.99886 ( 99.9838% of   7)
   Valence                    8.90921 ( 98.9912% of   9)
   Natural Minimal Basis     15.90808 ( 99.4255% of  16)
   Natural Rydberg Basis      0.09192 (  0.5745% of  16)
 --------------------------------------------------------

    Atom  No          Natural Electron Configuration
 ----------------------------------------------------------------------------
      C    1      [core]2S( 0.61)2p( 2.12)3p( 0.01)3d( 0.01)
      S    2      [core]3S( 0.75)3p( 1.92)4S( 0.01)3d( 0.03)5p( 0.01)
      C    3      [core]2S( 0.55)2p( 1.38)3p( 0.01)3d( 0.01)
      H    4            1S( 0.37)
      H    5            1S( 0.38)
      H    6            1S( 0.42)
      H    7            1S( 0.41)


 NBO analysis skipped by request.
 Leave Link  607 at Tue Jan  3 09:41:59 2023, MaxMem=   536870912 cpu:               4.0 elap:               2.0
 (Enter /opt/software/gaussian/g16.c01/l701.exe)
 ... and contract with generalized density number  0.
 Compute integral first derivatives.
 Leave Link  701 at Tue Jan  3 09:42:00 2023, MaxMem=   536870912 cpu:               0.5 elap:               0.2
 (Enter /opt/software/gaussian/g16.c01/l702.exe)
 L702 exits ... SP integral derivatives will be done elsewhere.
 Leave Link  702 at Tue Jan  3 09:42:00 2023, MaxMem=   536870912 cpu:               0.1 elap:               0.0
 (Enter /opt/software/gaussian/g16.c01/l703.exe)
 Integral derivatives from FoFJK, PRISM(SPDF).
 Compute integral first derivatives, UseDBF=F ICtDFT=           0.
 Calling FoFJK, ICntrl=      2127 FMM=F ISym2X=0 I1Cent= 0 IOpClX= 1 NMat=1 NMatS=1 NMatT=0.
 FoFJK:  IHMeth= 1 ICntrl=    2127 DoSepK=F KAlg= 0 I1Cent=           0 FoldK=F
 IRaf=         0 NMat=       1 IRICut=       1 DoRegI=T DoRafI=F ISym2E= 0 IDoP0=0 IntGTp=1.
 FoFCou: FMM=F IPFlag=           0 FMFlag=      100000 FMFlg1=         800
         NFxFlg=           0 DoJE=F BraDBF=F KetDBF=F FulRan=T
         wScrn=  0.000000 ICntrl=      2127 IOpCl=  1 I1Cent=           0 NGrid=           0
         NMat0=    1 NMatS0=      1 NMatT0=    0 NMatD0=    1 NMtDS0=    0 NMtDT0=    0
 Symmetry not used in FoFCou.
 Leave Link  703 at Tue Jan  3 09:43:38 2023, MaxMem=   536870912 cpu:             195.6 elap:              97.9
 (Enter /opt/software/gaussian/g16.c01/l716.exe)
 Dipole        =-1.88640247D-01 9.50676352D-02-2.51005451D-01
 -------------------------------------------------------------------
 Center     Atomic                   Forces (Hartrees/Bohr)
 Number     Number              X              Y              Z
 -------------------------------------------------------------------
      1        6          -0.035095847    0.000150210   -0.006244853
      2       16           0.022892777   -0.011571865    0.030540850
      3        6           0.006363146    0.014365323   -0.032070908
      4        1           0.003839709    0.005393135   -0.011794325
      5        1           0.006284698   -0.004399425    0.011197555
      6        1           0.009189091   -0.003402931    0.009392993
      7        1          -0.013473574   -0.000534447   -0.001021312
 -------------------------------------------------------------------
 Cartesian Forces:  Max     0.035095847 RMS     0.015230220
 Z-matrix is all fixed cartesians, so copy forces.
 Force constants in Cartesian coordinates: 
                1             2             3             4             5 
      1  0.799457D+00
      2  0.386953D-01  0.202300D+00
      3  0.262318D-01 -0.197489D+00  0.573805D+00
      4 -0.458605D+00 -0.232735D-01 -0.165583D-01  0.577555D+00
      5 -0.320482D-01 -0.525335D-01  0.183029D-01  0.867656D-01  0.122175D+00
      6  0.365769D-02  0.197847D-01 -0.872720D-01 -0.110154D+00 -0.165608D+00
      7  0.122699D-02 -0.100692D-01  0.221250D-01 -0.139616D+00 -0.489763D-01
      8 -0.597775D-03  0.748286D-02  0.517705D-03 -0.577409D-01 -0.107626D+00
      9  0.278568D-03 -0.108316D-02  0.102956D-01  0.116790D+00  0.142526D+00
     10 -0.144909D+00 -0.441803D-01  0.836168D-01  0.115252D-02 -0.932375D-02
     11 -0.404522D-01 -0.846163D-01  0.105218D+00 -0.241587D-03  0.264194D-02
     12  0.750267D-01  0.104603D+00 -0.264763D+00  0.410365D-03 -0.299905D-02
     13 -0.197168D+00  0.388020D-01 -0.115426D+00 -0.916549D-03  0.691836D-02
     14  0.343779D-01 -0.722913D-01  0.735979D-01 -0.146773D-02  0.180903D-01
     15 -0.105206D+00  0.743316D-01 -0.232001D+00  0.158269D-03  0.144866D-02
     16 -0.246017D-04  0.336366D-03  0.145813D-03  0.192862D-01 -0.309494D-02
     17  0.337132D-03 -0.460942D-02 -0.199817D-02  0.528610D-02  0.146053D-01
     18  0.146171D-03 -0.199852D-02 -0.866351D-03 -0.120134D-01  0.780803D-02
     19  0.227250D-04 -0.310706D-03 -0.134690D-03  0.114404D-02 -0.240739D-03
     20 -0.312161D-03  0.426801D-02  0.185017D-02 -0.932793D-02  0.264671D-02
     21 -0.135369D-03  0.185083D-02  0.802328D-03  0.213670D-01 -0.147893D-02
                6             7             8             9            10 
      6  0.407473D+00
      7  0.965700D-01  0.667382D+00
      8  0.141042D+00  0.492959D-01  0.225135D+00
      9 -0.351317D+00 -0.206782D-01 -0.248346D+00  0.683203D+00
     10  0.213707D-01  0.228255D-04 -0.312081D-03 -0.135286D-03  0.115530D+00
     11 -0.146606D-02 -0.312069D-03  0.426675D-02  0.184962D-02  0.445604D-01
     12  0.901525D-02 -0.135235D-03  0.184900D-02  0.801534D-03 -0.864441D-01
     13 -0.191712D-01 -0.246447D-04  0.336954D-03  0.146068D-03  0.282041D-01
     14  0.324183D-04  0.336979D-03 -0.460733D-02 -0.199726D-02  0.925576D-02
     15  0.148968D-01  0.146176D-03 -0.199858D-02 -0.866379D-03 -0.184082D-01
     16  0.731953D-02 -0.179623D+00  0.329496D-01 -0.989913D-01  0.000000D+00
     17  0.921888D-02  0.373763D-01 -0.753070D-01  0.810589D-01  0.000000D+00
     18 -0.181486D-02 -0.109211D+00  0.803191D-01 -0.246533D+00  0.000000D+00
     19  0.407512D-03 -0.349368D+00 -0.239317D-01  0.258983D-02  0.000000D+00
     20 -0.300348D-02 -0.276515D-01 -0.493443D-01  0.259912D-01  0.000000D+00
     21  0.901933D-02  0.111835D-01  0.266169D-01 -0.955832D-01  0.000000D+00
               11            12            13            14            15 
     11  0.698063D-01
     12 -0.111340D+00  0.260624D+00
     13 -0.355446D-02  0.111423D-01  0.169905D+00
     14  0.790132D-02  0.788712D-02 -0.425029D-01  0.509070D-01
     15  0.573850D-02 -0.567740D-02  0.123309D+00 -0.795202D-01  0.223648D+00
     16  0.000000D+00  0.000000D+00  0.000000D+00  0.000000D+00  0.000000D+00
     17  0.000000D+00  0.000000D+00  0.000000D+00  0.000000D+00  0.000000D+00
     18  0.000000D+00  0.000000D+00  0.000000D+00  0.000000D+00  0.000000D+00
     19  0.000000D+00  0.000000D+00  0.000000D+00  0.000000D+00  0.000000D+00
     20  0.000000D+00  0.000000D+00  0.000000D+00  0.000000D+00  0.000000D+00
     21  0.000000D+00  0.000000D+00  0.000000D+00  0.000000D+00  0.000000D+00
               16            17            18            19            20 
     16  0.161831D+00
     17 -0.418445D-01  0.522901D-01
     18  0.120449D+00 -0.826089D-01  0.230340D+00
     19 -0.147004D-02 -0.115499D-02  0.629518D-03  0.349671D+00
     20  0.116534D-01  0.130211D-01 -0.351969D-02  0.256381D-01  0.294086D-01
     21 -0.289230D-01 -0.567069D-02  0.188748D-01 -0.349217D-02 -0.213182D-01
               21 
     21  0.668867D-01
 Leave Link  716 at Tue Jan  3 09:43:38 2023, MaxMem=   536870912 cpu:               0.1 elap:               0.1
 (Enter /opt/software/gaussian/g16.c01/l103.exe)

 GradGradGradGradGradGradGradGradGradGradGradGradGradGradGradGradGradGrad
 Berny optimization.
 Search for a local minimum.
 Step number   1 out of a maximum of    2
 All quantities printed in internal units (Hartrees-Bohrs-Radians)
 Second derivative matrix not updated -- first step.
 ITU=  0
     Eigenvalues ---    0.00860   0.01482   0.01804   0.07108   0.07556
     Eigenvalues ---    0.11270   0.14823   0.15345   0.17618   0.32617
     Eigenvalues ---    0.36576   0.82416   0.92900   1.11635   1.31988
 Angle between quadratic step and forces=  69.29 degrees.
 Linear search not attempted -- first point.
 B after Tr=     0.019591   -0.009861    0.026089
         Rot=    1.000000   -0.000012   -0.000005    0.000009 Ang=  -0.00 deg.
 Variable       Old X    -DE/DX   Delta X   Delta X   Delta X     New X
                                 (Linear)    (Quad)   (Total)
    X1        1.85917  -0.03510   0.00000   0.00503   0.02462   1.88380
    Y1       -0.06153   0.00015   0.00000   0.01907   0.00917  -0.05235
    Z1        0.09233  -0.00624   0.00000  -0.04304  -0.01697   0.07536
    X2        4.92676   0.02289   0.00000   0.06547   0.08507   5.01183
    Y2        0.18746  -0.01157   0.00000  -0.03308  -0.04303   0.14443
    Z2        0.03552   0.03054   0.00000   0.08714   0.11319   0.14871
    X3        6.09876   0.00636   0.00000  -0.04593  -0.02634   6.07242
    Y3        1.39121   0.01437   0.00000   0.00159  -0.00832   1.38289
    Z3       -2.54358  -0.03207   0.00000  -0.01142   0.01465  -2.52893
    X4        1.07794   0.00384   0.00000  -0.07470  -0.05511   1.02283
    Y4       -0.86461   0.00539   0.00000   0.04380   0.03388  -0.83072
    Z4        1.81365  -0.01179   0.00000  -0.11332  -0.08726   1.72639
    X5        0.64970   0.00628   0.00000   0.08618   0.10577   0.75547
    Y5        0.52577  -0.00440   0.00000   0.02867   0.01883   0.54460
    Z5       -1.46547   0.01120   0.00000  -0.05166  -0.02556  -1.49103
    X6        4.94205   0.00919   0.00000  -0.08418  -0.06459   4.87746
    Y6        1.99647  -0.00340   0.00000  -0.02974  -0.03959   1.95688
    Z6       -4.13423   0.00939   0.00000   0.05419   0.08028  -4.05395
    X7        8.14558  -0.01347   0.00000  -0.08902  -0.06942   8.07616
    Y7        1.55646  -0.00053   0.00000   0.03899   0.02905   1.58551
    Z7       -2.58103  -0.00102   0.00000  -0.10438  -0.07832  -2.65936
         Item               Value     Threshold  Converged?
 Maximum Force            0.035096     0.000450     NO 
 RMS     Force            0.015230     0.000300     NO 
 Maximum Displacement     0.113190     0.001800     NO 
 RMS     Displacement     0.058487     0.001200     NO 
 Predicted change in Energy=-3.489883D-03
 GradGradGradGradGradGradGradGradGradGradGradGradGradGradGradGradGradGrad

 Leave Link  103 at Tue Jan  3 09:43:38 2023, MaxMem=   536870912 cpu:               0.1 elap:               0.1
 (Enter /opt/software/gaussian/g16.c01/l9999.exe)
 Unable to Open any file for archive entry.
 1\1\GINC-GRA630\Force\UHF\Gen\C2H4S1\BHAVUK\03-Jan-2023\0\\#p uhf/chkb
 asis force guess=read geom=check scf=(maxcycle=900,verytightlineq,xqc)
  integral=grid=ultrafine symmetry=None density=current pop=(cm5,hlygat
 ,mbs,npa) output=wfx\\0003_q000_m01_k00_opt_uwb97xd_def2svpd/0003_q000
 _m01_k00_force_uhf_def2qzvp stable-force\\0,1\C,0.9838325225,-0.032558
 6033,0.0488580178\S,2.6071301422,0.0991997065,0.0187984451\C,3.2273228
 911,0.736197977,-1.3460048506\H,0.570421034,-0.4575297175,0.9597448627
 \H,0.3438072589,0.2782232167,-0.7754915598\H,2.615218944,1.0564841772,
 -2.1877415072\H,4.3104572053,0.8236432464,-1.365823405\\Version=ES64L-
 G16RevC.01\HF=-475.5644546\S2=0.723357\S2-1=0.\S2A=0.141044\RMSD=3.360
 e-11\RMSF=1.523e-02\Dipole=-0.1886402,0.0950676,-0.2510055\Quadrupole=
 0.2103949,-1.4075925,1.1971976,0.8190972,-1.4331842,-1.4947098\PG=Unkn
 own\\@
 The archive entry for this job was punched.

 Writing a WFNX file to "0003_q000_m01_k00_force_uhf_def2qzvp.wfx"


 FORGIVE MY NONSENSE AS I ALSO FORGIVE THOSE WHO THINK THEY TALK SENSE

                                                       -- ROBERT FROST
 Job cpu time:       0 days  0 hours  4 minutes 10.4 seconds.
 Elapsed time:       0 days  0 hours  2 minutes  5.3 seconds.
 File lengths (MBytes):  RWF=     91 Int=      0 D2E=      0 Chk=     13 Scr=      1
 Normal termination of Gaussian 16 at Tue Jan  3 09:43:38 2023.
