 Entering Gaussian System, Link 0=g16
 Input=0003_q000_m01_k00_force_ub3lyp_def2svp.com
 Output=0003_q000_m01_k00_force_ub3lyp_def2svp.log
 Initial command:
 /opt/software/gaussian/g16.c01/l1.exe "/localscratch/bhavuk.2151375.0/Gau-19731.inp" -scrdir="/localscratch/bhavuk.2151375.0/"
 Entering Link 1 = /opt/software/gaussian/g16.c01/l1.exe PID=     19732.
  
 Copyright (c) 1988-2019, Gaussian, Inc.  All Rights Reserved.
  
 This is part of the Gaussian(R) 16 program.  It is based on
 the Gaussian(R) 09 system (copyright 2009, Gaussian, Inc.),
 the Gaussian(R) 03 system (copyright 2003, Gaussian, Inc.),
 the Gaussian(R) 98 system (copyright 1998, Gaussian, Inc.),
 the Gaussian(R) 94 system (copyright 1995, Gaussian, Inc.),
 the Gaussian 92(TM) system (copyright 1992, Gaussian, Inc.),
 the Gaussian 90(TM) system (copyright 1990, Gaussian, Inc.),
 the Gaussian 88(TM) system (copyright 1988, Gaussian, Inc.),
 the Gaussian 86(TM) system (copyright 1986, Carnegie Mellon
 University), and the Gaussian 82(TM) system (copyright 1983,
 Carnegie Mellon University). Gaussian is a federally registered
 trademark of Gaussian, Inc.
  
 This software contains proprietary and confidential information,
 including trade secrets, belonging to Gaussian, Inc.
  
 This software is provided under written license and may be
 used, copied, transmitted, or stored only in accord with that
 written license.
  
 The following legend is applicable only to US Government
 contracts under FAR:
  
                    RESTRICTED RIGHTS LEGEND
  
 Use, reproduction and disclosure by the US Government is
 subject to restrictions as set forth in subparagraphs (a)
 and (c) of the Commercial Computer Software - Restricted
 Rights clause in FAR 52.227-19.
  
 Gaussian, Inc.
 340 Quinnipiac St., Bldg. 40, Wallingford CT 06492
  
  
 ---------------------------------------------------------------
 Warning -- This program may not be used in any manner that
 competes with the business of Gaussian, Inc. or will provide
 assistance to any competitor of Gaussian, Inc.  The licensee
 of this program is prohibited from giving any competitor of
 Gaussian, Inc. access to this program.  By using this program,
 the user acknowledges that Gaussian, Inc. is engaged in the
 business of creating and licensing software in the field of
 computational chemistry and represents and warrants to the
 licensee that it is not a competitor of Gaussian, Inc. and that
 it will not use this program in any manner prohibited above.
 ---------------------------------------------------------------
  

 Cite this work as:
 Gaussian 16, Revision C.01,
 M. J. Frisch, G. W. Trucks, H. B. Schlegel, G. E. Scuseria, 
 M. A. Robb, J. R. Cheeseman, G. Scalmani, V. Barone, 
 G. A. Petersson, H. Nakatsuji, X. Li, M. Caricato, A. V. Marenich, 
 J. Bloino, B. G. Janesko, R. Gomperts, B. Mennucci, H. P. Hratchian, 
 J. V. Ortiz, A. F. Izmaylov, J. L. Sonnenberg, D. Williams-Young, 
 F. Ding, F. Lipparini, F. Egidi, J. Goings, B. Peng, A. Petrone, 
 T. Henderson, D. Ranasinghe, V. G. Zakrzewski, J. Gao, N. Rega, 
 G. Zheng, W. Liang, M. Hada, M. Ehara, K. Toyota, R. Fukuda, 
 J. Hasegawa, M. Ishida, T. Nakajima, Y. Honda, O. Kitao, H. Nakai, 
 T. Vreven, K. Throssell, J. A. Montgomery, Jr., J. E. Peralta, 
 F. Ogliaro, M. J. Bearpark, J. J. Heyd, E. N. Brothers, K. N. Kudin, 
 V. N. Staroverov, T. A. Keith, R. Kobayashi, J. Normand, 
 K. Raghavachari, A. P. Rendell, J. C. Burant, S. S. Iyengar, 
 J. Tomasi, M. Cossi, J. M. Millam, M. Klene, C. Adamo, R. Cammi, 
 J. W. Ochterski, R. L. Martin, K. Morokuma, O. Farkas, 
 J. B. Foresman, and D. J. Fox, Gaussian, Inc., Wallingford CT, 2019.
 
 ******************************************
 Gaussian 16:  ES64L-G16RevC.01  3-Jul-2019
                 3-Jan-2023 
 ******************************************
 %chk=0003_q000_m01_k00_force_ub3lyp_def2svp.chk
 %nprocshared=2
 Will use up to    2 processors via shared memory.
 %mem=4GB
 ----------------------------------------------------------------------
 #p ub3lyp/gen stable=opt scf=(maxcycle=900,verytightlineq,xqc) integra
 l=grid=ultrafine symmetry=None density=current iop(99/18=-1) output=wf
 n
 ----------------------------------------------------------------------
 1/38=1,172=1/1;
 2/12=2,15=3,17=6,18=5,40=1/2;
 3/5=7,11=2,25=1,30=1,74=-5,75=-5,116=2/1,2,3;
 4//1;
 5/5=2,7=900,8=3,13=1,17=3,38=5/2,8;
 6/7=2,8=2,9=2,10=2,22=-1,28=1/1;
 8/6=1,10=90,11=11/1;
 9/8=-3,42=1,46=1/14;
 5/5=2,7=900,8=3,17=43,38=5/8(-2);
 6/7=2,8=2,9=2,10=2,22=-1,28=1/1;
 99/5=1,6=100,9=1,18=-1/99;
 Leave Link    1 at Tue Jan  3 09:05:08 2023, MaxMem=   536870912 cpu:               0.1 elap:               0.1
 (Enter /opt/software/gaussian/g16.c01/l101.exe)
 ----------------------------------------------------------------------
 0003_q000_m01_k00_opt_uwb97xd_def2svpd/0003_q000_m01_k00_force_ub3lyp_
 def2svp stable-force
 ----------------------------------------------------------------------
 Symbolic Z-matrix:
 Charge =  0 Multiplicity = 1
 C                     0.98383  -0.03256   0.04886 
 S                     2.60713   0.0992    0.0188 
 C                     3.22732   0.7362   -1.346 
 H                     0.57042  -0.45753   0.95974 
 H                     0.34381   0.27822  -0.77549 
 H                     2.61522   1.05648  -2.18774 
 H                     4.31046   0.82364  -1.36582 
 
 ITRead=  0  0  0  0  0  0  0
 MicOpt= -1 -1 -1 -1 -1 -1 -1
 NAtoms=      7 NQM=        7 NQMF=       0 NMMI=      0 NMMIF=      0
                NMic=       0 NMicF=      0.
                    Isotopes and Nuclear Properties:
 (Nuclear quadrupole moments (NQMom) in fm**2, nuclear magnetic moments (NMagM)
  in nuclear magnetons)

  Atom         1           2           3           4           5           6           7
 IAtWgt=          12          32          12           1           1           1           1
 AtmWgt=  12.0000000  31.9720718  12.0000000   1.0078250   1.0078250   1.0078250   1.0078250
 NucSpn=           0           0           0           1           1           1           1
 AtZEff=  -0.0000000  -0.0000000  -0.0000000  -0.0000000  -0.0000000  -0.0000000  -0.0000000
 NQMom=    0.0000000   0.0000000   0.0000000   0.0000000   0.0000000   0.0000000   0.0000000
 NMagM=    0.0000000   0.0000000   0.0000000   2.7928460   2.7928460   2.7928460   2.7928460
 AtZNuc=   6.0000000  16.0000000   6.0000000   1.0000000   1.0000000   1.0000000   1.0000000
 Leave Link  101 at Tue Jan  3 09:05:09 2023, MaxMem=   536870912 cpu:               0.5 elap:               0.3
 (Enter /opt/software/gaussian/g16.c01/l202.exe)
                          Input orientation:                          
 ---------------------------------------------------------------------
 Center     Atomic      Atomic             Coordinates (Angstroms)
 Number     Number       Type             X           Y           Z
 ---------------------------------------------------------------------
      1          6           0        0.983833   -0.032559    0.048858
      2         16           0        2.607130    0.099200    0.018798
      3          6           0        3.227323    0.736198   -1.346005
      4          1           0        0.570421   -0.457530    0.959745
      5          1           0        0.343807    0.278223   -0.775492
      6          1           0        2.615219    1.056484   -2.187742
      7          1           0        4.310457    0.823643   -1.365823
 ---------------------------------------------------------------------
                    Distance matrix (angstroms):
                    1          2          3          4          5
     1  C    0.000000
     2  S    1.628913   0.000000
     3  C    2.751341   1.628832   0.000000
     4  H    1.086841   2.311604   3.714915   0.000000
     5  H    1.088931   2.405323   2.974876   1.898350   0.000000
     6  H    2.974864   2.405260   1.088933   4.047234   2.785579
     7  H    3.714948   2.311562   1.086839   4.586670   4.047257
                    6          7
     6  H    0.000000
     7  H    1.898314   0.000000
 Symmetry turned off by external request.
 Stoichiometry    C2H4S
 Rotational constants (GHZ):          32.8865896           8.4327606           6.7117401
 Leave Link  202 at Tue Jan  3 09:05:09 2023, MaxMem=   536870912 cpu:               0.0 elap:               0.0
 (Enter /opt/software/gaussian/g16.c01/l301.exe)
 General basis read from cards:  (5D, 7F)
 Centers:       4      5      6      7
 S 3 1.00
     Exponent=  1.3010701000D+01 Coefficients=  1.9682158000D-02
     Exponent=  1.9622572000D+00 Coefficients=  1.3796524000D-01
     Exponent=  4.4453796000D-01 Coefficients=  4.7831935000D-01
 S 1 1.00
     Exponent=  1.2194962000D-01 Coefficients=  1.0000000000D+00
 P 1 1.00
     Exponent=  8.0000000000D-01 Coefficients=  1.0000000000D+00
 ****
 Centers:       1      3
 S 5 1.00
     Exponent=  1.2384016938D+03 Coefficients=  5.4568832082D-03
     Exponent=  1.8629004992D+02 Coefficients=  4.0638409211D-02
     Exponent=  4.2251176346D+01 Coefficients=  1.8025593888D-01
     Exponent=  1.1676557932D+01 Coefficients=  4.6315121755D-01
     Exponent=  3.5930506482D+00 Coefficients=  4.4087173314D-01
 S 1 1.00
     Exponent=  4.0245147363D-01 Coefficients=  1.0000000000D+00
 S 1 1.00
     Exponent=  1.3090182668D-01 Coefficients=  1.0000000000D+00
 P 3 1.00
     Exponent=  9.4680970621D+00 Coefficients=  3.8387871728D-02
     Exponent=  2.0103545142D+00 Coefficients=  2.1117025112D-01
     Exponent=  5.4771004707D-01 Coefficients=  5.1328172114D-01
 P 1 1.00
     Exponent=  1.5268613795D-01 Coefficients=  1.0000000000D+00
 D 1 1.00
     Exponent=  8.0000000000D-01 Coefficients=  1.0000000000D+00
 ****
 Centers:       2
 S 5 1.00
     Exponent=  9.1849303010D+03 Coefficients= -2.2294387756D-03
     Exponent=  1.3815105503D+03 Coefficients= -1.6683029937D-02
     Exponent=  3.1387147580D+02 Coefficients= -7.5262436116D-02
     Exponent=  8.8053870623D+01 Coefficients= -1.9376827038D-01
     Exponent=  2.7039914905D+01 Coefficients= -1.7718020803D-01
 S 3 1.00
     Exponent=  4.5648731303D+01 Coefficients= -1.0736062573D-01
     Exponent=  4.9664522326D+00 Coefficients=  6.5066293018D-01
     Exponent=  2.0116242047D+00 Coefficients=  5.9712155354D-01
 S 1 1.00
     Exponent=  3.5661077013D-01 Coefficients=  1.0000000000D+00
 S 1 1.00
     Exponent=  1.3507221477D-01 Coefficients=  1.0000000000D+00
 P 5 1.00
     Exponent=  2.6198233439D+02 Coefficients= -9.2729929822D-03
     Exponent=  6.1306894736D+01 Coefficients= -6.6547669241D-02
     Exponent=  1.9103729887D+01 Coefficients= -2.4828595903D-01
     Exponent=  6.6567720378D+00 Coefficients= -4.8703847402D-01
     Exponent=  2.3959635161D+00 Coefficients= -3.9337850312D-01
 P 1 1.00
     Exponent=  6.1776161679D-01 Coefficients=  1.0000000000D+00
 P 1 1.00
     Exponent=  1.6993376871D-01 Coefficients=  1.0000000000D+00
 D 1 1.00
     Exponent=  5.5000000000D-01 Coefficients=  1.0000000000D+00
 ****
 Ernie: Thresh=  0.10000D-02 Tol=  0.10000D-05 Strict=F.
    66 basis functions,   115 primitive gaussians,    69 cartesian basis functions
    16 alpha electrons       16 beta electrons
       nuclear repulsion energy       100.3080120317 Hartrees.
 IExCor=  402 DFT=T Ex+Corr=B3LYP ExCW=0 ScaHFX=  0.200000
 ScaDFX=  0.800000  0.720000  1.000000  0.810000 ScalE2=  1.000000  1.000000
 IRadAn=      5 IRanWt=     -1 IRanGd=            0 ICorTp=0 IEmpDi=  4
 NAtoms=    7 NActive=    7 NUniq=    7 SFac= 1.00D+00 NAtFMM=   60 NAOKFM=F Big=F
 Integral buffers will be    131072 words long.
 Raffenetti 2 integral format.
 Two-electron integral symmetry is turned off.
 Leave Link  301 at Tue Jan  3 09:05:09 2023, MaxMem=   536870912 cpu:               0.1 elap:               0.1
 (Enter /opt/software/gaussian/g16.c01/l302.exe)
 NPDir=0 NMtPBC=     1 NCelOv=     1 NCel=       1 NClECP=     1 NCelD=      1
         NCelK=      1 NCelE2=     1 NClLst=     1 CellRange=     0.0.
 One-electron integrals computed using PRISM.
 NBasis=    66 RedAO= T EigKep=  6.57D-03  NBF=    66
 NBsUse=    66 1.00D-06 EigRej= -1.00D+00 NBFU=    66
 Precomputing XC quadrature grid using
 IXCGrd= 4 IRadAn=           5 IRanWt=          -1 IRanGd=           0 AccXCQ= 0.00D+00.
 Generated NRdTot=       0 NPtTot=           0 NUsed=           0 NTot=          32
 NSgBfM=    69    69    69    69    69 MxSgAt=     7 MxSgA2=     7.
 Leave Link  302 at Tue Jan  3 09:05:09 2023, MaxMem=   536870912 cpu:               0.4 elap:               0.2
 (Enter /opt/software/gaussian/g16.c01/l303.exe)
 DipDrv:  MaxL=1.
 Leave Link  303 at Tue Jan  3 09:05:09 2023, MaxMem=   536870912 cpu:               0.1 elap:               0.0
 (Enter /opt/software/gaussian/g16.c01/l401.exe)
 ExpMin= 1.22D-01 ExpMax= 9.18D+03 ExpMxC= 1.38D+03 IAcc=3 IRadAn=         5 AccDes= 0.00D+00
 Harris functional with IExCor=  402 and IRadAn=       5 diagonalized for initial guess.
 HarFok:  IExCor=  402 AccDes= 0.00D+00 IRadAn=         5 IDoV= 1 UseB2=F ITyADJ=14
 ICtDFT=  3500011 ScaDFX=  1.000000  1.000000  1.000000  1.000000
 FoFCou: FMM=F IPFlag=           0 FMFlag=      100000 FMFlg1=           0
         NFxFlg=           0 DoJE=T BraDBF=F KetDBF=T FulRan=T
         wScrn=  0.000000 ICntrl=       500 IOpCl=  0 I1Cent=   200000004 NGrid=           0
         NMat0=    1 NMatS0=      1 NMatT0=    0 NMatD0=    1 NMtDS0=    0 NMtDT0=    0
 Symmetry not used in FoFCou.
 Harris En= -476.553119516013    
 JPrj=0 DoOrth=F DoCkMO=F.
 Initial guess <Sx>= 0.0000 <Sy>= 0.0000 <Sz>= 0.0000 <S**2>= 0.0000 S= 0.0000
 Leave Link  401 at Tue Jan  3 09:05:10 2023, MaxMem=   536870912 cpu:               0.9 elap:               0.5
 (Enter /opt/software/gaussian/g16.c01/l502.exe)
 Keep R1 and R2 ints in memory in canonical form, NReq=6678349.
 FoFCou: FMM=F IPFlag=           0 FMFlag=           0 FMFlg1=           0
         NFxFlg=           0 DoJE=F BraDBF=F KetDBF=F FulRan=T
         wScrn=  0.000000 ICntrl=       600 IOpCl=  0 I1Cent=           0 NGrid=           0
         NMat0=    1 NMatS0=   2211 NMatT0=    0 NMatD0=    1 NMtDS0=    0 NMtDT0=    0
 Symmetry not used in FoFCou.
 Two-electron integral symmetry not used.
 UHF open shell SCF:
 Using DIIS extrapolation, IDIIS=  1040.
 NGot=   536870912 LenX=   531969369 LenY=   531964167
 Requested convergence on RMS density matrix=1.00D-08 within 128 cycles.
 Requested convergence on MAX density matrix=1.00D-06.
 Requested convergence on             energy=1.00D-06.
 No special actions if energy rises.
 Integral accuracy reduced to 1.0D-05 until final iterations.

 Cycle   1  Pass 0  IDiag  1:
 E= -476.368329889208    
 DIIS: error= 4.99D-02 at cycle   1 NSaved=   1.
 NSaved= 1 IEnMin= 1 EnMin= -476.368329889208     IErMin= 1 ErrMin= 4.99D-02
 ErrMax= 4.99D-02  0.00D+00 EMaxC= 1.00D-01 BMatC= 6.82D-01 BMatP= 6.82D-01
 IDIUse=3 WtCom= 5.01D-01 WtEn= 4.99D-01
 Coeff-Com:  0.100D+01
 Coeff-En:   0.100D+01
 Coeff:      0.100D+01
 Gap=     0.041 Goal=   None    Shift=    0.000
 Gap=     0.041 Goal=   None    Shift=    0.000
 GapD=    0.041 DampG=0.250 DampE=0.500 DampFc=0.2500 IDamp=-1.
 Damping current iteration by 2.50D-01
 RMSDP=1.31D-02 MaxDP=1.83D-01              OVMax= 3.89D-01

 Cycle   2  Pass 0  IDiag  1:
 E= -476.441160625397     Delta-E=       -0.072830736189 Rises=F Damp=T
 DIIS: error= 2.27D-02 at cycle   2 NSaved=   2.
 NSaved= 2 IEnMin= 2 EnMin= -476.441160625397     IErMin= 2 ErrMin= 2.27D-02
 ErrMax= 2.27D-02  0.00D+00 EMaxC= 1.00D-01 BMatC= 1.20D-01 BMatP= 6.82D-01
 IDIUse=3 WtCom= 7.73D-01 WtEn= 2.27D-01
 Coeff-Com: -0.674D+00 0.167D+01
 Coeff-En:   0.000D+00 0.100D+01
 Coeff:     -0.521D+00 0.152D+01
 Gap=     0.131 Goal=   None    Shift=    0.000
 Gap=     0.131 Goal=   None    Shift=    0.000
 RMSDP=3.35D-03 MaxDP=6.27D-02 DE=-7.28D-02 OVMax= 1.97D-01

 Cycle   3  Pass 0  IDiag  1:
 E= -476.547369675793     Delta-E=       -0.106209050396 Rises=F Damp=F
 DIIS: error= 7.86D-03 at cycle   3 NSaved=   3.
 NSaved= 3 IEnMin= 3 EnMin= -476.547369675793     IErMin= 3 ErrMin= 7.86D-03
 ErrMax= 7.86D-03  0.00D+00 EMaxC= 1.00D-01 BMatC= 1.63D-02 BMatP= 1.20D-01
 IDIUse=3 WtCom= 9.21D-01 WtEn= 7.86D-02
 Coeff-Com:  0.849D-01 0.911D-01 0.824D+00
 Coeff-En:   0.000D+00 0.000D+00 0.100D+01
 Coeff:      0.782D-01 0.839D-01 0.838D+00
 Gap=     0.147 Goal=   None    Shift=    0.000
 Gap=     0.147 Goal=   None    Shift=    0.000
 RMSDP=9.76D-04 MaxDP=1.62D-02 DE=-1.06D-01 OVMax= 2.08D-02

 Cycle   4  Pass 0  IDiag  1:
 E= -476.551655660483     Delta-E=       -0.004285984690 Rises=F Damp=F
 DIIS: error= 1.09D-03 at cycle   4 NSaved=   4.
 NSaved= 4 IEnMin= 4 EnMin= -476.551655660483     IErMin= 4 ErrMin= 1.09D-03
 ErrMax= 1.09D-03  0.00D+00 EMaxC= 1.00D-01 BMatC= 2.75D-04 BMatP= 1.63D-02
 IDIUse=3 WtCom= 9.89D-01 WtEn= 1.09D-02
 Coeff-Com:  0.553D-01-0.710D-01 0.238D+00 0.778D+00
 Coeff-En:   0.000D+00 0.000D+00 0.000D+00 0.100D+01
 Coeff:      0.547D-01-0.702D-01 0.236D+00 0.780D+00
 Gap=     0.148 Goal=   None    Shift=    0.000
 Gap=     0.148 Goal=   None    Shift=    0.000
 RMSDP=1.76D-04 MaxDP=2.26D-03 DE=-4.29D-03 OVMax= 2.91D-03

 Cycle   5  Pass 0  IDiag  1:
 E= -476.551732672495     Delta-E=       -0.000077012012 Rises=F Damp=F
 DIIS: error= 2.30D-04 at cycle   5 NSaved=   5.
 NSaved= 5 IEnMin= 5 EnMin= -476.551732672495     IErMin= 5 ErrMin= 2.30D-04
 ErrMax= 2.30D-04  0.00D+00 EMaxC= 1.00D-01 BMatC= 1.06D-05 BMatP= 2.75D-04
 IDIUse=3 WtCom= 9.98D-01 WtEn= 2.30D-03
 Coeff-Com:  0.169D-01-0.236D-01 0.767D-01 0.296D+00 0.634D+00
 Coeff-En:   0.000D+00 0.000D+00 0.000D+00 0.000D+00 0.100D+01
 Coeff:      0.169D-01-0.235D-01 0.765D-01 0.295D+00 0.635D+00
 Gap=     0.148 Goal=   None    Shift=    0.000
 Gap=     0.148 Goal=   None    Shift=    0.000
 RMSDP=3.65D-05 MaxDP=6.19D-04 DE=-7.70D-05 OVMax= 8.59D-04

 Cycle   6  Pass 0  IDiag  1:
 E= -476.551735272173     Delta-E=       -0.000002599677 Rises=F Damp=F
 DIIS: error= 1.05D-04 at cycle   6 NSaved=   6.
 NSaved= 6 IEnMin= 6 EnMin= -476.551735272173     IErMin= 6 ErrMin= 1.05D-04
 ErrMax= 1.05D-04  0.00D+00 EMaxC= 1.00D-01 BMatC= 1.85D-06 BMatP= 1.06D-05
 IDIUse=3 WtCom= 9.99D-01 WtEn= 1.05D-03
 Coeff-Com:  0.567D-02-0.808D-02 0.278D-01 0.109D+00 0.332D+00 0.533D+00
 Coeff-En:   0.000D+00 0.000D+00 0.000D+00 0.000D+00 0.267D-01 0.973D+00
 Coeff:      0.566D-02-0.807D-02 0.277D-01 0.109D+00 0.332D+00 0.534D+00
 Gap=     0.148 Goal=   None    Shift=    0.000
 Gap=     0.148 Goal=   None    Shift=    0.000
 RMSDP=2.13D-05 MaxDP=3.84D-04 DE=-2.60D-06 OVMax= 1.05D-03

 Cycle   7  Pass 0  IDiag  1:
 E= -476.551735241940     Delta-E=        0.000000030233 Rises=F Damp=F
 DIIS: error= 1.18D-04 at cycle   7 NSaved=   7.
 NSaved= 7 IEnMin= 6 EnMin= -476.551735272173     IErMin= 6 ErrMin= 1.05D-04
 ErrMax= 1.18D-04  0.00D+00 EMaxC= 1.00D-01 BMatC= 1.92D-06 BMatP= 1.85D-06
 IDIUse=3 WtCom= 9.99D-01 WtEn= 1.05D-03
 Coeff-Com:  0.913D-03-0.139D-02 0.588D-02 0.226D-01 0.132D+00 0.474D+00
 Coeff-Com:  0.366D+00
 Coeff-En:   0.000D+00 0.000D+00 0.000D+00 0.000D+00 0.000D+00 0.509D+00
 Coeff-En:   0.491D+00
 Coeff:      0.912D-03-0.139D-02 0.587D-02 0.226D-01 0.132D+00 0.474D+00
 Coeff:      0.366D+00
 Gap=     0.148 Goal=   None    Shift=    0.000
 Gap=     0.148 Goal=   None    Shift=    0.000
 RMSDP=1.17D-05 MaxDP=2.07D-04 DE= 3.02D-08 OVMax= 5.72D-04

 Cycle   8  Pass 0  IDiag  1:
 E= -476.551735847112     Delta-E=       -0.000000605173 Rises=F Damp=F
 DIIS: error= 4.46D-06 at cycle   8 NSaved=   8.
 NSaved= 8 IEnMin= 8 EnMin= -476.551735847112     IErMin= 8 ErrMin= 4.46D-06
 ErrMax= 4.46D-06  0.00D+00 EMaxC= 1.00D-01 BMatC= 6.50D-09 BMatP= 1.85D-06
 IDIUse=1 WtCom= 1.00D+00 WtEn= 0.00D+00
 Coeff-Com: -0.287D-05-0.389D-04-0.195D-03-0.159D-02 0.133D-01 0.878D-01
 Coeff-Com:  0.976D-01 0.803D+00
 Coeff:     -0.287D-05-0.389D-04-0.195D-03-0.159D-02 0.133D-01 0.878D-01
 Coeff:      0.976D-01 0.803D+00
 Gap=     0.148 Goal=   None    Shift=    0.000
 Gap=     0.148 Goal=   None    Shift=    0.000
 RMSDP=7.41D-07 MaxDP=8.68D-06 DE=-6.05D-07 OVMax= 1.93D-05

 Initial convergence to 1.0D-05 achieved.  Increase integral accuracy.
 Cycle   9  Pass 1  IDiag  1:
 E= -476.551737826940     Delta-E=       -0.000001979828 Rises=F Damp=F
 DIIS: error= 2.67D-06 at cycle   1 NSaved=   1.
 NSaved= 1 IEnMin= 1 EnMin= -476.551737826940     IErMin= 1 ErrMin= 2.67D-06
 ErrMax= 2.67D-06  0.00D+00 EMaxC= 1.00D-01 BMatC= 6.09D-10 BMatP= 6.09D-10
 IDIUse=1 WtCom= 1.00D+00 WtEn= 0.00D+00
 Coeff-Com:  0.100D+01
 Coeff:      0.100D+01
 Gap=     0.148 Goal=   None    Shift=    0.000
 Gap=     0.148 Goal=   None    Shift=    0.000
 RMSDP=7.41D-07 MaxDP=8.68D-06 DE=-1.98D-06 OVMax= 9.54D-06

 Cycle  10  Pass 1  IDiag  1:
 E= -476.551737827189     Delta-E=       -0.000000000249 Rises=F Damp=F
 DIIS: error= 7.67D-07 at cycle   2 NSaved=   2.
 NSaved= 2 IEnMin= 2 EnMin= -476.551737827189     IErMin= 2 ErrMin= 7.67D-07
 ErrMax= 7.67D-07  0.00D+00 EMaxC= 1.00D-01 BMatC= 1.67D-10 BMatP= 6.09D-10
 IDIUse=1 WtCom= 1.00D+00 WtEn= 0.00D+00
 Coeff-Com:  0.266D+00 0.734D+00
 Coeff:      0.266D+00 0.734D+00
 Gap=     0.148 Goal=   None    Shift=    0.000
 Gap=     0.148 Goal=   None    Shift=    0.000
 RMSDP=1.95D-07 MaxDP=3.24D-06 DE=-2.49D-10 OVMax= 5.90D-06

 Cycle  11  Pass 1  IDiag  1:
 E= -476.551737827203     Delta-E=       -0.000000000014 Rises=F Damp=F
 DIIS: error= 6.36D-07 at cycle   3 NSaved=   3.
 NSaved= 3 IEnMin= 3 EnMin= -476.551737827203     IErMin= 3 ErrMin= 6.36D-07
 ErrMax= 6.36D-07  0.00D+00 EMaxC= 1.00D-01 BMatC= 1.18D-10 BMatP= 1.67D-10
 IDIUse=1 WtCom= 1.00D+00 WtEn= 0.00D+00
 Coeff-Com: -0.312D-01 0.460D+00 0.571D+00
 Coeff:     -0.312D-01 0.460D+00 0.571D+00
 Gap=     0.148 Goal=   None    Shift=    0.000
 Gap=     0.148 Goal=   None    Shift=    0.000
 RMSDP=9.02D-08 MaxDP=1.49D-06 DE=-1.38D-11 OVMax= 2.63D-06

 Cycle  12  Pass 1  IDiag  1:
 E= -476.551737827234     Delta-E=       -0.000000000032 Rises=F Damp=F
 DIIS: error= 1.65D-07 at cycle   4 NSaved=   4.
 NSaved= 4 IEnMin= 4 EnMin= -476.551737827234     IErMin= 4 ErrMin= 1.65D-07
 ErrMax= 1.65D-07  0.00D+00 EMaxC= 1.00D-01 BMatC= 3.51D-12 BMatP= 1.18D-10
 IDIUse=1 WtCom= 1.00D+00 WtEn= 0.00D+00
 Coeff-Com: -0.202D-01 0.285D+00 0.363D+00 0.373D+00
 Coeff:     -0.202D-01 0.285D+00 0.363D+00 0.373D+00
 Gap=     0.148 Goal=   None    Shift=    0.000
 Gap=     0.148 Goal=   None    Shift=    0.000
 RMSDP=2.44D-08 MaxDP=3.93D-07 DE=-3.16D-11 OVMax= 1.19D-06

 Cycle  13  Pass 1  IDiag  1:
 E= -476.551737827236     Delta-E=       -0.000000000001 Rises=F Damp=F
 DIIS: error= 9.12D-08 at cycle   5 NSaved=   5.
 NSaved= 5 IEnMin= 5 EnMin= -476.551737827236     IErMin= 5 ErrMin= 9.12D-08
 ErrMax= 9.12D-08  0.00D+00 EMaxC= 1.00D-01 BMatC= 1.14D-12 BMatP= 3.51D-12
 IDIUse=1 WtCom= 1.00D+00 WtEn= 0.00D+00
 Coeff-Com: -0.835D-02 0.838D-01 0.113D+00 0.311D+00 0.500D+00
 Coeff:     -0.835D-02 0.838D-01 0.113D+00 0.311D+00 0.500D+00
 Gap=     0.148 Goal=   None    Shift=    0.000
 Gap=     0.148 Goal=   None    Shift=    0.000
 RMSDP=8.84D-09 MaxDP=1.67D-07 DE=-1.25D-12 OVMax= 4.25D-07

 SCF Done:  E(UB3LYP) =  -476.551737827     A.U. after   13 cycles
            NFock= 13  Conv=0.88D-08     -V/T= 2.0040
 <Sx>= 0.0000 <Sy>= 0.0000 <Sz>= 0.0000 <S**2>=-0.0000 S=-0.0000
 <L.S>=  0.00000000000    
 KE= 4.746604299268D+02 PE=-1.327477922402D+03 EE= 2.759577426163D+02
 Annihilation of the first spin contaminant:
 S**2 before annihilation    -0.0000,   after     0.0000
 Leave Link  502 at Tue Jan  3 09:05:14 2023, MaxMem=   536870912 cpu:               8.8 elap:               4.4
 (Enter /opt/software/gaussian/g16.c01/l508.exe)
 QCSCF skips out because SCF is already converged.
 Leave Link  508 at Tue Jan  3 09:05:14 2023, MaxMem=   536870912 cpu:               0.0 elap:               0.0
 (Enter /opt/software/gaussian/g16.c01/l601.exe)
 Copying SCF densities to generalized density rwf, IOpCl= 1 IROHF=0.

 **********************************************************************

            Population analysis using the SCF Density.

 **********************************************************************

 Alpha  occ. eigenvalues --  -88.90762 -10.19476 -10.19473  -7.99974  -5.96671
 Alpha  occ. eigenvalues --   -5.96499  -5.96217  -0.85020  -0.69025  -0.56475
 Alpha  occ. eigenvalues --   -0.46753  -0.45935  -0.40318  -0.36026  -0.33266
 Alpha  occ. eigenvalues --   -0.19602
 Alpha virt. eigenvalues --   -0.04851   0.07772   0.07773   0.09117   0.12859
 Alpha virt. eigenvalues --    0.15265   0.21015   0.30534   0.39238   0.40409
 Alpha virt. eigenvalues --    0.47392   0.47705   0.49130   0.53563   0.53620
 Alpha virt. eigenvalues --    0.61057   0.63536   0.64198   0.64811   0.66520
 Alpha virt. eigenvalues --    0.68187   0.73361   0.76502   0.79359   0.91053
 Alpha virt. eigenvalues --    0.99075   1.09551   1.17380   1.19762   1.19835
 Alpha virt. eigenvalues --    1.55342   1.55520   1.56608   1.57422   1.67592
 Alpha virt. eigenvalues --    1.68378   1.97710   1.99135   2.03176   2.03497
 Alpha virt. eigenvalues --    2.05196   2.09789   2.22832   2.23512   2.37466
 Alpha virt. eigenvalues --    2.43174   2.82312   2.87836   2.90009   2.90645
  Beta  occ. eigenvalues --  -88.90762 -10.19476 -10.19473  -7.99974  -5.96671
  Beta  occ. eigenvalues --   -5.96499  -5.96217  -0.85020  -0.69025  -0.56475
  Beta  occ. eigenvalues --   -0.46753  -0.45935  -0.40318  -0.36026  -0.33266
  Beta  occ. eigenvalues --   -0.19602
  Beta virt. eigenvalues --   -0.04851   0.07772   0.07773   0.09117   0.12859
  Beta virt. eigenvalues --    0.15265   0.21015   0.30534   0.39238   0.40409
  Beta virt. eigenvalues --    0.47392   0.47705   0.49130   0.53563   0.53620
  Beta virt. eigenvalues --    0.61057   0.63536   0.64198   0.64811   0.66520
  Beta virt. eigenvalues --    0.68187   0.73361   0.76502   0.79359   0.91053
  Beta virt. eigenvalues --    0.99075   1.09551   1.17380   1.19762   1.19835
  Beta virt. eigenvalues --    1.55342   1.55520   1.56608   1.57422   1.67592
  Beta virt. eigenvalues --    1.68378   1.97710   1.99135   2.03176   2.03497
  Beta virt. eigenvalues --    2.05196   2.09789   2.22832   2.23512   2.37466
  Beta virt. eigenvalues --    2.43174   2.82312   2.87836   2.90009   2.90645
          Condensed to atoms (all electrons):
               1          2          3          4          5          6
     1  C    5.083703   0.430685  -0.066246   0.403899   0.399918  -0.006388
     2  S    0.430685  15.021291   0.430696  -0.030955  -0.022914  -0.022913
     3  C   -0.066246   0.430696   5.083671   0.003784  -0.006387   0.399917
     4  H    0.403899  -0.030955   0.003784   0.578090  -0.024700   0.000106
     5  H    0.399918  -0.022914  -0.006387  -0.024700   0.582578   0.004606
     6  H   -0.006388  -0.022913   0.399917   0.000106   0.004606   0.582579
     7  H    0.003784  -0.030956   0.403900  -0.000241   0.000105  -0.024701
               7
     1  C    0.003784
     2  S   -0.030956
     3  C    0.403900
     4  H   -0.000241
     5  H    0.000105
     6  H   -0.024701
     7  H    0.578089
          Atomic-Atomic Spin Densities.
               1          2          3          4          5          6
     1  C   -0.000000  -0.000000   0.000000   0.000000   0.000000  -0.000000
     2  S   -0.000000   0.000000   0.000000  -0.000000  -0.000000   0.000000
     3  C    0.000000   0.000000  -0.000000   0.000000   0.000000   0.000000
     4  H    0.000000  -0.000000   0.000000   0.000000   0.000000  -0.000000
     5  H    0.000000  -0.000000   0.000000   0.000000   0.000000  -0.000000
     6  H   -0.000000   0.000000   0.000000  -0.000000  -0.000000   0.000000
     7  H   -0.000000   0.000000   0.000000  -0.000000   0.000000  -0.000000
               7
     1  C   -0.000000
     2  S    0.000000
     3  C    0.000000
     4  H   -0.000000
     5  H    0.000000
     6  H   -0.000000
     7  H    0.000000
 Mulliken charges and spin densities:
               1          2
     1  C   -0.249354  -0.000000
     2  S    0.225065   0.000000
     3  C   -0.249336  -0.000000
     4  H    0.070018   0.000000
     5  H    0.066794   0.000000
     6  H    0.066794   0.000000
     7  H    0.070019   0.000000
 Sum of Mulliken charges =  -0.00000   0.00000
 Mulliken charges and spin densities with hydrogens summed into heavy atoms:
               1          2
     1  C   -0.112543   0.000000
     2  S    0.225065   0.000000
     3  C   -0.112522   0.000000
 Electronic spatial extent (au):  <R**2>=            870.2855
 Charge=              0.0000 electrons
 Dipole moment (field-independent basis, Debye):
    X=             -0.0412    Y=              0.0211    Z=             -0.0551  Tot=              0.0720
 Quadrupole moment (field-independent basis, Debye-Ang):
   XX=            -24.8640   YY=            -27.8667   ZZ=            -25.2010
   XY=              0.2611   XZ=              0.0168   YZ=             -1.4248
 Traceless Quadrupole moment (field-independent basis, Debye-Ang):
   XX=              1.1132   YY=             -1.8895   ZZ=              0.7763
   XY=              0.2611   XZ=              0.0168   YZ=             -1.4248
 Octapole moment (field-independent basis, Debye-Ang**2):
  XXX=           -170.7462  YYY=            -21.1423  ZZZ=             27.0318  XYY=            -64.4531
  XXY=             -4.3844  XXZ=              8.1906  XZZ=            -61.1732  YZZ=             -4.4596
  YYZ=              9.8708  XYZ=             -2.1125
 Hexadecapole moment (field-independent basis, Debye-Ang**3):
 XXXX=           -938.8761 YYYY=            -63.9624 ZZZZ=           -119.6864 XXXY=            -48.5685
 XXXZ=             81.9184 YYYX=            -69.1598 YYYZ=             26.7499 ZZZX=             93.2133
 ZZZY=             18.4020 XXYY=           -189.4086 XXZZ=           -194.1301 YYZZ=            -29.5298
 XXYZ=              2.1859 YYXZ=             33.2016 ZZXY=            -14.9592
 N-N= 1.003080120317D+02 E-N=-1.327477922387D+03  KE= 4.746604299268D+02
                          Isotropic Fermi Contact Couplings
        Atom                 a.u.       MegaHertz       Gauss      10(-4) cm-1
     1  C(13)             -0.00000      -0.00000      -0.00000      -0.00000
     2  S(33)              0.00000       0.00000       0.00000       0.00000
     3  C(13)             -0.00000      -0.00000      -0.00000      -0.00000
     4  H(1)               0.00000       0.00000       0.00000       0.00000
     5  H(1)               0.00000       0.00000       0.00000       0.00000
     6  H(1)               0.00000       0.00000       0.00000       0.00000
     7  H(1)               0.00000       0.00000       0.00000       0.00000
 --------------------------------------------------------
       Center         ----  Spin Dipole Couplings  ----
                      3XX-RR        3YY-RR        3ZZ-RR
 --------------------------------------------------------
     1   Atom        0.000000      0.000000      0.000000
     2   Atom        0.000000      0.000000      0.000000
     3   Atom        0.000000      0.000000      0.000000
     4   Atom        0.000000      0.000000      0.000000
     5   Atom        0.000000      0.000000      0.000000
     6   Atom        0.000000      0.000000      0.000000
     7   Atom        0.000000      0.000000      0.000000
 --------------------------------------------------------
                        XY            XZ            YZ
 --------------------------------------------------------
     1   Atom        0.000000      0.000000      0.000000
     2   Atom        0.000000      0.000000      0.000000
     3   Atom        0.000000      0.000000      0.000000
     4   Atom        0.000000      0.000000      0.000000
     5   Atom        0.000000      0.000000      0.000000
     6   Atom        0.000000      0.000000      0.000000
     7   Atom        0.000000      0.000000      0.000000
 --------------------------------------------------------


 ---------------------------------------------------------------------------------
              Anisotropic Spin Dipole Couplings in Principal Axis System
 ---------------------------------------------------------------------------------

       Atom             a.u.   MegaHertz   Gauss  10(-4) cm-1        Axes

              Baa     0.0000     0.000     0.000     0.000  1.0000  0.0000  0.0000
     1 C(13)  Bbb     0.0000     0.000     0.000     0.000 -0.0000  1.0000  0.0000
              Bcc     0.0000     0.000     0.000     0.000  0.0000  0.0000  1.0000
 
              Baa     0.0000     0.000     0.000     0.000  1.0000  0.0000  0.0000
     2 S(33)  Bbb     0.0000     0.000     0.000     0.000 -0.0000  1.0000  0.0000
              Bcc     0.0000     0.000     0.000     0.000  0.0000  0.0000  1.0000
 
              Baa     0.0000     0.000     0.000     0.000  1.0000  0.0000  0.0000
     3 C(13)  Bbb     0.0000     0.000     0.000     0.000 -0.0000  1.0000  0.0000
              Bcc     0.0000     0.000     0.000     0.000  0.0000  0.0000  1.0000
 
              Baa     0.0000     0.000     0.000     0.000  1.0000  0.0000  0.0000
     4 H(1)   Bbb     0.0000     0.000     0.000     0.000 -0.0000  1.0000  0.0000
              Bcc     0.0000     0.000     0.000     0.000  0.0000  0.0000  1.0000
 
              Baa     0.0000     0.000     0.000     0.000  1.0000  0.0000  0.0000
     5 H(1)   Bbb     0.0000     0.000     0.000     0.000 -0.0000  1.0000  0.0000
              Bcc     0.0000     0.000     0.000     0.000  0.0000  0.0000  1.0000
 
              Baa     0.0000     0.000     0.000     0.000  1.0000  0.0000  0.0000
     6 H(1)   Bbb     0.0000     0.000     0.000     0.000 -0.0000  1.0000  0.0000
              Bcc     0.0000     0.000     0.000     0.000  0.0000  0.0000  1.0000
 
              Baa     0.0000     0.000     0.000     0.000  1.0000  0.0000  0.0000
     7 H(1)   Bbb     0.0000     0.000     0.000     0.000 -0.0000  1.0000  0.0000
              Bcc     0.0000     0.000     0.000     0.000  0.0000  0.0000  1.0000
 

 ---------------------------------------------------------------------------------

 No NMR shielding tensors so no spin-rotation constants.
 Leave Link  601 at Tue Jan  3 09:05:14 2023, MaxMem=   536870912 cpu:               0.3 elap:               0.1
 (Enter /opt/software/gaussian/g16.c01/l801.exe)
 DoSCS=F DFT=T ScalE2(SS,OS)=  1.000000  1.000000
 Range of M.O.s used for correlation:     1    66
 NBasis=    66 NAE=    16 NBE=    16 NFC=     0 NFV=     0
 NROrb=     66 NOA=    16 NOB=    16 NVA=    50 NVB=    50
 Leave Link  801 at Tue Jan  3 09:05:14 2023, MaxMem=   536870912 cpu:               0.1 elap:               0.0
 (Enter /opt/software/gaussian/g16.c01/l914.exe)
 UHF ground state
 Doing stability rather than CIS.
 Keep R1 and R2 ints in memory in canonical form, NReq=7380879.
 FoFCou: FMM=F IPFlag=           0 FMFlag=           0 FMFlg1=           0
         NFxFlg=           0 DoJE=F BraDBF=F KetDBF=F FulRan=T
         wScrn=  0.000000 ICntrl=       600 IOpCl=  0 I1Cent=           0 NGrid=           0
         NMat0=    1 NMatS0=   2211 NMatT0=    0 NMatD0=    1 NMtDS0=    0 NMtDT0=    0
 Symmetry not used in FoFCou.
 Two-electron integral symmetry not used.
 MDV=   536870912 DFT=T DoStab=T Mixed=T DoRPA=F DoScal=F NonHer=F
 Making orbital integer symmetry assigments:
    12 initial guesses have been made.
 Convergence on wavefunction:    0.001000000000000
 Davidson Disk Diagonalization:  ConvIn= 1.00D-03 SkipCon=T Conv= 1.00D-03.
 Max sub-space:  2000 roots to seek:    12 dimension of matrix:         1600
 Iteration     1 Dimension    12 NMult     0 NNew     12
 CISAX will form    12 AO SS matrices at one time.
 NMat=    12 NSing=    12 JSym2X= 0.
 Excitation Energies [eV] at current iteration:
 Root      1 :     0.629716381186328
 Root      2 :     5.319966924352303
 Root      3 :     5.335121954057015
 Root      4 :     5.782594902618560
 Root      5 :     5.807146332605566
 Root      6 :     6.173667962722781
 Root      7 :     6.522444327082416
 Root      8 :     6.685167715498332
 Root      9 :     6.773301598579510
 Root     10 :     7.462692505117674
 Root     11 :    11.828703110889483
 Root     12 :    12.673715573879278
 Iteration     2 Dimension    24 NMult    12 NNew     12
 CISAX will form    12 AO SS matrices at one time.
 NMat=    12 NSing=    12 JSym2X= 0.
 Root      1 not converged, maximum delta is    0.056286788639455
 Excitation Energies [eV] at current iteration:
 Root      1 :     0.358797133218831   Change is   -0.270919247967497
 Root      2 :     5.067890053670663   Change is   -0.252076870681641
 Root      3 :     5.086547464748791   Change is   -0.248574489308224
 Root      4 :     5.547749540405246   Change is   -0.259396792200320
 Root      5 :     5.629375507362387   Change is   -0.153219395256172
 Root      6 :     5.971850284603445   Change is   -0.201817678119337
 Root      7 :     6.390948310815758   Change is   -0.294219404682573
 Root      8 :     6.464810750883562   Change is   -0.057633576198853
 Root      9 :     6.574073403950406   Change is   -0.199228194629104
 Root     10 :     7.020678364504892   Change is   -0.442014140612782
 Root     11 :     9.002561910815951   Change is   -2.826141200073534
 Root     12 :     9.537650202969289   Change is   -3.136065370909989
 Iteration     3 Dimension    27 NMult    24 NNew      3
 CISAX will form     3 AO SS matrices at one time.
 NMat=     3 NSing=     3 JSym2X= 0.
 Root      1 not converged, maximum delta is    0.003022340186384
 Excitation Energies [eV] at current iteration:
 Root      1 :     0.354648040645069   Change is   -0.004149092573762
 Root      2 :     5.065277318745292   Change is   -0.002612734925370
 Root      3 :     5.079909631059896   Change is   -0.006637833688895
 Iteration     4 Dimension    30 NMult    27 NNew      3
 CISAX will form     3 AO SS matrices at one time.
 NMat=     3 NSing=     3 JSym2X= 0.
 Root      1 has converged.
 Excitation Energies [eV] at current iteration:
 Root      1 :     0.354563211484389   Change is   -0.000084829160681
 Root      2 :     5.065135999697415   Change is   -0.000141319047877
 Root      3 :     5.079426664922750   Change is   -0.000482966137146
 Convergence achieved on expansion vectors.
 ***********************************************************************
 Stability analysis using <AA,BB:AA,BB> singles matrix:
 ***********************************************************************
 1PDM for each excited state written to RWF  633
 Ground to excited state transition densities written to RWF  633

 Eigenvectors of the stability matrix:
 
 Excited state symmetry could not be determined.
 Eigenvector   1:  3.000-?Sym  Eigenvalue= 0.0130300  <S**2>=2.000
     16A -> 17A       -0.70144
     16B -> 17B        0.70144
 The wavefunction is stable under the perturbations considered.
 Leave Link  914 at Tue Jan  3 09:05:30 2023, MaxMem=   536870912 cpu:              31.8 elap:              15.9
 (Enter /opt/software/gaussian/g16.c01/l508.exe)
 The wavefunction is already stable.
 Leave Link  508 at Tue Jan  3 09:05:30 2023, MaxMem=   536870912 cpu:               0.0 elap:               0.0
 (Enter /opt/software/gaussian/g16.c01/l601.exe)
 Copying SCF densities to generalized density rwf, IOpCl= 1 IROHF=0.

 **********************************************************************

            Population analysis using the SCF Density.

 **********************************************************************

 Alpha  occ. eigenvalues --  -88.90762 -10.19476 -10.19473  -7.99974  -5.96671
 Alpha  occ. eigenvalues --   -5.96499  -5.96217  -0.85020  -0.69025  -0.56475
 Alpha  occ. eigenvalues --   -0.46753  -0.45935  -0.40318  -0.36026  -0.33266
 Alpha  occ. eigenvalues --   -0.19602
 Alpha virt. eigenvalues --   -0.04851   0.07772   0.07773   0.09117   0.12859
 Alpha virt. eigenvalues --    0.15265   0.21015   0.30534   0.39238   0.40409
 Alpha virt. eigenvalues --    0.47392   0.47705   0.49130   0.53563   0.53620
 Alpha virt. eigenvalues --    0.61057   0.63536   0.64198   0.64811   0.66520
 Alpha virt. eigenvalues --    0.68187   0.73361   0.76502   0.79359   0.91053
 Alpha virt. eigenvalues --    0.99075   1.09551   1.17380   1.19762   1.19835
 Alpha virt. eigenvalues --    1.55342   1.55520   1.56608   1.57422   1.67592
 Alpha virt. eigenvalues --    1.68378   1.97710   1.99135   2.03176   2.03497
 Alpha virt. eigenvalues --    2.05196   2.09789   2.22832   2.23512   2.37466
 Alpha virt. eigenvalues --    2.43174   2.82312   2.87836   2.90009   2.90645
  Beta  occ. eigenvalues --  -88.90762 -10.19476 -10.19473  -7.99974  -5.96671
  Beta  occ. eigenvalues --   -5.96499  -5.96217  -0.85020  -0.69025  -0.56475
  Beta  occ. eigenvalues --   -0.46753  -0.45935  -0.40318  -0.36026  -0.33266
  Beta  occ. eigenvalues --   -0.19602
  Beta virt. eigenvalues --   -0.04851   0.07772   0.07773   0.09117   0.12859
  Beta virt. eigenvalues --    0.15265   0.21015   0.30534   0.39238   0.40409
  Beta virt. eigenvalues --    0.47392   0.47705   0.49130   0.53563   0.53620
  Beta virt. eigenvalues --    0.61057   0.63536   0.64198   0.64811   0.66520
  Beta virt. eigenvalues --    0.68187   0.73361   0.76502   0.79359   0.91053
  Beta virt. eigenvalues --    0.99075   1.09551   1.17380   1.19762   1.19835
  Beta virt. eigenvalues --    1.55342   1.55520   1.56608   1.57422   1.67592
  Beta virt. eigenvalues --    1.68378   1.97710   1.99135   2.03176   2.03497
  Beta virt. eigenvalues --    2.05196   2.09789   2.22832   2.23512   2.37466
  Beta virt. eigenvalues --    2.43174   2.82312   2.87836   2.90009   2.90645
          Condensed to atoms (all electrons):
               1          2          3          4          5          6
     1  C    5.083703   0.430685  -0.066246   0.403899   0.399918  -0.006388
     2  S    0.430685  15.021291   0.430696  -0.030955  -0.022914  -0.022913
     3  C   -0.066246   0.430696   5.083671   0.003784  -0.006387   0.399917
     4  H    0.403899  -0.030955   0.003784   0.578090  -0.024700   0.000106
     5  H    0.399918  -0.022914  -0.006387  -0.024700   0.582578   0.004606
     6  H   -0.006388  -0.022913   0.399917   0.000106   0.004606   0.582579
     7  H    0.003784  -0.030956   0.403900  -0.000241   0.000105  -0.024701
               7
     1  C    0.003784
     2  S   -0.030956
     3  C    0.403900
     4  H   -0.000241
     5  H    0.000105
     6  H   -0.024701
     7  H    0.578089
          Atomic-Atomic Spin Densities.
               1          2          3          4          5          6
     1  C   -0.000000  -0.000000   0.000000   0.000000   0.000000  -0.000000
     2  S   -0.000000   0.000000   0.000000  -0.000000  -0.000000   0.000000
     3  C    0.000000   0.000000  -0.000000   0.000000   0.000000   0.000000
     4  H    0.000000  -0.000000   0.000000   0.000000   0.000000  -0.000000
     5  H    0.000000  -0.000000   0.000000   0.000000   0.000000  -0.000000
     6  H   -0.000000   0.000000   0.000000  -0.000000  -0.000000   0.000000
     7  H   -0.000000   0.000000   0.000000  -0.000000   0.000000  -0.000000
               7
     1  C   -0.000000
     2  S    0.000000
     3  C    0.000000
     4  H   -0.000000
     5  H    0.000000
     6  H   -0.000000
     7  H    0.000000
 Mulliken charges and spin densities:
               1          2
     1  C   -0.249354  -0.000000
     2  S    0.225065   0.000000
     3  C   -0.249336  -0.000000
     4  H    0.070018   0.000000
     5  H    0.066794   0.000000
     6  H    0.066794   0.000000
     7  H    0.070019   0.000000
 Sum of Mulliken charges =  -0.00000   0.00000
 Mulliken charges and spin densities with hydrogens summed into heavy atoms:
               1          2
     1  C   -0.112543   0.000000
     2  S    0.225065   0.000000
     3  C   -0.112522   0.000000
 Electronic spatial extent (au):  <R**2>=            870.2855
 Charge=              0.0000 electrons
 Dipole moment (field-independent basis, Debye):
    X=             -0.0412    Y=              0.0211    Z=             -0.0551  Tot=              0.0720
 Quadrupole moment (field-independent basis, Debye-Ang):
   XX=            -24.8640   YY=            -27.8667   ZZ=            -25.2010
   XY=              0.2611   XZ=              0.0168   YZ=             -1.4248
 Traceless Quadrupole moment (field-independent basis, Debye-Ang):
   XX=              1.1132   YY=             -1.8895   ZZ=              0.7763
   XY=              0.2611   XZ=              0.0168   YZ=             -1.4248
 Octapole moment (field-independent basis, Debye-Ang**2):
  XXX=           -170.7462  YYY=            -21.1423  ZZZ=             27.0318  XYY=            -64.4531
  XXY=             -4.3844  XXZ=              8.1906  XZZ=            -61.1732  YZZ=             -4.4596
  YYZ=              9.8708  XYZ=             -2.1125
 Hexadecapole moment (field-independent basis, Debye-Ang**3):
 XXXX=           -938.8761 YYYY=            -63.9624 ZZZZ=           -119.6864 XXXY=            -48.5685
 XXXZ=             81.9184 YYYX=            -69.1598 YYYZ=             26.7499 ZZZX=             93.2133
 ZZZY=             18.4020 XXYY=           -189.4086 XXZZ=           -194.1301 YYZZ=            -29.5298
 XXYZ=              2.1859 YYXZ=             33.2016 ZZXY=            -14.9592
 N-N= 1.003080120317D+02 E-N=-1.327477922387D+03  KE= 4.746604299268D+02
                          Isotropic Fermi Contact Couplings
        Atom                 a.u.       MegaHertz       Gauss      10(-4) cm-1
     1  C(13)             -0.00000      -0.00000      -0.00000      -0.00000
     2  S(33)              0.00000       0.00000       0.00000       0.00000
     3  C(13)             -0.00000      -0.00000      -0.00000      -0.00000
     4  H(1)               0.00000       0.00000       0.00000       0.00000
     5  H(1)               0.00000       0.00000       0.00000       0.00000
     6  H(1)               0.00000       0.00000       0.00000       0.00000
     7  H(1)               0.00000       0.00000       0.00000       0.00000
 --------------------------------------------------------
       Center         ----  Spin Dipole Couplings  ----
                      3XX-RR        3YY-RR        3ZZ-RR
 --------------------------------------------------------
     1   Atom        0.000000      0.000000      0.000000
     2   Atom        0.000000      0.000000      0.000000
     3   Atom        0.000000      0.000000      0.000000
     4   Atom        0.000000      0.000000      0.000000
     5   Atom        0.000000      0.000000      0.000000
     6   Atom        0.000000      0.000000      0.000000
     7   Atom        0.000000      0.000000      0.000000
 --------------------------------------------------------
                        XY            XZ            YZ
 --------------------------------------------------------
     1   Atom        0.000000      0.000000      0.000000
     2   Atom        0.000000      0.000000      0.000000
     3   Atom        0.000000      0.000000      0.000000
     4   Atom        0.000000      0.000000      0.000000
     5   Atom        0.000000      0.000000      0.000000
     6   Atom        0.000000      0.000000      0.000000
     7   Atom        0.000000      0.000000      0.000000
 --------------------------------------------------------


 ---------------------------------------------------------------------------------
              Anisotropic Spin Dipole Couplings in Principal Axis System
 ---------------------------------------------------------------------------------

       Atom             a.u.   MegaHertz   Gauss  10(-4) cm-1        Axes

              Baa     0.0000     0.000     0.000     0.000  1.0000  0.0000  0.0000
     1 C(13)  Bbb     0.0000     0.000     0.000     0.000 -0.0000  1.0000  0.0000
              Bcc     0.0000     0.000     0.000     0.000  0.0000  0.0000  1.0000
 
              Baa     0.0000     0.000     0.000     0.000  1.0000  0.0000  0.0000
     2 S(33)  Bbb     0.0000     0.000     0.000     0.000 -0.0000  1.0000  0.0000
              Bcc     0.0000     0.000     0.000     0.000  0.0000  0.0000  1.0000
 
              Baa     0.0000     0.000     0.000     0.000  1.0000  0.0000  0.0000
     3 C(13)  Bbb     0.0000     0.000     0.000     0.000 -0.0000  1.0000  0.0000
              Bcc     0.0000     0.000     0.000     0.000  0.0000  0.0000  1.0000
 
              Baa     0.0000     0.000     0.000     0.000  1.0000  0.0000  0.0000
     4 H(1)   Bbb     0.0000     0.000     0.000     0.000 -0.0000  1.0000  0.0000
              Bcc     0.0000     0.000     0.000     0.000  0.0000  0.0000  1.0000
 
              Baa     0.0000     0.000     0.000     0.000  1.0000  0.0000  0.0000
     5 H(1)   Bbb     0.0000     0.000     0.000     0.000 -0.0000  1.0000  0.0000
              Bcc     0.0000     0.000     0.000     0.000  0.0000  0.0000  1.0000
 
              Baa     0.0000     0.000     0.000     0.000  1.0000  0.0000  0.0000
     6 H(1)   Bbb     0.0000     0.000     0.000     0.000 -0.0000  1.0000  0.0000
              Bcc     0.0000     0.000     0.000     0.000  0.0000  0.0000  1.0000
 
              Baa     0.0000     0.000     0.000     0.000  1.0000  0.0000  0.0000
     7 H(1)   Bbb     0.0000     0.000     0.000     0.000 -0.0000  1.0000  0.0000
              Bcc     0.0000     0.000     0.000     0.000  0.0000  0.0000  1.0000
 

 ---------------------------------------------------------------------------------

 No NMR shielding tensors so no spin-rotation constants.
 Leave Link  601 at Tue Jan  3 09:05:30 2023, MaxMem=   536870912 cpu:               0.3 elap:               0.1
 (Enter /opt/software/gaussian/g16.c01/l9999.exe)

 Test job not archived.
 1\1\GINC-GRA738\Stability\UB3LYP\Gen\C2H4S1\BHAVUK\03-Jan-2023\0\\#p u
 b3lyp/gen stable=opt scf=(maxcycle=900,verytightlineq,xqc) integral=gr
 id=ultrafine symmetry=None density=current iop(99/18=-1) output=wfn\\0
 003_q000_m01_k00_opt_uwb97xd_def2svpd/0003_q000_m01_k00_force_ub3lyp_d
 ef2svp stable-force\\0,1\C,0,0.9838325225,-0.0325586033,0.0488580178\S
 ,0,2.6071301422,0.0991997065,0.0187984451\C,0,3.2273228911,0.736197977
 ,-1.3460048506\H,0,0.570421034,-0.4575297175,0.9597448627\H,0,0.343807
 2589,0.2782232167,-0.7754915598\H,0,2.615218944,1.0564841772,-2.187741
 5072\H,0,4.3104572053,0.8236432464,-1.365823405\\Version=ES64L-G16RevC
 .01\HF=-476.5517378\S2=0.\S2-1=0.\S2A=0.\RMSD=8.844e-09\Dipole=-0.0162
 11,0.0083075,-0.0216972\Quadrupole=0.8276505,-1.40478,0.5771295,0.1941
 028,0.0125235,-1.0593148\PG=Unknown\\@

 Writing a WFN file to "0003_q000_m01_k00_force_ub3lyp_def2svp.wfn"


 Everywhere is walking distance if you have the time.
                                    -- Steven Wright
 Job cpu time:       0 days  0 hours  0 minutes 43.9 seconds.
 Elapsed time:       0 days  0 hours  0 minutes 21.9 seconds.
 File lengths (MBytes):  RWF=     59 Int=      0 D2E=      0 Chk=      2 Scr=      1
 Normal termination of Gaussian 16 at Tue Jan  3 09:05:30 2023.
 Initial command:
 /opt/software/gaussian/g16.c01/l1.exe "/localscratch/bhavuk.2151375.0/Gau-19731.inp" -scrdir="/localscratch/bhavuk.2151375.0/"
 Entering Link 1 = /opt/software/gaussian/g16.c01/l1.exe PID=     20610.
  
 Copyright (c) 1988-2019, Gaussian, Inc.  All Rights Reserved.
  
 This is part of the Gaussian(R) 16 program.  It is based on
 the Gaussian(R) 09 system (copyright 2009, Gaussian, Inc.),
 the Gaussian(R) 03 system (copyright 2003, Gaussian, Inc.),
 the Gaussian(R) 98 system (copyright 1998, Gaussian, Inc.),
 the Gaussian(R) 94 system (copyright 1995, Gaussian, Inc.),
 the Gaussian 92(TM) system (copyright 1992, Gaussian, Inc.),
 the Gaussian 90(TM) system (copyright 1990, Gaussian, Inc.),
 the Gaussian 88(TM) system (copyright 1988, Gaussian, Inc.),
 the Gaussian 86(TM) system (copyright 1986, Carnegie Mellon
 University), and the Gaussian 82(TM) system (copyright 1983,
 Carnegie Mellon University). Gaussian is a federally registered
 trademark of Gaussian, Inc.
  
 This software contains proprietary and confidential information,
 including trade secrets, belonging to Gaussian, Inc.
  
 This software is provided under written license and may be
 used, copied, transmitted, or stored only in accord with that
 written license.
  
 The following legend is applicable only to US Government
 contracts under FAR:
  
                    RESTRICTED RIGHTS LEGEND
  
 Use, reproduction and disclosure by the US Government is
 subject to restrictions as set forth in subparagraphs (a)
 and (c) of the Commercial Computer Software - Restricted
 Rights clause in FAR 52.227-19.
  
 Gaussian, Inc.
 340 Quinnipiac St., Bldg. 40, Wallingford CT 06492
  
  
 ---------------------------------------------------------------
 Warning -- This program may not be used in any manner that
 competes with the business of Gaussian, Inc. or will provide
 assistance to any competitor of Gaussian, Inc.  The licensee
 of this program is prohibited from giving any competitor of
 Gaussian, Inc. access to this program.  By using this program,
 the user acknowledges that Gaussian, Inc. is engaged in the
 business of creating and licensing software in the field of
 computational chemistry and represents and warrants to the
 licensee that it is not a competitor of Gaussian, Inc. and that
 it will not use this program in any manner prohibited above.
 ---------------------------------------------------------------
  

 Cite this work as:
 Gaussian 16, Revision C.01,
 M. J. Frisch, G. W. Trucks, H. B. Schlegel, G. E. Scuseria, 
 M. A. Robb, J. R. Cheeseman, G. Scalmani, V. Barone, 
 G. A. Petersson, H. Nakatsuji, X. Li, M. Caricato, A. V. Marenich, 
 J. Bloino, B. G. Janesko, R. Gomperts, B. Mennucci, H. P. Hratchian, 
 J. V. Ortiz, A. F. Izmaylov, J. L. Sonnenberg, D. Williams-Young, 
 F. Ding, F. Lipparini, F. Egidi, J. Goings, B. Peng, A. Petrone, 
 T. Henderson, D. Ranasinghe, V. G. Zakrzewski, J. Gao, N. Rega, 
 G. Zheng, W. Liang, M. Hada, M. Ehara, K. Toyota, R. Fukuda, 
 J. Hasegawa, M. Ishida, T. Nakajima, Y. Honda, O. Kitao, H. Nakai, 
 T. Vreven, K. Throssell, J. A. Montgomery, Jr., J. E. Peralta, 
 F. Ogliaro, M. J. Bearpark, J. J. Heyd, E. N. Brothers, K. N. Kudin, 
 V. N. Staroverov, T. A. Keith, R. Kobayashi, J. Normand, 
 K. Raghavachari, A. P. Rendell, J. C. Burant, S. S. Iyengar, 
 J. Tomasi, M. Cossi, J. M. Millam, M. Klene, C. Adamo, R. Cammi, 
 J. W. Ochterski, R. L. Martin, K. Morokuma, O. Farkas, 
 J. B. Foresman, and D. J. Fox, Gaussian, Inc., Wallingford CT, 2019.
 
 ******************************************
 Gaussian 16:  ES64L-G16RevC.01  3-Jul-2019
                 3-Jan-2023 
 ******************************************
 %chk=0003_q000_m01_k00_force_ub3lyp_def2svp.chk
 %nprocshared=2
 Will use up to    2 processors via shared memory.
 %mem=4GB
 ----------------------------------------------------------------------
 #p ub3lyp/chkbasis force guess=read geom=check scf=(maxcycle=900,veryt
 ightlineq,xqc) integral=grid=ultrafine symmetry=None density=current p
 op=(cm5,hlygat,mbs,npa) output=wfx
 ----------------------------------------------------------------------
 1/10=7,29=2,30=1,38=1/1,3;
 2/12=2,15=3,40=1/2;
 3/5=7,6=2,11=2,14=-4,25=1,30=1,67=1,71=1,74=-5,75=-5,116=2/1,2,3;
 4/5=1/1;
 5/5=2,7=900,8=3,13=1,17=3,38=6/2,8;
 6/7=2,8=2,9=2,10=2,15=8,20=15,22=-1,27=100,28=1,40=-1,79=1/1,2,7;
 7/29=1,30=1/1,2,3,16;
 1/10=7,30=1/3;
 99/6=200/99;
 Leave Link    1 at Tue Jan  3 09:05:31 2023, MaxMem=   536870912 cpu:               0.2 elap:               0.1
 (Enter /opt/software/gaussian/g16.c01/l101.exe)
 ----------------------------------------------------------------------
 0003_q000_m01_k00_opt_uwb97xd_def2svpd/0003_q000_m01_k00_force_ub3lyp_
 def2svp stable-force
 ----------------------------------------------------------------------
 Structure from the checkpoint file:  "0003_q000_m01_k00_force_ub3lyp_def2svp.chk"
 Charge =  0 Multiplicity = 1
 Z-Matrix found in chk file.
 C,0,0.9838325225,-0.0325586033,0.0488580178
 S,0,2.6071301422,0.0991997065,0.0187984451
 C,0,3.2273228911,0.736197977,-1.3460048506
 H,0,0.570421034,-0.4575297175,0.9597448627
 H,0,0.3438072589,0.2782232167,-0.7754915598
 H,0,2.615218944,1.0564841772,-2.1877415072
 H,0,4.3104572053,0.8236432464,-1.365823405
 Recover connectivity data from disk.
 ITRead=  0  0  0  0  0  0  0
 MicOpt= -1 -1 -1 -1 -1 -1 -1
 NAtoms=      7 NQM=        7 NQMF=       0 NMMI=      0 NMMIF=      0
                NMic=       0 NMicF=      0.
                    Isotopes and Nuclear Properties:
 (Nuclear quadrupole moments (NQMom) in fm**2, nuclear magnetic moments (NMagM)
  in nuclear magnetons)

  Atom         1           2           3           4           5           6           7
 IAtWgt=          12          32          12           1           1           1           1
 AtmWgt=  12.0000000  31.9720718  12.0000000   1.0078250   1.0078250   1.0078250   1.0078250
 NucSpn=           0           0           0           1           1           1           1
 AtZEff=   3.6000000  13.6000000   3.6000000   1.0000000   1.0000000   1.0000000   1.0000000
 NQMom=    0.0000000   0.0000000   0.0000000   0.0000000   0.0000000   0.0000000   0.0000000
 NMagM=    0.0000000   0.0000000   0.0000000   2.7928460   2.7928460   2.7928460   2.7928460
 AtZNuc=   6.0000000  16.0000000   6.0000000   1.0000000   1.0000000   1.0000000   1.0000000
 Leave Link  101 at Tue Jan  3 09:05:31 2023, MaxMem=   536870912 cpu:               0.4 elap:               0.2
 (Enter /opt/software/gaussian/g16.c01/l103.exe)

 GradGradGradGradGradGradGradGradGradGradGradGradGradGradGradGradGradGrad
 Berny optimization.
 Initialization pass.
 Trust Radius=3.00D-01 FncErr=1.00D-07 GrdErr=1.00D-07 EigMax=2.50D+02 EigMin=1.00D-04
 Number of steps in this run=      2 maximum allowed number of steps=      2.
 GradGradGradGradGradGradGradGradGradGradGradGradGradGradGradGradGradGrad

 Leave Link  103 at Tue Jan  3 09:05:31 2023, MaxMem=   536870912 cpu:               0.1 elap:               0.0
 (Enter /opt/software/gaussian/g16.c01/l202.exe)
                          Input orientation:                          
 ---------------------------------------------------------------------
 Center     Atomic      Atomic             Coordinates (Angstroms)
 Number     Number       Type             X           Y           Z
 ---------------------------------------------------------------------
      1          6           0        0.983833   -0.032559    0.048858
      2         16           0        2.607130    0.099200    0.018798
      3          6           0        3.227323    0.736198   -1.346005
      4          1           0        0.570421   -0.457530    0.959745
      5          1           0        0.343807    0.278223   -0.775492
      6          1           0        2.615219    1.056484   -2.187742
      7          1           0        4.310457    0.823643   -1.365823
 ---------------------------------------------------------------------
                    Distance matrix (angstroms):
                    1          2          3          4          5
     1  C    0.000000
     2  S    1.628913   0.000000
     3  C    2.751341   1.628832   0.000000
     4  H    1.086841   2.311604   3.714915   0.000000
     5  H    1.088931   2.405323   2.974876   1.898350   0.000000
     6  H    2.974864   2.405260   1.088933   4.047234   2.785579
     7  H    3.714948   2.311562   1.086839   4.586670   4.047257
                    6          7
     6  H    0.000000
     7  H    1.898314   0.000000
 Symmetry turned off by external request.
 Stoichiometry    C2H4S
 Rotational constants (GHZ):          32.8865896           8.4327606           6.7117401
 Leave Link  202 at Tue Jan  3 09:05:31 2023, MaxMem=   536870912 cpu:               0.0 elap:               0.0
 (Enter /opt/software/gaussian/g16.c01/l301.exe)
 Basis read from chk: "0003_q000_m01_k00_force_ub3lyp_def2svp.chk" (5D, 7F)
 No pseudopotential information found on chk file.
    66 basis functions,   115 primitive gaussians,    69 cartesian basis functions
    16 alpha electrons       16 beta electrons
       nuclear repulsion energy       100.3080120317 Hartrees.
 IExCor=  402 DFT=T Ex+Corr=B3LYP ExCW=0 ScaHFX=  0.200000
 ScaDFX=  0.800000  0.720000  1.000000  0.810000 ScalE2=  1.000000  1.000000
 IRadAn=      5 IRanWt=     -1 IRanGd=            0 ICorTp=0 IEmpDi=  4
 NAtoms=    7 NActive=    7 NUniq=    7 SFac= 1.00D+00 NAtFMM=   60 NAOKFM=F Big=F
 Integral buffers will be    131072 words long.
 Raffenetti 2 integral format.
 Two-electron integral symmetry is turned off.
 No density basis found on file  20724.
 Leave Link  301 at Tue Jan  3 09:05:31 2023, MaxMem=   536870912 cpu:               0.1 elap:               0.1
 (Enter /opt/software/gaussian/g16.c01/l302.exe)
 NPDir=0 NMtPBC=     1 NCelOv=     1 NCel=       1 NClECP=     1 NCelD=      1
         NCelK=      1 NCelE2=     1 NClLst=     1 CellRange=     0.0.
 One-electron integrals computed using PRISM.
 NBasis=    66 RedAO= T EigKep=  6.57D-03  NBF=    66
 NBsUse=    66 1.00D-06 EigRej= -1.00D+00 NBFU=    66
 Precomputing XC quadrature grid using
 IXCGrd= 4 IRadAn=           5 IRanWt=          -1 IRanGd=           0 AccXCQ= 0.00D+00.
 Generated NRdTot=       0 NPtTot=           0 NUsed=           0 NTot=          32
 NSgBfM=    69    69    69    69    69 MxSgAt=     7 MxSgA2=     7.
 Leave Link  302 at Tue Jan  3 09:05:31 2023, MaxMem=   536870912 cpu:               0.3 elap:               0.2
 (Enter /opt/software/gaussian/g16.c01/l303.exe)
 DipDrv:  MaxL=1.
 Leave Link  303 at Tue Jan  3 09:05:31 2023, MaxMem=   536870912 cpu:               0.1 elap:               0.0
 (Enter /opt/software/gaussian/g16.c01/l401.exe)
 Initial guess from the checkpoint file:  "0003_q000_m01_k00_force_ub3lyp_def2svp.chk"
 B after Tr=     0.000000    0.000000    0.000000
         Rot=    1.000000    0.000000    0.000000    0.000000 Ang=   0.00 deg.
 Guess basis will be translated and rotated to current coordinates.
 JPrj=2 DoOrth=T DoCkMO=T.
 Initial guess <Sx>= 0.0000 <Sy>= 0.0000 <Sz>= 0.0000 <S**2>= 0.0000 S= 0.0000
 Leave Link  401 at Tue Jan  3 09:05:31 2023, MaxMem=   536870912 cpu:               0.2 elap:               0.1
 (Enter /opt/software/gaussian/g16.c01/l502.exe)
 Keep R1 and R2 ints in memory in canonical form, NReq=6678349.
 FoFCou: FMM=F IPFlag=           0 FMFlag=           0 FMFlg1=           0
         NFxFlg=           0 DoJE=F BraDBF=F KetDBF=F FulRan=T
         wScrn=  0.000000 ICntrl=       600 IOpCl=  0 I1Cent=           0 NGrid=           0
         NMat0=    1 NMatS0=   2211 NMatT0=    0 NMatD0=    1 NMtDS0=    0 NMtDT0=    0
 Symmetry not used in FoFCou.
 Two-electron integral symmetry not used.
 UHF open shell SCF:
 Using DIIS extrapolation, IDIIS=  1040.
 NGot=   536870912 LenX=   531969369 LenY=   531964167
 Requested convergence on RMS density matrix=1.00D-08 within 128 cycles.
 Requested convergence on MAX density matrix=1.00D-06.
 Requested convergence on             energy=1.00D-06.
 No special actions if energy rises.

 Cycle   1  Pass 1  IDiag  1:
 E= -476.551737827236    
 DIIS: error= 8.65D-09 at cycle   1 NSaved=   1.
 NSaved= 1 IEnMin= 1 EnMin= -476.551737827236     IErMin= 1 ErrMin= 8.65D-09
 ErrMax= 8.65D-09  0.00D+00 EMaxC= 1.00D-01 BMatC= 1.65D-14 BMatP= 1.65D-14
 IDIUse=1 WtCom= 1.00D+00 WtEn= 0.00D+00
 Coeff-Com:  0.100D+01
 Coeff:      0.100D+01
 Gap=     0.148 Goal=   None    Shift=    0.000
 Gap=     0.148 Goal=   None    Shift=    0.000
 RMSDP=3.71D-09 MaxDP=6.53D-08              OVMax= 1.69D-07

 SCF Done:  E(UB3LYP) =  -476.551737827     A.U. after    1 cycles
            NFock=  1  Conv=0.37D-08     -V/T= 2.0040
 <Sx>= 0.0000 <Sy>= 0.0000 <Sz>= 0.0000 <S**2>= 0.0000 S= 0.0000
 <L.S>=  0.00000000000    
 KE= 4.746604300344D+02 PE=-1.327477922495D+03 EE= 2.759577426012D+02
 Annihilation of the first spin contaminant:
 S**2 before annihilation     0.0000,   after    -0.0000
 Leave Link  502 at Tue Jan  3 09:05:32 2023, MaxMem=   536870912 cpu:               1.5 elap:               0.7
 (Enter /opt/software/gaussian/g16.c01/l508.exe)
 QCSCF skips out because SCF is already converged.
 Leave Link  508 at Tue Jan  3 09:05:32 2023, MaxMem=   536870912 cpu:               0.0 elap:               0.0
 (Enter /opt/software/gaussian/g16.c01/l601.exe)
 Copying SCF densities to generalized density rwf, IOpCl= 1 IROHF=0.

 **********************************************************************

            Population analysis using the SCF Density.

 **********************************************************************

 Alpha  occ. eigenvalues --  -88.90762 -10.19476 -10.19473  -7.99974  -5.96671
 Alpha  occ. eigenvalues --   -5.96499  -5.96217  -0.85020  -0.69025  -0.56475
 Alpha  occ. eigenvalues --   -0.46753  -0.45935  -0.40318  -0.36026  -0.33266
 Alpha  occ. eigenvalues --   -0.19602
 Alpha virt. eigenvalues --   -0.04851   0.07772   0.07773   0.09117   0.12859
 Alpha virt. eigenvalues --    0.15265   0.21015   0.30534   0.39238   0.40409
 Alpha virt. eigenvalues --    0.47392   0.47705   0.49130   0.53563   0.53620
 Alpha virt. eigenvalues --    0.61057   0.63536   0.64198   0.64811   0.66520
 Alpha virt. eigenvalues --    0.68187   0.73361   0.76502   0.79359   0.91053
 Alpha virt. eigenvalues --    0.99075   1.09551   1.17380   1.19762   1.19835
 Alpha virt. eigenvalues --    1.55342   1.55520   1.56608   1.57422   1.67592
 Alpha virt. eigenvalues --    1.68378   1.97710   1.99135   2.03176   2.03497
 Alpha virt. eigenvalues --    2.05196   2.09789   2.22832   2.23512   2.37466
 Alpha virt. eigenvalues --    2.43174   2.82312   2.87836   2.90009   2.90645
  Beta  occ. eigenvalues --  -88.90762 -10.19476 -10.19473  -7.99974  -5.96671
  Beta  occ. eigenvalues --   -5.96499  -5.96217  -0.85020  -0.69025  -0.56475
  Beta  occ. eigenvalues --   -0.46753  -0.45935  -0.40318  -0.36026  -0.33266
  Beta  occ. eigenvalues --   -0.19602
  Beta virt. eigenvalues --   -0.04851   0.07772   0.07773   0.09117   0.12859
  Beta virt. eigenvalues --    0.15265   0.21015   0.30534   0.39238   0.40409
  Beta virt. eigenvalues --    0.47392   0.47705   0.49130   0.53563   0.53620
  Beta virt. eigenvalues --    0.61057   0.63536   0.64198   0.64811   0.66520
  Beta virt. eigenvalues --    0.68187   0.73361   0.76502   0.79359   0.91053
  Beta virt. eigenvalues --    0.99075   1.09551   1.17380   1.19762   1.19835
  Beta virt. eigenvalues --    1.55342   1.55520   1.56608   1.57422   1.67592
  Beta virt. eigenvalues --    1.68378   1.97710   1.99135   2.03176   2.03497
  Beta virt. eigenvalues --    2.05196   2.09789   2.22832   2.23512   2.37466
  Beta virt. eigenvalues --    2.43174   2.82312   2.87836   2.90009   2.90645
          Condensed to atoms (all electrons):
               1          2          3          4          5          6
     1  C    5.083703   0.430685  -0.066246   0.403899   0.399918  -0.006388
     2  S    0.430685  15.021290   0.430696  -0.030955  -0.022914  -0.022913
     3  C   -0.066246   0.430696   5.083671   0.003784  -0.006387   0.399917
     4  H    0.403899  -0.030955   0.003784   0.578090  -0.024700   0.000106
     5  H    0.399918  -0.022914  -0.006387  -0.024700   0.582578   0.004606
     6  H   -0.006388  -0.022913   0.399917   0.000106   0.004606   0.582579
     7  H    0.003784  -0.030956   0.403900  -0.000241   0.000105  -0.024701
               7
     1  C    0.003784
     2  S   -0.030956
     3  C    0.403900
     4  H   -0.000241
     5  H    0.000105
     6  H   -0.024701
     7  H    0.578089
          Atomic-Atomic Spin Densities.
               1          2          3          4          5          6
     1  C    0.000000  -0.000000   0.000000   0.000000   0.000000  -0.000000
     2  S   -0.000000   0.000000  -0.000000   0.000000  -0.000000  -0.000000
     3  C    0.000000  -0.000000  -0.000000  -0.000000   0.000000   0.000000
     4  H    0.000000   0.000000  -0.000000  -0.000000   0.000000   0.000000
     5  H    0.000000  -0.000000   0.000000   0.000000  -0.000000   0.000000
     6  H   -0.000000  -0.000000   0.000000   0.000000   0.000000   0.000000
     7  H   -0.000000   0.000000   0.000000   0.000000   0.000000   0.000000
               7
     1  C   -0.000000
     2  S    0.000000
     3  C    0.000000
     4  H    0.000000
     5  H    0.000000
     6  H    0.000000
     7  H   -0.000000
 Mulliken charges and spin densities:
               1          2
     1  C   -0.249354  -0.000000
     2  S    0.225065   0.000000
     3  C   -0.249336  -0.000000
     4  H    0.070018  -0.000000
     5  H    0.066794  -0.000000
     6  H    0.066794   0.000000
     7  H    0.070019  -0.000000
 Sum of Mulliken charges =   0.00000   0.00000
 Mulliken charges and spin densities with hydrogens summed into heavy atoms:
               1          2
     1  C   -0.112542  -0.000000
     2  S    0.225065   0.000000
     3  C   -0.112523  -0.000000
 Electronic spatial extent (au):  <R**2>=            870.2855
 Charge=              0.0000 electrons
 Dipole moment (field-independent basis, Debye):
    X=             -0.0412    Y=              0.0211    Z=             -0.0551  Tot=              0.0720
 Quadrupole moment (field-independent basis, Debye-Ang):
   XX=            -24.8640   YY=            -27.8667   ZZ=            -25.2010
   XY=              0.2611   XZ=              0.0169   YZ=             -1.4248
 Traceless Quadrupole moment (field-independent basis, Debye-Ang):
   XX=              1.1132   YY=             -1.8895   ZZ=              0.7763
   XY=              0.2611   XZ=              0.0169   YZ=             -1.4248
 Octapole moment (field-independent basis, Debye-Ang**2):
  XXX=           -170.7463  YYY=            -21.1423  ZZZ=             27.0318  XYY=            -64.4531
  XXY=             -4.3844  XXZ=              8.1906  XZZ=            -61.1732  YZZ=             -4.4596
  YYZ=              9.8708  XYZ=             -2.1125
 Hexadecapole moment (field-independent basis, Debye-Ang**3):
 XXXX=           -938.8762 YYYY=            -63.9624 ZZZZ=           -119.6864 XXXY=            -48.5685
 XXXZ=             81.9184 YYYX=            -69.1598 YYYZ=             26.7499 ZZZX=             93.2133
 ZZZY=             18.4020 XXYY=           -189.4087 XXZZ=           -194.1301 YYZZ=            -29.5298
 XXYZ=              2.1859 YYXZ=             33.2016 ZZXY=            -14.9593
 N-N= 1.003080120317D+02 E-N=-1.327477922700D+03  KE= 4.746604300344D+02
 There are a total of      153736 grid points.
 ElSum from          density=       31.9999995455
 ElSum from atomic densities=       32.0000007239
 Hirshfeld populations at iteration   1 (CA, CB, DipXYZ):
               1          2          3          4          5
     1  C    3.082201   3.082201  -0.027647   0.004143  -0.014083
     2  S    7.907233   7.907233  -0.023642   0.011930  -0.031456
     3  C    3.082196   3.082196  -0.004402   0.012027  -0.028569
     4  H    0.482342   0.482342  -0.073586  -0.067554   0.143467
     5  H    0.481846   0.481846  -0.103860   0.047094  -0.126066
     6  H    0.481844   0.481844  -0.091434   0.051335  -0.133794
     7  H    0.482339   0.482339   0.173672   0.017106  -0.010306
       Tot  16.000000  16.000000  -0.150899   0.076081  -0.200805

 Dip from Atomic Chgs              0.134688  -0.067778   0.179105
         Total Dipole             -0.016211   0.008303  -0.021700

 Hirshfeld charges, spin densities, dipoles, and CM5 charges using IRadAn=      5:
              Q-H        S-H        Dx         Dy         Dz        Q-CM5   
     1  C   -0.164403  -0.000000  -0.027647   0.004143  -0.014083  -0.243254
     2  S    0.185535   0.000000  -0.023642   0.011930  -0.031456   0.128929
     3  C   -0.164391   0.000000  -0.004402   0.012027  -0.028569  -0.243239
     4  H    0.035316  -0.000000  -0.073586  -0.067554   0.143467   0.089437
     5  H    0.036308  -0.000000  -0.103860   0.047094  -0.126066   0.089339
     6  H    0.036313   0.000000  -0.091434   0.051335  -0.133794   0.089344
     7  H    0.035322  -0.000000   0.173672   0.017106  -0.010306   0.089444
       Tot   0.000000  -0.000000  -0.150899   0.076081  -0.200805   0.000000
 Hirshfeld charges and spin densities with hydrogens summed into heavy atoms:
              Q-H        S-H       Q-CM5   
     1  C   -0.092778  -0.000000  -0.064477
     2  S    0.185535   0.000000   0.128929
     3  C   -0.092756   0.000000  -0.064451
 
 EQQ=-0.426357485866E-30 EQD= 0.594306463156E-16 EDD= 0.733452588108E-03
 EQQ+QD+DD= 0.733452588108E-03
 
 GSVD:  LWork=       -1008 too small for GESVD, short by        4340 words or        4340 for optimal perf.
          MBS Condensed to atoms (all electrons):
               1          2          3          4          5          6
     1  C    5.103163   0.460588  -0.018989   0.385693   0.379821  -0.002075
     2  S    0.460588  15.001212   0.460617  -0.023740  -0.017122  -0.017122
     3  C   -0.018989   0.460617   5.103096   0.000748  -0.002074   0.379819
     4  H    0.385693  -0.023740   0.000748   0.537272  -0.017971   0.000000
     5  H    0.379821  -0.017122  -0.002074  -0.017971   0.544793   0.001298
     6  H   -0.002075  -0.017122   0.379819   0.000000   0.001298   0.544797
     7  H    0.000748  -0.023741   0.385693  -0.000021   0.000000  -0.017972
               7
     1  C    0.000748
     2  S   -0.023741
     3  C    0.385693
     4  H   -0.000021
     5  H    0.000000
     6  H   -0.017972
     7  H    0.537272
          MBS Atomic-Atomic Spin Densities.
               1          2          3          4          5          6
     1  C    0.000000  -0.000000   0.000000   0.000000  -0.000000   0.000000
     2  S   -0.000000  -0.000000  -0.000000  -0.000000  -0.000000  -0.000000
     3  C    0.000000  -0.000000   0.000000  -0.000000  -0.000000  -0.000000
     4  H    0.000000  -0.000000  -0.000000  -0.000000   0.000000  -0.000000
     5  H   -0.000000  -0.000000  -0.000000   0.000000  -0.000000   0.000000
     6  H    0.000000  -0.000000  -0.000000  -0.000000   0.000000   0.000000
     7  H    0.000000  -0.000000   0.000000   0.000000  -0.000000   0.000000
               7
     1  C    0.000000
     2  S   -0.000000
     3  C    0.000000
     4  H    0.000000
     5  H   -0.000000
     6  H    0.000000
     7  H   -0.000000
 MBS Mulliken charges and spin densities:
               1          2
     1  C   -0.308949  -0.000000
     2  S    0.159308  -0.000000
     3  C   -0.308911   0.000000
     4  H    0.118019  -0.000000
     5  H    0.111255  -0.000000
     6  H    0.111255   0.000000
     7  H    0.118022  -0.000000
 Sum of MBS Mulliken charges =  -0.00000  -0.00000
 MBS Mulliken charges and spin densities with hydrogens summed into heavy atoms:
               1          2
     1  C   -0.079675  -0.000000
     2  S    0.159308  -0.000000
     3  C   -0.079634   0.000000
 MBS Atomic Valencies and Mayer Atomic Bond Orders:
               1          2          3          4          5          6
     1  C    3.865423   1.582151   0.369568   0.950002   0.950921   0.003006
     2  S    1.582151   3.263108   1.582202   0.020864   0.028511   0.028514
     3  C    0.369568   1.582202   3.865459   0.009770   0.003004   0.950918
     4  H    0.950002   0.020864   0.009770   0.986072   0.003175   0.000001
     5  H    0.950921   0.028511   0.003004   0.003175   0.987622   0.002010
     6  H    0.003006   0.028514   0.950918   0.000001   0.002010   0.987622
     7  H    0.009775   0.020865   0.949997   0.002259   0.000001   0.003174
               7
     1  C    0.009775
     2  S    0.020865
     3  C    0.949997
     4  H    0.002259
     5  H    0.000001
     6  H    0.003174
     7  H    0.986071
 MBS Mayer-style numbers of lone pairs (16.000 valence pairs, 8.529 lone pairs):
               1
     1  C    1.221763
     2  S    6.288792
     3  C    1.221726
     4  H   -0.052045
     5  H   -0.049439
     6  H   -0.049439
     7  H   -0.052046
 BEBO parameters in MulMin, MxElBE=  0:
 ELP=  0.00000000000     EBEBO=-0.246747234801E-03 Sum=-0.246747234801E-03
 ELP=  0.00000000000     EBEBO=-0.246747234801E-03 EJK=-0.246747234801E-03  0.00000000000     Sum=-0.246747234801E-03
 0 EA=-0.123373617400E-03 EB=-0.123373617400E-03 ETot=-0.246747234801E-03
 1 EA=-0.123373617400E-03 EB=-0.123373617400E-03 ETot=-0.246747234801E-03
 2 EA=-0.123373617400E-03 EB=-0.123373617400E-03 ETot=-0.246747234801E-03
 3 EJ=-0.246747234801E-03 EK=  0.00000000000     ETot=-0.246747234801E-03
 4 EJ=-0.246747234801E-03 EK=  0.00000000000     ETot=-0.246747234801E-03
 5 EA=-0.123373617400E-03 EB=-0.123373617400E-03 ETot=-0.246747234801E-03
                          Isotropic Fermi Contact Couplings
        Atom                 a.u.       MegaHertz       Gauss      10(-4) cm-1
     1  C(13)             -0.00000      -0.00000      -0.00000      -0.00000
     2  S(33)              0.00000       0.00000       0.00000       0.00000
     3  C(13)             -0.00000      -0.00000      -0.00000      -0.00000
     4  H(1)              -0.00000      -0.00000      -0.00000      -0.00000
     5  H(1)               0.00000       0.00000       0.00000       0.00000
     6  H(1)               0.00000       0.00000       0.00000       0.00000
     7  H(1)              -0.00000      -0.00000      -0.00000      -0.00000
 --------------------------------------------------------
       Center         ----  Spin Dipole Couplings  ----
                      3XX-RR        3YY-RR        3ZZ-RR
 --------------------------------------------------------
     1   Atom        0.000000      0.000000      0.000000
     2   Atom        0.000000      0.000000      0.000000
     3   Atom        0.000000      0.000000      0.000000
     4   Atom        0.000000      0.000000      0.000000
     5   Atom        0.000000      0.000000      0.000000
     6   Atom        0.000000      0.000000      0.000000
     7   Atom        0.000000      0.000000      0.000000
 --------------------------------------------------------
                        XY            XZ            YZ
 --------------------------------------------------------
     1   Atom        0.000000      0.000000      0.000000
     2   Atom        0.000000      0.000000      0.000000
     3   Atom        0.000000      0.000000      0.000000
     4   Atom        0.000000      0.000000      0.000000
     5   Atom        0.000000      0.000000      0.000000
     6   Atom        0.000000      0.000000      0.000000
     7   Atom        0.000000      0.000000      0.000000
 --------------------------------------------------------


 ---------------------------------------------------------------------------------
              Anisotropic Spin Dipole Couplings in Principal Axis System
 ---------------------------------------------------------------------------------

       Atom             a.u.   MegaHertz   Gauss  10(-4) cm-1        Axes

              Baa     0.0000     0.000     0.000     0.000  1.0000  0.0000  0.0000
     1 C(13)  Bbb     0.0000     0.000     0.000     0.000 -0.0000  1.0000  0.0000
              Bcc     0.0000     0.000     0.000     0.000  0.0000  0.0000  1.0000
 
              Baa     0.0000     0.000     0.000     0.000  1.0000  0.0000  0.0000
     2 S(33)  Bbb     0.0000     0.000     0.000     0.000 -0.0000  1.0000  0.0000
              Bcc     0.0000     0.000     0.000     0.000  0.0000  0.0000  1.0000
 
              Baa     0.0000     0.000     0.000     0.000  1.0000  0.0000  0.0000
     3 C(13)  Bbb     0.0000     0.000     0.000     0.000 -0.0000  1.0000  0.0000
              Bcc     0.0000     0.000     0.000     0.000  0.0000  0.0000  1.0000
 
              Baa     0.0000     0.000     0.000     0.000  1.0000  0.0000  0.0000
     4 H(1)   Bbb     0.0000     0.000     0.000     0.000 -0.0000  1.0000  0.0000
              Bcc     0.0000     0.000     0.000     0.000  0.0000  0.0000  1.0000
 
              Baa     0.0000     0.000     0.000     0.000  1.0000  0.0000  0.0000
     5 H(1)   Bbb     0.0000     0.000     0.000     0.000 -0.0000  1.0000  0.0000
[...]
    56    H    5  pz     Ryd( 2p)     0.00024       2.08605
 
    57    H    6  S      Val( 1S)     0.38922       0.07071
    58    H    6  S      Ryd( 2S)     0.00066       0.31425
    59    H    6  px     Ryd( 2p)     0.00014       1.95524
    60    H    6  py     Ryd( 2p)     0.00014       1.69092
    61    H    6  pz     Ryd( 2p)     0.00027       2.11742
 
    62    H    7  S      Val( 1S)     0.38313       0.07259
    63    H    7  S      Ryd( 2S)     0.00027       0.30596
    64    H    7  px     Ryd( 2p)     0.00039       2.37221
    65    H    7  py     Ryd( 2p)     0.00016       1.63908
    66    H    7  pz     Ryd( 2p)     0.00007       1.74731


 Summary of Natural Population Analysis:                  
                                                          
                                       Natural Population 
                Natural  -----------------------------------------------
    Atom  No    Charge         Core      Valence    Rydberg      Total
 -----------------------------------------------------------------------
      C    1   -0.39490      0.99969     2.38492    0.01029     3.39490
      S    2    0.33868      4.99913     2.62363    0.03856     7.66132
      C    3   -0.39490      0.99969     2.38492    0.01029     3.39490
      H    4    0.11598      0.00000     0.38313    0.00089     0.38402
      H    5    0.10958      0.00000     0.38922    0.00121     0.39042
      H    6    0.10958      0.00000     0.38922    0.00121     0.39042
      H    7    0.11599      0.00000     0.38313    0.00089     0.38401
 =======================================================================
   * Total *    0.00000      6.99850     8.93817    0.06333    16.00000

                                 Natural Population      
 --------------------------------------------------------
   Core                       6.99850 ( 99.9786% of   7)
   Valence                    8.93817 ( 99.3129% of   9)
   Natural Minimal Basis     15.93667 ( 99.6042% of  16)
   Natural Rydberg Basis      0.06333 (  0.3958% of  16)
 --------------------------------------------------------

    Atom  No          Natural Electron Configuration
 ----------------------------------------------------------------------------
      C    1      [core]2S( 0.57)2p( 1.82)3p( 0.01)
      S    2      [core]3S( 0.75)3p( 1.87)4S( 0.01)3d( 0.03)4p( 0.01)
      C    3      [core]2S( 0.57)2p( 1.82)3p( 0.01)
      H    4            1S( 0.38)
      H    5            1S( 0.39)
      H    6            1S( 0.39)
      H    7            1S( 0.38)


 NBO analysis skipped by request.


 ***************************************************
 *******         Beta  spin orbitals         *******
 ***************************************************


 NATURAL POPULATIONS:  Natural atomic orbital occupancies 
                                                          
   NAO  Atom  No  lang   Type(AO)    Occupancy      Energy
 ----------------------------------------------------------
     1    C    1  S      Cor( 1S)     0.99969     -10.10063
     2    C    1  S      Val( 2S)     0.56909      -0.30387
     3    C    1  S      Ryd( 3S)     0.00079       0.51786
     4    C    1  px     Val( 2p)     0.52370      -0.13123
     5    C    1  px     Ryd( 3p)     0.00327       0.50324
     6    C    1  py     Val( 2p)     0.65941      -0.14853
     7    C    1  py     Ryd( 3p)     0.00335       0.54438
     8    C    1  pz     Val( 2p)     0.63271      -0.09026
     9    C    1  pz     Ryd( 3p)     0.00148       0.68810
    10    C    1  dxy    Ryd( 3d)     0.00040       1.96986
    11    C    1  dxz    Ryd( 3d)     0.00030       2.31977
    12    C    1  dyz    Ryd( 3d)     0.00013       2.09363
    13    C    1  dx2y2  Ryd( 3d)     0.00032       2.15515
    14    C    1  dz2    Ryd( 3d)     0.00024       2.18129
 
    15    S    2  S      Cor( 1S)     1.00000     -88.29254
    16    S    2  S      Cor( 2S)     0.99945      -8.32453
    17    S    2  S      Val( 3S)     0.75116      -0.68680
    18    S    2  S      Ryd( 4S)     0.00556       0.53773
    19    S    2  px     Cor( 2p)     0.99987      -5.95529
    20    S    2  px     Val( 3p)     0.56908      -0.17544
    21    S    2  px     Ryd( 4p)     0.00258       0.82785
    22    S    2  py     Cor( 2p)     0.99992      -5.95794
    23    S    2  py     Val( 3p)     0.63840      -0.23666
    24    S    2  py     Ryd( 4p)     0.00057       0.74166
    25    S    2  pz     Cor( 2p)     0.99990      -5.95536
    26    S    2  pz     Val( 3p)     0.66499      -0.21435
    27    S    2  pz     Ryd( 4p)     0.00186       0.80032
    28    S    2  dxy    Ryd( 3d)     0.00812       0.70484
    29    S    2  dxz    Ryd( 3d)     0.00418       0.84120
    30    S    2  dyz    Ryd( 3d)     0.00442       0.76582
    31    S    2  dx2y2  Ryd( 3d)     0.00558       0.87617
    32    S    2  dz2    Ryd( 3d)     0.00569       0.83824
 
    33    C    3  S      Cor( 1S)     0.99969     -10.10062
    34    C    3  S      Val( 2S)     0.56908      -0.30387
    35    C    3  S      Ryd( 3S)     0.00079       0.51785
    36    C    3  px     Val( 2p)     0.60872      -0.08889
    37    C    3  px     Ryd( 3p)     0.00142       0.68378
    38    C    3  py     Val( 2p)     0.64473      -0.15585
    39    C    3  py     Ryd( 3p)     0.00367       0.51321
    40    C    3  pz     Val( 2p)     0.56239      -0.12531
    41    C    3  pz     Ryd( 3p)     0.00302       0.53870
    42    C    3  dxy    Ryd( 3d)     0.00010       1.96020
    43    C    3  dxz    Ryd( 3d)     0.00035       2.28132
    44    C    3  dyz    Ryd( 3d)     0.00032       2.06374
    45    C    3  dx2y2  Ryd( 3d)     0.00027       2.23246
    46    C    3  dz2    Ryd( 3d)     0.00036       2.18204
 
    47    H    4  S      Val( 1S)     0.38313       0.07259
    48    H    4  S      Ryd( 2S)     0.00027       0.30596
    49    H    4  px     Ryd( 2p)     0.00012       1.86660
    50    H    4  py     Ryd( 2p)     0.00020       1.72632
    51    H    4  pz     Ryd( 2p)     0.00030       2.16566
 
    52    H    5  S      Val( 1S)     0.38922       0.07071
    53    H    5  S      Ryd( 2S)     0.00066       0.31424
    54    H    5  px     Ryd( 2p)     0.00017       1.99311
    55    H    5  py     Ryd( 2p)     0.00013       1.68442
    56    H    5  pz     Ryd( 2p)     0.00024       2.08605
 
    57    H    6  S      Val( 1S)     0.38922       0.07071
    58    H    6  S      Ryd( 2S)     0.00066       0.31425
    59    H    6  px     Ryd( 2p)     0.00014       1.95524
    60    H    6  py     Ryd( 2p)     0.00014       1.69092
    61    H    6  pz     Ryd( 2p)     0.00027       2.11742
 
    62    H    7  S      Val( 1S)     0.38313       0.07259
    63    H    7  S      Ryd( 2S)     0.00027       0.30596
    64    H    7  px     Ryd( 2p)     0.00039       2.37221
    65    H    7  py     Ryd( 2p)     0.00016       1.63908
    66    H    7  pz     Ryd( 2p)     0.00007       1.74731


 Summary of Natural Population Analysis:                  
                                                          
                                       Natural Population 
                Natural  -----------------------------------------------
    Atom  No    Charge         Core      Valence    Rydberg      Total
 -----------------------------------------------------------------------
      C    1   -0.39490      0.99969     2.38492    0.01029     3.39490
      S    2    0.33868      4.99913     2.62363    0.03856     7.66132
      C    3   -0.39490      0.99969     2.38492    0.01029     3.39490
      H    4    0.11598      0.00000     0.38313    0.00089     0.38402
      H    5    0.10958      0.00000     0.38922    0.00121     0.39042
      H    6    0.10958      0.00000     0.38922    0.00121     0.39042
      H    7    0.11599      0.00000     0.38313    0.00089     0.38401
 =======================================================================
   * Total *    0.00000      6.99850     8.93817    0.06333    16.00000

                                 Natural Population      
 --------------------------------------------------------
   Core                       6.99850 ( 99.9786% of   7)
   Valence                    8.93817 ( 99.3129% of   9)
   Natural Minimal Basis     15.93667 ( 99.6042% of  16)
   Natural Rydberg Basis      0.06333 (  0.3958% of  16)
 --------------------------------------------------------

    Atom  No          Natural Electron Configuration
 ----------------------------------------------------------------------------
      C    1      [core]2S( 0.57)2p( 1.82)3p( 0.01)
      S    2      [core]3S( 0.75)3p( 1.87)4S( 0.01)3d( 0.03)4p( 0.01)
      C    3      [core]2S( 0.57)2p( 1.82)3p( 0.01)
      H    4            1S( 0.38)
      H    5            1S( 0.39)
      H    6            1S( 0.39)
      H    7            1S( 0.38)


 NBO analysis skipped by request.
 Leave Link  607 at Tue Jan  3 09:05:34 2023, MaxMem=   536870912 cpu:               3.6 elap:               1.8
 (Enter /opt/software/gaussian/g16.c01/l701.exe)
 ... and contract with generalized density number  0.
 Compute integral first derivatives.
 Leave Link  701 at Tue Jan  3 09:05:35 2023, MaxMem=   536870912 cpu:               0.2 elap:               0.1
 (Enter /opt/software/gaussian/g16.c01/l702.exe)
 L702 exits ... SP integral derivatives will be done elsewhere.
 Leave Link  702 at Tue Jan  3 09:05:35 2023, MaxMem=   536870912 cpu:               0.1 elap:               0.0
 (Enter /opt/software/gaussian/g16.c01/l703.exe)
 Integral derivatives from FoFJK, PRISM(SPDF).
 Compute integral first derivatives, UseDBF=F ICtDFT=           0.
 Calling FoFJK, ICntrl=      2127 FMM=F ISym2X=0 I1Cent= 0 IOpClX= 1 NMat=1 NMatS=1 NMatT=0.
 FoFJK:  IHMeth= 1 ICntrl=    2127 DoSepK=F KAlg= 0 I1Cent=           0 FoldK=F
 IRaf=         0 NMat=       1 IRICut=       1 DoRegI=T DoRafI=F ISym2E= 0 IDoP0=0 IntGTp=1.
 FoFCou: FMM=F IPFlag=           0 FMFlag=      100000 FMFlg1=         800
         NFxFlg=           0 DoJE=F BraDBF=F KetDBF=F FulRan=T
         wScrn=  0.000000 ICntrl=      2127 IOpCl=  1 I1Cent=           0 NGrid=           0
         NMat0=    1 NMatS0=      1 NMatT0=    0 NMatD0=    1 NMtDS0=    0 NMtDT0=    0
 Symmetry not used in FoFCou.
 Leave Link  703 at Tue Jan  3 09:05:36 2023, MaxMem=   536870912 cpu:               2.8 elap:               1.4
 (Enter /opt/software/gaussian/g16.c01/l716.exe)
 Dipole        =-1.62121479D-02 8.30704020D-03-2.16960757D-02
 -------------------------------------------------------------------
 Center     Atomic                   Forces (Hartrees/Bohr)
 Number     Number              X              Y              Z
 -------------------------------------------------------------------
      1        6          -0.005261884   -0.000742901    0.000848655
      2       16           0.003812631   -0.001964424    0.005148924
      3        6           0.002795739    0.002028398   -0.004205581
      4        1          -0.001100572   -0.000577341    0.001150078
      5        1          -0.001441399    0.000274520   -0.000887423
      6        1          -0.000383971    0.000639648   -0.001543338
      7        1           0.001579455    0.000342101   -0.000511314
 -------------------------------------------------------------------
 Cartesian Forces:  Max     0.005261884 RMS     0.002341173
 Z-matrix is all fixed cartesians, so copy forces.
 Force constants in Cartesian coordinates: 
                1             2             3             4             5 
      1  0.799457D+00
      2  0.386953D-01  0.202300D+00
      3  0.262318D-01 -0.197489D+00  0.573805D+00
      4 -0.458605D+00 -0.232735D-01 -0.165583D-01  0.577555D+00
      5 -0.320482D-01 -0.525335D-01  0.183029D-01  0.867656D-01  0.122175D+00
      6  0.365769D-02  0.197847D-01 -0.872720D-01 -0.110154D+00 -0.165608D+00
      7  0.122699D-02 -0.100692D-01  0.221250D-01 -0.139616D+00 -0.489763D-01
      8 -0.597775D-03  0.748286D-02  0.517705D-03 -0.577409D-01 -0.107626D+00
      9  0.278568D-03 -0.108316D-02  0.102956D-01  0.116790D+00  0.142526D+00
     10 -0.144909D+00 -0.441803D-01  0.836168D-01  0.115252D-02 -0.932375D-02
     11 -0.404522D-01 -0.846163D-01  0.105218D+00 -0.241587D-03  0.264194D-02
     12  0.750267D-01  0.104603D+00 -0.264763D+00  0.410365D-03 -0.299905D-02
     13 -0.197168D+00  0.388020D-01 -0.115426D+00 -0.916549D-03  0.691836D-02
     14  0.343779D-01 -0.722913D-01  0.735979D-01 -0.146773D-02  0.180903D-01
     15 -0.105206D+00  0.743316D-01 -0.232001D+00  0.158269D-03  0.144866D-02
     16 -0.246017D-04  0.336366D-03  0.145813D-03  0.192862D-01 -0.309494D-02
     17  0.337132D-03 -0.460942D-02 -0.199817D-02  0.528610D-02  0.146053D-01
     18  0.146171D-03 -0.199852D-02 -0.866351D-03 -0.120134D-01  0.780803D-02
     19  0.227250D-04 -0.310706D-03 -0.134690D-03  0.114404D-02 -0.240739D-03
     20 -0.312161D-03  0.426801D-02  0.185017D-02 -0.932793D-02  0.264671D-02
     21 -0.135369D-03  0.185083D-02  0.802328D-03  0.213670D-01 -0.147893D-02
                6             7             8             9            10 
      6  0.407473D+00
      7  0.965700D-01  0.667382D+00
      8  0.141042D+00  0.492959D-01  0.225135D+00
      9 -0.351317D+00 -0.206782D-01 -0.248346D+00  0.683203D+00
     10  0.213707D-01  0.228255D-04 -0.312081D-03 -0.135286D-03  0.115530D+00
     11 -0.146606D-02 -0.312069D-03  0.426675D-02  0.184962D-02  0.445604D-01
     12  0.901525D-02 -0.135235D-03  0.184900D-02  0.801534D-03 -0.864441D-01
     13 -0.191712D-01 -0.246447D-04  0.336954D-03  0.146068D-03  0.282041D-01
     14  0.324183D-04  0.336979D-03 -0.460733D-02 -0.199726D-02  0.925576D-02
     15  0.148968D-01  0.146176D-03 -0.199858D-02 -0.866379D-03 -0.184082D-01
     16  0.731953D-02 -0.179623D+00  0.329496D-01 -0.989913D-01  0.000000D+00
     17  0.921888D-02  0.373763D-01 -0.753070D-01  0.810589D-01  0.000000D+00
     18 -0.181486D-02 -0.109211D+00  0.803191D-01 -0.246533D+00  0.000000D+00
     19  0.407512D-03 -0.349368D+00 -0.239317D-01  0.258983D-02  0.000000D+00
     20 -0.300348D-02 -0.276515D-01 -0.493443D-01  0.259912D-01  0.000000D+00
     21  0.901933D-02  0.111835D-01  0.266169D-01 -0.955832D-01  0.000000D+00
               11            12            13            14            15 
     11  0.698063D-01
     12 -0.111340D+00  0.260624D+00
     13 -0.355446D-02  0.111423D-01  0.169905D+00
     14  0.790132D-02  0.788712D-02 -0.425029D-01  0.509070D-01
     15  0.573850D-02 -0.567740D-02  0.123309D+00 -0.795202D-01  0.223648D+00
     16  0.000000D+00  0.000000D+00  0.000000D+00  0.000000D+00  0.000000D+00
     17  0.000000D+00  0.000000D+00  0.000000D+00  0.000000D+00  0.000000D+00
     18  0.000000D+00  0.000000D+00  0.000000D+00  0.000000D+00  0.000000D+00
     19  0.000000D+00  0.000000D+00  0.000000D+00  0.000000D+00  0.000000D+00
     20  0.000000D+00  0.000000D+00  0.000000D+00  0.000000D+00  0.000000D+00
     21  0.000000D+00  0.000000D+00  0.000000D+00  0.000000D+00  0.000000D+00
               16            17            18            19            20 
     16  0.161831D+00
     17 -0.418445D-01  0.522901D-01
     18  0.120449D+00 -0.826089D-01  0.230340D+00
     19 -0.147004D-02 -0.115499D-02  0.629518D-03  0.349671D+00
     20  0.116534D-01  0.130211D-01 -0.351969D-02  0.256381D-01  0.294086D-01
     21 -0.289230D-01 -0.567069D-02  0.188748D-01 -0.349217D-02 -0.213182D-01
               21 
     21  0.668867D-01
 Leave Link  716 at Tue Jan  3 09:05:37 2023, MaxMem=   536870912 cpu:               0.1 elap:               0.0
 (Enter /opt/software/gaussian/g16.c01/l103.exe)

 GradGradGradGradGradGradGradGradGradGradGradGradGradGradGradGradGradGrad
 Berny optimization.
 Search for a local minimum.
 Step number   1 out of a maximum of    2
 All quantities printed in internal units (Hartrees-Bohrs-Radians)
 Second derivative matrix not updated -- first step.
 ITU=  0
     Eigenvalues ---    0.00860   0.01482   0.01804   0.07108   0.07556
     Eigenvalues ---    0.11270   0.14823   0.15345   0.17618   0.32617
     Eigenvalues ---    0.36576   0.82416   0.92900   1.11635   1.31988
 Angle between quadratic step and forces=  66.66 degrees.
 Linear search not attempted -- first point.
 B after Tr=    -0.001351    0.000696   -0.001771
         Rot=    1.000000   -0.000021   -0.000008    0.000015 Ang=  -0.00 deg.
 Variable       Old X    -DE/DX   Delta X   Delta X   Delta X     New X
                                 (Linear)    (Quad)   (Total)
    X1        1.85917  -0.00526   0.00000  -0.02011  -0.02146   1.83772
    Y1       -0.06153  -0.00074   0.00000  -0.00762  -0.00699  -0.06852
    Z1        0.09233   0.00085   0.00000   0.01435   0.01255   0.10488
    X2        4.92676   0.00381   0.00000  -0.00405  -0.00540   4.92136
    Y2        0.18746  -0.00196   0.00000   0.00189   0.00243   0.18989
    Z2        0.03552   0.00515   0.00000  -0.00540  -0.00724   0.02829
    X3        6.09876   0.00280   0.00000   0.02198   0.02063   6.11938
    Y3        1.39121   0.00203   0.00000   0.00677   0.00739   1.39860
    Z3       -2.54358  -0.00421   0.00000  -0.01189  -0.01369  -2.55727
    X4        1.07794  -0.00110   0.00000  -0.01241  -0.01375   1.06419
    Y4       -0.86461  -0.00058   0.00000  -0.01020  -0.00962  -0.87422
    Z4        1.81365   0.00115   0.00000   0.02210   0.02027   1.83393
    X5        0.64970  -0.00144   0.00000  -0.03926  -0.04062   0.60908
    Y5        0.52577   0.00027   0.00000  -0.01227  -0.01153   0.51424
    Z5       -1.46547  -0.00089   0.00000   0.02143   0.01967  -1.44580
    X6        4.94205  -0.00038   0.00000   0.03628   0.03492   4.97697
    Y6        1.99647   0.00064   0.00000   0.01368   0.01440   2.01086
    Z6       -4.13423  -0.00154   0.00000  -0.02557  -0.02734  -4.16157
    X7        8.14558   0.00158   0.00000   0.02702   0.02568   8.17126
    Y7        1.55646   0.00034   0.00000   0.00335   0.00391   1.56037
    Z7       -2.58103  -0.00051   0.00000  -0.00239  -0.00423  -2.58526
         Item               Value     Threshold  Converged?
 Maximum Force            0.005262     0.000450     NO 
 RMS     Force            0.002341     0.000300     NO 
 Maximum Displacement     0.040618     0.001800     NO 
 RMS     Displacement     0.018453     0.001200     NO 
 Predicted change in Energy=-1.801688D-04
 GradGradGradGradGradGradGradGradGradGradGradGradGradGradGradGradGradGrad

 Leave Link  103 at Tue Jan  3 09:05:37 2023, MaxMem=   536870912 cpu:               0.0 elap:               0.0
 (Enter /opt/software/gaussian/g16.c01/l9999.exe)
 Unable to Open any file for archive entry.
 1\1\GINC-GRA738\Force\UB3LYP\Gen\C2H4S1\BHAVUK\03-Jan-2023\0\\#p ub3ly
 p/chkbasis force guess=read geom=check scf=(maxcycle=900,verytightline
 q,xqc) integral=grid=ultrafine symmetry=None density=current pop=(cm5,
 hlygat,mbs,npa) output=wfx\\0003_q000_m01_k00_opt_uwb97xd_def2svpd/000
 3_q000_m01_k00_force_ub3lyp_def2svp stable-force\\0,1\C,0.9838325225,-
 0.0325586033,0.0488580178\S,2.6071301422,0.0991997065,0.0187984451\C,3
 .2273228911,0.736197977,-1.3460048506\H,0.570421034,-0.4575297175,0.95
 97448627\H,0.3438072589,0.2782232167,-0.7754915598\H,2.615218944,1.056
 4841772,-2.1877415072\H,4.3104572053,0.8236432464,-1.365823405\\Versio
 n=ES64L-G16RevC.01\HF=-476.5517378\S2=0.\S2-1=0.\S2A=0.\RMSD=3.710e-09
 \RMSF=2.341e-03\Dipole=-0.0162121,0.008307,-0.0216961\Quadrupole=0.827
 6455,-1.4047766,0.5771311,0.1941004,0.0125295,-1.0593136\PG=Unknown\\@
 The archive entry for this job was punched.

 Writing a WFNX file to "0003_q000_m01_k00_force_ub3lyp_def2svp.wfx"


 The mind is not a vessel to be filled but a fire to be kindled.
                                  -- Plutarch
 Job cpu time:       0 days  0 hours  0 minutes 11.6 seconds.
 Elapsed time:       0 days  0 hours  0 minutes  5.5 seconds.
 File lengths (MBytes):  RWF=      6 Int=      0 D2E=      0 Chk=      2 Scr=      1
 Normal termination of Gaussian 16 at Tue Jan  3 09:05:37 2023.
