 Entering Gaussian System, Link 0=g16
 Input=0003_q000_m01_k00_force_uhf_def2qzvpd.com
 Output=0003_q000_m01_k00_force_uhf_def2qzvpd.log
 Initial command:
 /opt/software/gaussian/g16.c01/l1.exe "/localscratch/bhavuk.2151380.0/Gau-1232.inp" -scrdir="/localscratch/bhavuk.2151380.0/"
 Entering Link 1 = /opt/software/gaussian/g16.c01/l1.exe PID=      1233.
  
 Copyright (c) 1988-2019, Gaussian, Inc.  All Rights Reserved.
  
 This is part of the Gaussian(R) 16 program.  It is based on
 the Gaussian(R) 09 system (copyright 2009, Gaussian, Inc.),
 the Gaussian(R) 03 system (copyright 2003, Gaussian, Inc.),
 the Gaussian(R) 98 system (copyright 1998, Gaussian, Inc.),
 the Gaussian(R) 94 system (copyright 1995, Gaussian, Inc.),
 the Gaussian 92(TM) system (copyright 1992, Gaussian, Inc.),
 the Gaussian 90(TM) system (copyright 1990, Gaussian, Inc.),
 the Gaussian 88(TM) system (copyright 1988, Gaussian, Inc.),
 the Gaussian 86(TM) system (copyright 1986, Carnegie Mellon
 University), and the Gaussian 82(TM) system (copyright 1983,
 Carnegie Mellon University). Gaussian is a federally registered
 trademark of Gaussian, Inc.
  
 This software contains proprietary and confidential information,
 including trade secrets, belonging to Gaussian, Inc.
  
 This software is provided under written license and may be
 used, copied, transmitted, or stored only in accord with that
 written license.
  
 The following legend is applicable only to US Government
 contracts under FAR:
  
                    RESTRICTED RIGHTS LEGEND
  
 Use, reproduction and disclosure by the US Government is
 subject to restrictions as set forth in subparagraphs (a)
 and (c) of the Commercial Computer Software - Restricted
 Rights clause in FAR 52.227-19.
  
 Gaussian, Inc.
 340 Quinnipiac St., Bldg. 40, Wallingford CT 06492
  
  
 ---------------------------------------------------------------
 Warning -- This program may not be used in any manner that
 competes with the business of Gaussian, Inc. or will provide
 assistance to any competitor of Gaussian, Inc.  The licensee
 of this program is prohibited from giving any competitor of
 Gaussian, Inc. access to this program.  By using this program,
 the user acknowledges that Gaussian, Inc. is engaged in the
 business of creating and licensing software in the field of
 computational chemistry and represents and warrants to the
 licensee that it is not a competitor of Gaussian, Inc. and that
 it will not use this program in any manner prohibited above.
 ---------------------------------------------------------------
  

 Cite this work as:
 Gaussian 16, Revision C.01,
 M. J. Frisch, G. W. Trucks, H. B. Schlegel, G. E. Scuseria, 
 M. A. Robb, J. R. Cheeseman, G. Scalmani, V. Barone, 
 G. A. Petersson, H. Nakatsuji, X. Li, M. Caricato, A. V. Marenich, 
 J. Bloino, B. G. Janesko, R. Gomperts, B. Mennucci, H. P. Hratchian, 
 J. V. Ortiz, A. F. Izmaylov, J. L. Sonnenberg, D. Williams-Young, 
 F. Ding, F. Lipparini, F. Egidi, J. Goings, B. Peng, A. Petrone, 
 T. Henderson, D. Ranasinghe, V. G. Zakrzewski, J. Gao, N. Rega, 
 G. Zheng, W. Liang, M. Hada, M. Ehara, K. Toyota, R. Fukuda, 
 J. Hasegawa, M. Ishida, T. Nakajima, Y. Honda, O. Kitao, H. Nakai, 
 T. Vreven, K. Throssell, J. A. Montgomery, Jr., J. E. Peralta, 
 F. Ogliaro, M. J. Bearpark, J. J. Heyd, E. N. Brothers, K. N. Kudin, 
 V. N. Staroverov, T. A. Keith, R. Kobayashi, J. Normand, 
 K. Raghavachari, A. P. Rendell, J. C. Burant, S. S. Iyengar, 
 J. Tomasi, M. Cossi, J. M. Millam, M. Klene, C. Adamo, R. Cammi, 
 J. W. Ochterski, R. L. Martin, K. Morokuma, O. Farkas, 
 J. B. Foresman, and D. J. Fox, Gaussian, Inc., Wallingford CT, 2019.
 
 ******************************************
 Gaussian 16:  ES64L-G16RevC.01  3-Jul-2019
                 3-Jan-2023 
 ******************************************
 %chk=0003_q000_m01_k00_force_uhf_def2qzvpd.chk
 %nprocshared=2
 Will use up to    2 processors via shared memory.
 %mem=4GB
 ----------------------------------------------------------------------
 #p uhf/gen stable=opt scf=(maxcycle=900,verytightlineq,xqc) integral=g
 rid=ultrafine symmetry=None density=current iop(99/18=-1) output=wfn
 ----------------------------------------------------------------------
 1/38=1,172=1/1;
 2/12=2,15=3,17=6,18=5,40=1/2;
 3/5=7,11=2,25=1,30=1,75=-5,116=2/1,2,3;
 4//1;
 5/5=2,7=900,8=3,13=1,17=3,38=5/2,8;
 6/7=2,8=2,9=2,10=2,22=-1,28=1/1;
 8/6=1,10=90,11=11/1;
 9/8=-3,42=1,46=1/14;
 5/5=2,7=900,8=3,17=43,38=5/8(-2);
 6/7=2,8=2,9=2,10=2,22=-1,28=1/1;
 99/5=1,6=100,9=1,18=-1/99;
 Leave Link    1 at Tue Jan  3 09:05:25 2023, MaxMem=   536870912 cpu:               0.1 elap:               0.1
 (Enter /opt/software/gaussian/g16.c01/l101.exe)
 ----------------------------------------------------------------------
 0003_q000_m01_k00_opt_uwb97xd_def2svpd/0003_q000_m01_k00_force_uhf_def
 2qzvpd stable-force
 ----------------------------------------------------------------------
 Symbolic Z-matrix:
 Charge =  0 Multiplicity = 1
 C                     0.98383  -0.03256   0.04886 
 S                     2.60713   0.0992    0.0188 
 C                     3.22732   0.7362   -1.346 
 H                     0.57042  -0.45753   0.95974 
 H                     0.34381   0.27822  -0.77549 
 H                     2.61522   1.05648  -2.18774 
 H                     4.31046   0.82364  -1.36582 
 
 ITRead=  0  0  0  0  0  0  0
 MicOpt= -1 -1 -1 -1 -1 -1 -1
 NAtoms=      7 NQM=        7 NQMF=       0 NMMI=      0 NMMIF=      0
                NMic=       0 NMicF=      0.
                    Isotopes and Nuclear Properties:
 (Nuclear quadrupole moments (NQMom) in fm**2, nuclear magnetic moments (NMagM)
  in nuclear magnetons)

  Atom         1           2           3           4           5           6           7
 IAtWgt=          12          32          12           1           1           1           1
 AtmWgt=  12.0000000  31.9720718  12.0000000   1.0078250   1.0078250   1.0078250   1.0078250
 NucSpn=           0           0           0           1           1           1           1
 AtZEff=  -0.0000000  -0.0000000  -0.0000000  -0.0000000  -0.0000000  -0.0000000  -0.0000000
 NQMom=    0.0000000   0.0000000   0.0000000   0.0000000   0.0000000   0.0000000   0.0000000
 NMagM=    0.0000000   0.0000000   0.0000000   2.7928460   2.7928460   2.7928460   2.7928460
 AtZNuc=   6.0000000  16.0000000   6.0000000   1.0000000   1.0000000   1.0000000   1.0000000
 Leave Link  101 at Tue Jan  3 09:05:26 2023, MaxMem=   536870912 cpu:               0.5 elap:               0.3
 (Enter /opt/software/gaussian/g16.c01/l202.exe)
                          Input orientation:                          
 ---------------------------------------------------------------------
 Center     Atomic      Atomic             Coordinates (Angstroms)
 Number     Number       Type             X           Y           Z
 ---------------------------------------------------------------------
      1          6           0        0.983833   -0.032559    0.048858
      2         16           0        2.607130    0.099200    0.018798
      3          6           0        3.227323    0.736198   -1.346005
      4          1           0        0.570421   -0.457530    0.959745
      5          1           0        0.343807    0.278223   -0.775492
      6          1           0        2.615219    1.056484   -2.187742
      7          1           0        4.310457    0.823643   -1.365823
 ---------------------------------------------------------------------
                    Distance matrix (angstroms):
                    1          2          3          4          5
     1  C    0.000000
     2  S    1.628913   0.000000
     3  C    2.751341   1.628832   0.000000
     4  H    1.086841   2.311604   3.714915   0.000000
     5  H    1.088931   2.405323   2.974876   1.898350   0.000000
     6  H    2.974864   2.405260   1.088933   4.047234   2.785579
     7  H    3.714948   2.311562   1.086839   4.586670   4.047257
                    6          7
     6  H    0.000000
     7  H    1.898314   0.000000
 Symmetry turned off by external request.
 Stoichiometry    C2H4S
 Rotational constants (GHZ):          32.8865896           8.4327606           6.7117401
 Leave Link  202 at Tue Jan  3 09:05:26 2023, MaxMem=   536870912 cpu:               0.0 elap:               0.0
 (Enter /opt/software/gaussian/g16.c01/l301.exe)
 General basis read from cards:  (5D, 7F)
 Centers:       4      5      6      7
 S 4 1.00
     Exponent=  1.9069169000D+02 Coefficients=  7.0815167000D-04
     Exponent=  2.8605532000D+01 Coefficients=  5.4678827000D-03
     Exponent=  6.5095943000D+00 Coefficients=  2.7966605000D-02
     Exponent=  1.8412455000D+00 Coefficients=  1.0764538000D-01
 S 1 1.00
     Exponent=  5.9853725000D-01 Coefficients=  1.0000000000D+00
 S 1 1.00
     Exponent=  2.1397624000D-01 Coefficients=  1.0000000000D+00
 S 1 1.00
     Exponent=  8.0316286000D-02 Coefficients=  1.0000000000D+00
 P 1 1.00
     Exponent=  2.2920000000D+00 Coefficients=  1.0000000000D+00
 P 1 1.00
     Exponent=  8.3800000000D-01 Coefficients=  1.0000000000D+00
 P 1 1.00
     Exponent=  2.9200000000D-01 Coefficients=  1.0000000000D+00
 P 1 1.00
     Exponent=  8.4063199228D-02 Coefficients=  1.0000000000D+00
 D 1 1.00
     Exponent=  2.0620000000D+00 Coefficients=  1.0000000000D+00
 D 1 1.00
     Exponent=  6.6200000000D-01 Coefficients=  1.0000000000D+00
 F 1 1.00
     Exponent=  1.3970000000D+00 Coefficients=  1.0000000000D+00
 ****
 Centers:       1      3
 S 8 1.00
     Exponent=  6.7025071029D+04 Coefficients=  3.8736308501D-05
     Exponent=  1.0039986538D+04 Coefficients=  3.0107917575D-04
     Exponent=  2.2849316911D+03 Coefficients=  1.5787918095D-03
     Exponent=  6.4714122130D+02 Coefficients=  6.6087087195D-03
     Exponent=  2.1109472335D+02 Coefficients=  2.3367123250D-02
     Exponent=  7.6177643862D+01 Coefficients=  7.0420716898D-02
     Exponent=  2.9633839163D+01 Coefficients=  1.7360344953D-01
     Exponent=  1.2187785081D+01 Coefficients=  3.2292305648D-01
 S 2 1.00
     Exponent=  5.3026006299D+01 Coefficients=  7.4897404492D-02
     Exponent=  1.5258502776D+01 Coefficients=  7.6136220983D-01
 S 1 1.00
     Exponent=  5.2403957464D+00 Coefficients=  1.0000000000D+00
 S 1 1.00
     Exponent=  2.2905022379D+00 Coefficients=  1.0000000000D+00
 S 1 1.00
     Exponent=  6.9673283006D-01 Coefficients=  1.0000000000D+00
 S 1 1.00
     Exponent=  2.7599337363D-01 Coefficients=  1.0000000000D+00
 S 1 1.00
     Exponent=  1.0739884389D-01 Coefficients=  1.0000000000D+00
 S 1 1.00
     Exponent=  4.4981404899D-02 Coefficients=  1.0000000000D+00
 P 5 1.00
     Exponent=  1.0512555082D+02 Coefficients=  8.4647553844D-04
     Exponent=  2.4884461066D+01 Coefficients=  6.6274038534D-03
     Exponent=  7.8637230826D+00 Coefficients=  3.0120390419D-02
     Exponent=  2.8407001835D+00 Coefficients=  9.9951435476D-02
     Exponent=  1.1227137335D+00 Coefficients=  2.3826299282D-01
 P 1 1.00
     Exponent=  4.6050725555D-01 Coefficients=  1.0000000000D+00
 P 1 1.00
     Exponent=  1.8937530913D-01 Coefficients=  1.0000000000D+00
 P 1 1.00
     Exponent=  7.5983791611D-02 Coefficients=  1.0000000000D+00
 D 1 1.00
     Exponent=  1.8480000000D+00 Coefficients=  1.0000000000D+00
 D 1 1.00
     Exponent=  6.4900000000D-01 Coefficients=  1.0000000000D+00
 D 1 1.00
     Exponent=  2.2800000000D-01 Coefficients=  1.0000000000D+00
 D 1 1.00
     Exponent=  7.6889830417D-02 Coefficients=  1.0000000000D+00
 F 1 1.00
     Exponent=  1.4190000000D+00 Coefficients=  1.0000000000D+00
 F 1 1.00
     Exponent=  4.8500000000D-01 Coefficients=  1.0000000000D+00
 G 1 1.00
     Exponent=  1.0110000000D+00 Coefficients=  1.0000000000D+00
 ****
 Centers:       2
 S 10 1.00
     Exponent=  1.2734109023D+06 Coefficients=  1.1767088246D-05
     Exponent=  1.9069783007D+05 Coefficients=  9.1478610166D-05
     Exponent=  4.3397885330D+04 Coefficients=  4.8090078640D-04
     Exponent=  1.2291809677D+04 Coefficients=  2.0257193592D-03
     Exponent=  4.0097420824D+03 Coefficients=  7.3190096406D-03
     Exponent=  1.4473531030D+03 Coefficients=  2.3300499900D-02
     Exponent=  5.6430102913D+02 Coefficients=  6.5386213610D-02
     Exponent=  2.3374506243D+02 Coefficients=  1.5614449910D-01
     Exponent=  1.0156402814D+02 Coefficients=  2.9318563787D-01
     Exponent=  4.5805907187D+01 Coefficients=  3.6287914289D-01
 S 3 1.00
     Exponent=  3.9427281503D+02 Coefficients=  1.8753305081D-02
     Exponent=  1.2172249591D+02 Coefficients=  1.6870726663D-01
     Exponent=  4.6754125963D+01 Coefficients=  6.3806830653D-01
 S 1 1.00
     Exponent=  2.0923008254D+01 Coefficients=  1.0000000000D+00
 S 1 1.00
     Exponent=  8.2685567800D+00 Coefficients=  1.0000000000D+00
 S 1 1.00
     Exponent=  3.8629345671D+00 Coefficients=  1.0000000000D+00
 S 1 1.00
     Exponent=  1.7794684781D+00 Coefficients=  1.0000000000D+00
 S 1 1.00
     Exponent=  6.1064260103D-01 Coefficients=  1.0000000000D+00
 S 1 1.00
     Exponent=  2.7412269445D-01 Coefficients=  1.0000000000D+00
 S 1 1.00
     Exponent=  1.1325939107D-01 Coefficients=  1.0000000000D+00
 S 1 1.00
     Exponent=  4.4392624881D-02 Coefficients=  1.0000000000D+00
 P 8 1.00
     Exponent=  2.1898930459D+03 Coefficients=  2.3912552864D-04
     Exponent=  5.1894596592D+02 Coefficients=  2.0772032158D-03
     Exponent=  1.6819560151D+02 Coefficients=  1.1242420571D-02
     Exponent=  6.3745282788D+01 Coefficients=  4.4069933941D-02
     Exponent=  2.6597033077D+01 Coefficients=  1.2918778608D-01
     Exponent=  1.1774251449D+01 Coefficients=  2.6910820167D-01
     Exponent=  5.3534379024D+00 Coefficients=  3.7855928620D-01
     Exponent=  2.4701911802D+00 Coefficients=  2.9692134655D-01
 P 2 1.00
     Exponent=  8.2120288349D+01 Coefficients= -3.9420318847D-02
     Exponent=  4.9523532869D+00 Coefficients=  6.4048403090D-01
 P 1 1.00
     Exponent=  1.0828262029D+00 Coefficients=  1.0000000000D+00
 P 1 1.00
     Exponent=  4.9271277356D-01 Coefficients=  1.0000000000D+00
 P 1 1.00
     Exponent=  2.0483450942D-01 Coefficients=  1.0000000000D+00
 P 1 1.00
     Exponent=  8.0743615716D-02 Coefficients=  1.0000000000D+00
 P 1 1.00
     Exponent=  2.5661157833D-02 Coefficients=  1.0000000000D+00
 D 1 1.00
     Exponent=  4.1590000000D+00 Coefficients=  1.0000000000D+00
 D 1 1.00
     Exponent=  1.0190000000D+00 Coefficients=  1.0000000000D+00
 D 1 1.00
     Exponent=  4.6400000000D-01 Coefficients=  1.0000000000D+00
 D 1 1.00
     Exponent=  1.9400000000D-01 Coefficients=  1.0000000000D+00
 D 1 1.00
     Exponent=  6.7889829366D-02 Coefficients=  1.0000000000D+00
 F 1 1.00
     Exponent=  8.6900000000D-01 Coefficients=  1.0000000000D+00
 F 1 1.00
     Exponent=  3.3500000000D-01 Coefficients=  1.0000000000D+00
 G 1 1.00
     Exponent=  6.8300000000D-01 Coefficients=  1.0000000000D+00
 ****
 Ernie: Thresh=  0.10000D-02 Tol=  0.10000D-05 Strict=F.
   337 basis functions,   493 primitive gaussians,   406 cartesian basis functions
    16 alpha electrons       16 beta electrons
       nuclear repulsion energy       100.3080120317 Hartrees.
 IExCor=    0 DFT=F Ex=HF Corr=None ExCW=0 ScaHFX=  1.000000
 ScaDFX=  1.000000  1.000000  1.000000  1.000000 ScalE2=  1.000000  1.000000
 IRadAn=      5 IRanWt=     -1 IRanGd=            0 ICorTp=0 IEmpDi=  4
 NAtoms=    7 NActive=    7 NUniq=    7 SFac= 1.00D+00 NAtFMM=   60 NAOKFM=F Big=F
 Integral buffers will be    131072 words long.
 Raffenetti 2 integral format.
 Two-electron integral symmetry is turned off.
 Leave Link  301 at Tue Jan  3 09:05:26 2023, MaxMem=   536870912 cpu:               0.2 elap:               0.1
 (Enter /opt/software/gaussian/g16.c01/l302.exe)
 NPDir=0 NMtPBC=     1 NCelOv=     1 NCel=       1 NClECP=     1 NCelD=      1
         NCelK=      1 NCelE2=     1 NClLst=     1 CellRange=     0.0.
 One-electron integrals computed using PRISM.
 NBasis=   337 RedAO= T EigKep=  3.29D-06  NBF=   337
 NBsUse=   337 1.00D-06 EigRej= -1.00D+00 NBFU=   337
 Leave Link  302 at Tue Jan  3 09:05:26 2023, MaxMem=   536870912 cpu:               0.5 elap:               0.3
 (Enter /opt/software/gaussian/g16.c01/l303.exe)
 DipDrv:  MaxL=1.
 Leave Link  303 at Tue Jan  3 09:05:26 2023, MaxMem=   536870912 cpu:               0.1 elap:               0.1
 (Enter /opt/software/gaussian/g16.c01/l401.exe)
 ExpMin= 2.57D-02 ExpMax= 1.27D+06 ExpMxC= 1.45D+03 IAcc=3 IRadAn=         5 AccDes= 0.00D+00
 Harris functional with IExCor=  205 and IRadAn=       5 diagonalized for initial guess.
 HarFok:  IExCor=  205 AccDes= 0.00D+00 IRadAn=         5 IDoV= 1 UseB2=F ITyADJ=14
 ICtDFT=  3500011 ScaDFX=  1.000000  1.000000  1.000000  1.000000
 FoFCou: FMM=F IPFlag=           0 FMFlag=      100000 FMFlg1=           0
         NFxFlg=           0 DoJE=T BraDBF=F KetDBF=T FulRan=T
         wScrn=  0.000000 ICntrl=       500 IOpCl=  0 I1Cent=   200000004 NGrid=           0
         NMat0=    1 NMatS0=      1 NMatT0=    0 NMatD0=    1 NMtDS0=    0 NMtDT0=    0
 Symmetry not used in FoFCou.
 Harris En= -475.421856708391    
 JPrj=0 DoOrth=F DoCkMO=F.
 Initial guess <Sx>= 0.0000 <Sy>= 0.0000 <Sz>= 0.0000 <S**2>=-0.0000 S=-0.0000
 Leave Link  401 at Tue Jan  3 09:05:28 2023, MaxMem=   536870912 cpu:               2.5 elap:               1.3
 (Enter /opt/software/gaussian/g16.c01/l502.exe)
 Two-electron integral symmetry not used.
 UHF open shell SCF:
 Using DIIS extrapolation, IDIIS=  1040.
 NGot=   536870912 LenX=   536536244 LenY=   536370967
 Requested convergence on RMS density matrix=1.00D-08 within 128 cycles.
 Requested convergence on MAX density matrix=1.00D-06.
 Requested convergence on             energy=1.00D-06.
 No special actions if energy rises.
 Fock matrices will be formed incrementally for  20 cycles.

 Cycle   1  Pass 1  IDiag  1:
 FoFJK:  IHMeth= 1 ICntrl=       0 DoSepK=F KAlg= 0 I1Cent=           0 FoldK=F
 IRaf= 970000000 NMat=       1 IRICut=       1 DoRegI=T DoRafI=F ISym2E= 0 IDoP0=0 IntGTp=1.
 FoFCou: FMM=F IPFlag=           0 FMFlag=      100000 FMFlg1=           0
         NFxFlg=           0 DoJE=F BraDBF=F KetDBF=F FulRan=T
         wScrn=  0.000000 ICntrl=         0 IOpCl=  1 I1Cent=           0 NGrid=           0
         NMat0=    1 NMatS0=      1 NMatT0=    0 NMatD0=    1 NMtDS0=    0 NMtDT0=    0
 Symmetry not used in FoFCou.
 E= -475.284189051723    
 DIIS: error= 5.23D-02 at cycle   1 NSaved=   1.
 NSaved= 1 IEnMin= 1 EnMin= -475.284189051723     IErMin= 1 ErrMin= 5.23D-02
 ErrMax= 5.23D-02  0.00D+00 EMaxC= 1.00D-01 BMatC= 3.24D+00 BMatP= 3.24D+00
 IDIUse=3 WtCom= 4.77D-01 WtEn= 5.23D-01
 Coeff-Com:  0.100D+01
 Coeff-En:   0.100D+01
 Coeff:      0.100D+01
 Gap=     0.276 Goal=   None    Shift=    0.000
 Gap=     0.276 Goal=   None    Shift=    0.000
 GapD=    0.276 DampG=1.000 DampE=0.500 DampFc=0.5000 IDamp=-1.
 Damping current iteration by 5.00D-01
 RMSDP=1.69D-03 MaxDP=6.29D-02              OVMax= 2.03D-01

 Cycle   2  Pass 1  IDiag  1:
 RMSU=  8.20D-04    CP:  9.73D-01
 E= -475.425705397257     Delta-E=       -0.141516345534 Rises=F Damp=T
 DIIS: error= 2.60D-02 at cycle   2 NSaved=   2.
 NSaved= 2 IEnMin= 2 EnMin= -475.425705397257     IErMin= 2 ErrMin= 2.60D-02
 ErrMax= 2.60D-02  0.00D+00 EMaxC= 1.00D-01 BMatC= 6.89D-01 BMatP= 3.24D+00
 IDIUse=3 WtCom= 7.40D-01 WtEn= 2.60D-01
 Coeff-Com: -0.659D+00 0.166D+01
 Coeff-En:   0.000D+00 0.100D+01
 Coeff:     -0.488D+00 0.149D+01
 Gap=     0.340 Goal=   None    Shift=    0.000
 Gap=     0.340 Goal=   None    Shift=    0.000
 RMSDP=6.87D-04 MaxDP=2.77D-02 DE=-1.42D-01 OVMax= 8.92D-02

 Cycle   3  Pass 1  IDiag  1:
 RMSU=  3.98D-04    CP:  9.44D-01  1.63D+00
 E= -475.543915113443     Delta-E=       -0.118209716186 Rises=F Damp=F
 DIIS: error= 3.99D-03 at cycle   3 NSaved=   3.
 NSaved= 3 IEnMin= 3 EnMin= -475.543915113443     IErMin= 3 ErrMin= 3.99D-03
 ErrMax= 3.99D-03  0.00D+00 EMaxC= 1.00D-01 BMatC= 1.05D-02 BMatP= 6.89D-01
 IDIUse=3 WtCom= 9.60D-01 WtEn= 3.99D-02
 Coeff-Com: -0.129D+00 0.223D+00 0.907D+00
 Coeff-En:   0.000D+00 0.000D+00 0.100D+01
 Coeff:     -0.124D+00 0.214D+00 0.910D+00
 Gap=     0.330 Goal=   None    Shift=    0.000
 Gap=     0.330 Goal=   None    Shift=    0.000
 RMSDP=1.07D-04 MaxDP=6.82D-03 DE=-1.18D-01 OVMax= 2.09D-02

 Cycle   4  Pass 1  IDiag  1:
 RMSU=  7.11D-05    CP:  9.43D-01  1.73D+00  9.66D-01
 E= -475.546437838396     Delta-E=       -0.002522724954 Rises=F Damp=F
 DIIS: error= 9.61D-04 at cycle   4 NSaved=   4.
 NSaved= 4 IEnMin= 4 EnMin= -475.546437838396     IErMin= 4 ErrMin= 9.61D-04
 ErrMax= 9.61D-04  0.00D+00 EMaxC= 1.00D-01 BMatC= 3.05D-04 BMatP= 1.05D-02
 IDIUse=3 WtCom= 9.90D-01 WtEn= 9.61D-03
 Coeff-Com:  0.222D-02-0.998D-02 0.100D+00 0.907D+00
 Coeff-En:   0.000D+00 0.000D+00 0.000D+00 0.100D+01
 Coeff:      0.220D-02-0.988D-02 0.993D-01 0.908D+00
 Gap=     0.328 Goal=   None    Shift=    0.000
 Gap=     0.328 Goal=   None    Shift=    0.000
 RMSDP=2.33D-05 MaxDP=1.51D-03 DE=-2.52D-03 OVMax= 3.26D-03

 Cycle   5  Pass 1  IDiag  1:
 RMSU=  1.81D-05    CP:  9.42D-01  1.72D+00  9.98D-01  1.04D+00
 E= -475.546533358138     Delta-E=       -0.000095519742 Rises=F Damp=F
 DIIS: error= 2.85D-04 at cycle   5 NSaved=   5.
 NSaved= 5 IEnMin= 5 EnMin= -475.546533358138     IErMin= 5 ErrMin= 2.85D-04
 ErrMax= 2.85D-04  0.00D+00 EMaxC= 1.00D-01 BMatC= 2.50D-05 BMatP= 3.05D-04
 IDIUse=3 WtCom= 9.97D-01 WtEn= 2.85D-03
 Coeff-Com:  0.107D-01-0.191D-01-0.623D-01-0.312D-01 0.110D+01
 Coeff-En:   0.000D+00 0.000D+00 0.000D+00 0.000D+00 0.100D+01
 Coeff:      0.107D-01-0.191D-01-0.621D-01-0.311D-01 0.110D+01
 Gap=     0.329 Goal=   None    Shift=    0.000
 Gap=     0.329 Goal=   None    Shift=    0.000
 RMSDP=1.15D-05 MaxDP=5.84D-04 DE=-9.55D-05 OVMax= 1.31D-03

 Cycle   6  Pass 1  IDiag  1:
 RMSU=  5.63D-06    CP:  9.42D-01  1.72D+00  1.01D+00  1.13D+00  1.31D+00
 E= -475.546547215948     Delta-E=       -0.000013857809 Rises=F Damp=F
 DIIS: error= 5.61D-05 at cycle   6 NSaved=   6.
 NSaved= 6 IEnMin= 6 EnMin= -475.546547215948     IErMin= 6 ErrMin= 5.61D-05
 ErrMax= 5.61D-05  0.00D+00 EMaxC= 1.00D-01 BMatC= 1.75D-06 BMatP= 2.50D-05
 IDIUse=1 WtCom= 1.00D+00 WtEn= 0.00D+00
 Coeff-Com:  0.128D-02-0.180D-02-0.142D-01-0.679D-01 0.808D-01 0.100D+01
 Coeff:      0.128D-02-0.180D-02-0.142D-01-0.679D-01 0.808D-01 0.100D+01
 Gap=     0.328 Goal=   None    Shift=    0.000
 Gap=     0.328 Goal=   None    Shift=    0.000
 RMSDP=3.53D-06 MaxDP=2.19D-04 DE=-1.39D-05 OVMax= 4.23D-04

 Cycle   7  Pass 1  IDiag  1:
 RMSU=  1.88D-06    CP:  9.42D-01  1.71D+00  1.01D+00  1.14D+00  1.43D+00
                    CP:  1.27D+00
 E= -475.546548273399     Delta-E=       -0.000001057452 Rises=F Damp=F
 DIIS: error= 2.10D-05 at cycle   7 NSaved=   7.
 NSaved= 7 IEnMin= 7 EnMin= -475.546548273399     IErMin= 7 ErrMin= 2.10D-05
 ErrMax= 2.10D-05  0.00D+00 EMaxC= 1.00D-01 BMatC= 1.29D-07 BMatP= 1.75D-06
 IDIUse=1 WtCom= 1.00D+00 WtEn= 0.00D+00
 Coeff-Com: -0.721D-03 0.121D-02 0.605D-02 0.693D-02-0.706D-01-0.105D+00
 Coeff-Com:  0.116D+01
 Coeff:     -0.721D-03 0.121D-02 0.605D-02 0.693D-02-0.706D-01-0.105D+00
 Coeff:      0.116D+01
 Gap=     0.328 Goal=   None    Shift=    0.000
 Gap=     0.328 Goal=   None    Shift=    0.000
 RMSDP=1.45D-06 MaxDP=3.79D-05 DE=-1.06D-06 OVMax= 1.92D-04

 Cycle   8  Pass 1  IDiag  1:
 RMSU=  4.25D-07    CP:  9.42D-01  1.71D+00  1.01D+00  1.14D+00  1.45D+00
                    CP:  1.41D+00  1.48D+00
 E= -475.546548375588     Delta-E=       -0.000000102189 Rises=F Damp=F
 DIIS: error= 5.90D-06 at cycle   8 NSaved=   8.
 NSaved= 8 IEnMin= 8 EnMin= -475.546548375588     IErMin= 8 ErrMin= 5.90D-06
 ErrMax= 5.90D-06  0.00D+00 EMaxC= 1.00D-01 BMatC= 1.74D-08 BMatP= 1.29D-07
 IDIUse=1 WtCom= 1.00D+00 WtEn= 0.00D+00
 Coeff-Com:  0.211D-03-0.416D-03-0.559D-03 0.227D-02 0.206D-01-0.657D-01
 Coeff-Com: -0.389D+00 0.143D+01
 Coeff:      0.211D-03-0.416D-03-0.559D-03 0.227D-02 0.206D-01-0.657D-01
 Coeff:     -0.389D+00 0.143D+01
 Gap=     0.328 Goal=   None    Shift=    0.000
 Gap=     0.328 Goal=   None    Shift=    0.000
 RMSDP=5.66D-07 MaxDP=1.71D-05 DE=-1.02D-07 OVMax= 8.84D-05

 Cycle   9  Pass 1  IDiag  1:
 RMSU=  1.25D-07    CP:  9.42D-01  1.71D+00  1.01D+00  1.14D+00  1.46D+00
                    CP:  1.45D+00  1.71D+00  1.45D+00
 E= -475.546548391027     Delta-E=       -0.000000015438 Rises=F Damp=F
 DIIS: error= 1.21D-06 at cycle   9 NSaved=   9.
 NSaved= 9 IEnMin= 9 EnMin= -475.546548391027     IErMin= 9 ErrMin= 1.21D-06
 ErrMax= 1.21D-06  0.00D+00 EMaxC= 1.00D-01 BMatC= 7.32D-10 BMatP= 1.74D-08
 IDIUse=1 WtCom= 1.00D+00 WtEn= 0.00D+00
 Coeff-Com: -0.373D-05 0.193D-04-0.233D-03-0.119D-02 0.957D-03 0.249D-01
 Coeff-Com: -0.218D-01-0.226D+00 0.122D+01
 Coeff:     -0.373D-05 0.193D-04-0.233D-03-0.119D-02 0.957D-03 0.249D-01
 Coeff:     -0.218D-01-0.226D+00 0.122D+01
 Gap=     0.328 Goal=   None    Shift=    0.000
 Gap=     0.328 Goal=   None    Shift=    0.000
 RMSDP=7.49D-08 MaxDP=3.55D-06 DE=-1.54D-08 OVMax= 1.87D-05

 Cycle  10  Pass 1  IDiag  1:
 RMSU=  3.26D-08    CP:  9.42D-01  1.71D+00  1.01D+00  1.14D+00  1.46D+00
                    CP:  1.44D+00  1.71D+00  1.51D+00  1.49D+00
 E= -475.546548391723     Delta-E=       -0.000000000697 Rises=F Damp=F
 DIIS: error= 3.61D-07 at cycle  10 NSaved=  10.
 NSaved=10 IEnMin=10 EnMin= -475.546548391723     IErMin=10 ErrMin= 3.61D-07
 ErrMax= 3.61D-07  0.00D+00 EMaxC= 1.00D-01 BMatC= 7.85D-11 BMatP= 7.32D-10
 IDIUse=1 WtCom= 1.00D+00 WtEn= 0.00D+00
 Coeff-Com: -0.161D-04 0.320D-04 0.453D-04-0.295D-03-0.146D-02 0.636D-02
 Coeff-Com:  0.277D-01-0.127D+00 0.101D+00 0.994D+00
 Coeff:     -0.161D-04 0.320D-04 0.453D-04-0.295D-03-0.146D-02 0.636D-02
 Coeff:      0.277D-01-0.127D+00 0.101D+00 0.994D+00
 Gap=     0.328 Goal=   None    Shift=    0.000
 Gap=     0.328 Goal=   None    Shift=    0.000
 RMSDP=2.49D-08 MaxDP=9.55D-07 DE=-6.97D-10 OVMax= 3.75D-06

 Cycle  11  Pass 1  IDiag  1:
 RMSU=  1.13D-08    CP:  9.42D-01  1.71D+00  1.01D+00  1.14D+00  1.46D+00
                    CP:  1.44D+00  1.71D+00  1.51D+00  1.62D+00  1.29D+00
 E= -475.546548391768     Delta-E=       -0.000000000045 Rises=F Damp=F
 DIIS: error= 1.75D-07 at cycle  11 NSaved=  11.
 NSaved=11 IEnMin=11 EnMin= -475.546548391768     IErMin=11 ErrMin= 1.75D-07
 ErrMax= 1.75D-07  0.00D+00 EMaxC= 1.00D-01 BMatC= 1.75D-11 BMatP= 7.85D-11
 IDIUse=1 WtCom= 1.00D+00 WtEn= 0.00D+00
 Coeff-Com: -0.470D-05 0.765D-05 0.498D-04 0.616D-04-0.669D-03-0.135D-02
 Coeff-Com:  0.138D-01-0.164D-01-0.136D+00 0.364D+00 0.777D+00
 Coeff:     -0.470D-05 0.765D-05 0.498D-04 0.616D-04-0.669D-03-0.135D-02
 Coeff:      0.138D-01-0.164D-01-0.136D+00 0.364D+00 0.777D+00
 Gap=     0.328 Goal=   None    Shift=    0.000
 Gap=     0.328 Goal=   None    Shift=    0.000
 RMSDP=8.07D-09 MaxDP=3.04D-07 DE=-4.47D-11 OVMax= 1.16D-06

 SCF Done:  E(UHF) =  -475.546548392     A.U. after   11 cycles
            NFock= 11  Conv=0.81D-08     -V/T= 2.0006
 <Sx>= 0.0000 <Sy>= 0.0000 <Sz>= 0.0000 <S**2>=-0.0000 S=-0.0000
 <L.S>=  0.00000000000    
 KE= 4.752646247656D+02 PE=-1.327837871701D+03 EE= 2.767186865119D+02
 Annihilation of the first spin contaminant:
 S**2 before annihilation    -0.0000,   after     0.0000
 Leave Link  502 at Tue Jan  3 09:11:06 2023, MaxMem=   536870912 cpu:             676.3 elap:             338.4
 (Enter /opt/software/gaussian/g16.c01/l508.exe)
 QCSCF skips out because SCF is already converged.
 Leave Link  508 at Tue Jan  3 09:11:06 2023, MaxMem=   536870912 cpu:               0.0 elap:               0.0
 (Enter /opt/software/gaussian/g16.c01/l601.exe)
 Copying SCF densities to generalized density rwf, IOpCl= 1 IROHF=0.

 **********************************************************************

            Population analysis using the SCF Density.

 **********************************************************************

 Alpha  occ. eigenvalues --  -92.03502 -11.24464 -11.24461  -9.03034  -6.71158
 Alpha  occ. eigenvalues --   -6.71142  -6.71130  -1.12143  -0.93954  -0.77189
 Alpha  occ. eigenvalues --   -0.63474  -0.62079  -0.55494  -0.48713  -0.46886
 Alpha  occ. eigenvalues --   -0.27970
 Alpha virt. eigenvalues --    0.04864   0.05282   0.05831   0.06310   0.07276
 Alpha virt. eigenvalues --    0.10674   0.11908   0.14805   0.16825   0.17852
 Alpha virt. eigenvalues --    0.19074   0.20294   0.20308   0.20714   0.22901
 Alpha virt. eigenvalues --    0.24202   0.24834   0.25035   0.26040   0.26373
 Alpha virt. eigenvalues --    0.27479   0.29099   0.29643   0.31695   0.32058
 Alpha virt. eigenvalues --    0.33005   0.33317   0.33557   0.34956   0.35206
 Alpha virt. eigenvalues --    0.35394   0.36462   0.37641   0.37800   0.39693
 Alpha virt. eigenvalues --    0.39996   0.43064   0.43358   0.45657   0.46540
 Alpha virt. eigenvalues --    0.47358   0.47786   0.48358   0.49644   0.51547
 Alpha virt. eigenvalues --    0.51830   0.51985   0.56091   0.58222   0.59312
 Alpha virt. eigenvalues --    0.59434   0.60508   0.62706   0.63259   0.71096
 Alpha virt. eigenvalues --    0.72167   0.73359   0.75804   0.80277   0.80325
 Alpha virt. eigenvalues --    0.81304   0.82722   0.85943   0.88483   0.89083
 Alpha virt. eigenvalues --    0.89463   0.92780   0.98731   1.01194   1.02241
 Alpha virt. eigenvalues --    1.03059   1.05020   1.05680   1.06830   1.07665
 Alpha virt. eigenvalues --    1.08733   1.08768   1.16192   1.17081   1.19430
 Alpha virt. eigenvalues --    1.21641   1.23549   1.24933   1.28010   1.29883
 Alpha virt. eigenvalues --    1.31214   1.32521   1.33659   1.38737   1.39661
 Alpha virt. eigenvalues --    1.43123   1.46276   1.47615   1.48243   1.53225
 Alpha virt. eigenvalues --    1.54667   1.59099   1.60295   1.62725   1.64495
 Alpha virt. eigenvalues --    1.66903   1.69904   1.75063   1.80609   1.85750
 Alpha virt. eigenvalues --    1.94116   1.94741   2.03530   2.09760   2.12334
 Alpha virt. eigenvalues --    2.13958   2.17406   2.19376   2.20222   2.20458
 Alpha virt. eigenvalues --    2.20561   2.20610   2.26126   2.29531   2.29784
 Alpha virt. eigenvalues --    2.31091   2.32584   2.37770   2.41128   2.43548
 Alpha virt. eigenvalues --    2.45821   2.51752   2.54087   2.57178   2.59447
 Alpha virt. eigenvalues --    2.60146   2.61428   2.64676   2.67549   2.70303
 Alpha virt. eigenvalues --    2.70943   2.74237   2.81900   2.85115   2.86855
 Alpha virt. eigenvalues --    2.88902   2.91255   2.91922   2.91944   2.97738
 Alpha virt. eigenvalues --    2.98971   2.99626   3.00754   3.03916   3.07062
 Alpha virt. eigenvalues --    3.08233   3.10345   3.14489   3.15606   3.20547
 Alpha virt. eigenvalues --    3.21901   3.27825   3.30626   3.40103   3.40957
 Alpha virt. eigenvalues --    3.41331   3.48680   3.60889   3.63266   3.64061
 Alpha virt. eigenvalues --    3.64209   3.65343   3.65916   3.68816   3.71187
 Alpha virt. eigenvalues --    3.72534   3.73499   3.79977   3.81519   3.85110
 Alpha virt. eigenvalues --    3.87432   3.97245   4.00312   4.00792   4.04681
 Alpha virt. eigenvalues --    4.07097   4.10403   4.13460   4.14367   4.18782
 Alpha virt. eigenvalues --    4.25335   4.32730   4.33503   4.44728   4.46040
 Alpha virt. eigenvalues --    4.50362   4.64992   4.66765   4.98229   4.98325
 Alpha virt. eigenvalues --    5.36930   5.48074   5.60297   5.60921   5.65076
 Alpha virt. eigenvalues --    5.66763   5.67218   5.67697   5.70292   5.73527
 Alpha virt. eigenvalues --    5.74995   5.75544   5.81165   5.82467   5.95462
 Alpha virt. eigenvalues --    5.99169   6.13535   6.17670   6.19632   6.20459
 Alpha virt. eigenvalues --    6.20641   6.21355   6.27656   6.31840   6.32634
 Alpha virt. eigenvalues --    6.35238   6.38409   6.39347   6.41296   6.43939
 Alpha virt. eigenvalues --    6.56819   6.61874   6.63378   6.67865   6.71582
 Alpha virt. eigenvalues --    6.71663   6.71899   6.76290   6.80062   6.85369
 Alpha virt. eigenvalues --    6.85771   6.92146   7.03214   7.03247   7.11015
 Alpha virt. eigenvalues --    7.14711   7.18393   7.23014   7.24619   7.27324
 Alpha virt. eigenvalues --    7.51449   7.54045   7.56997   7.63712   7.67140
 Alpha virt. eigenvalues --    7.72000   7.72546   7.80740   7.82237   7.88759
 Alpha virt. eigenvalues --    7.90171   7.91143   7.94137   7.97372   7.98280
 Alpha virt. eigenvalues --    8.00337   8.03545   8.05705   8.14163   8.27702
 Alpha virt. eigenvalues --    8.32253   8.36186   8.43197   8.44263   8.51405
 Alpha virt. eigenvalues --    8.55384   8.56924   8.59376   8.59456   8.66872
 Alpha virt. eigenvalues --    8.68208   8.69467   8.72842   8.75217   8.77605
 Alpha virt. eigenvalues --    8.79515   8.83281   8.84572   8.84637   8.99433
 Alpha virt. eigenvalues --    9.00185   9.33254   9.36920   9.38581   9.41156
 Alpha virt. eigenvalues --    9.44230   9.49506   9.59172   9.98337  10.00907
 Alpha virt. eigenvalues --   10.10765  10.15933  10.20608  10.20892  10.21366
 Alpha virt. eigenvalues --   10.28088  10.29009  10.31657  10.81475  10.83371
 Alpha virt. eigenvalues --   10.90789  10.94367  12.29857  12.32197  13.35430
 Alpha virt. eigenvalues --   13.45200  25.71941  29.48804  29.51778  30.02535
 Alpha virt. eigenvalues --   30.41929  30.75150  85.99147 149.91468 149.93439
 Alpha virt. eigenvalues --  455.92383
  Beta  occ. eigenvalues --  -92.03502 -11.24464 -11.24461  -9.03034  -6.71158
  Beta  occ. eigenvalues --   -6.71142  -6.71130  -1.12143  -0.93954  -0.77189
  Beta  occ. eigenvalues --   -0.63474  -0.62079  -0.55494  -0.48713  -0.46886
  Beta  occ. eigenvalues --   -0.27970
  Beta virt. eigenvalues --    0.04864   0.05282   0.05831   0.06310   0.07276
  Beta virt. eigenvalues --    0.10674   0.11908   0.14805   0.16825   0.17852
  Beta virt. eigenvalues --    0.19074   0.20294   0.20308   0.20714   0.22901
  Beta virt. eigenvalues --    0.24202   0.24834   0.25035   0.26040   0.26373
  Beta virt. eigenvalues --    0.27479   0.29099   0.29643   0.31695   0.32058
  Beta virt. eigenvalues --    0.33005   0.33317   0.33557   0.34956   0.35206
  Beta virt. eigenvalues --    0.35394   0.36462   0.37641   0.37800   0.39693
  Beta virt. eigenvalues --    0.39996   0.43064   0.43358   0.45657   0.46540
  Beta virt. eigenvalues --    0.47358   0.47786   0.48358   0.49644   0.51547
  Beta virt. eigenvalues --    0.51830   0.51985   0.56091   0.58222   0.59312
  Beta virt. eigenvalues --    0.59434   0.60508   0.62706   0.63259   0.71096
  Beta virt. eigenvalues --    0.72167   0.73359   0.75804   0.80277   0.80325
  Beta virt. eigenvalues --    0.81304   0.82722   0.85943   0.88483   0.89083
  Beta virt. eigenvalues --    0.89463   0.92780   0.98731   1.01194   1.02241
  Beta virt. eigenvalues --    1.03059   1.05020   1.05680   1.06830   1.07665
  Beta virt. eigenvalues --    1.08733   1.08768   1.16192   1.17081   1.19430
  Beta virt. eigenvalues --    1.21641   1.23549   1.24933   1.28010   1.29883
  Beta virt. eigenvalues --    1.31214   1.32521   1.33659   1.38737   1.39661
  Beta virt. eigenvalues --    1.43123   1.46276   1.47615   1.48243   1.53225
  Beta virt. eigenvalues --    1.54667   1.59099   1.60295   1.62725   1.64495
  Beta virt. eigenvalues --    1.66903   1.69904   1.75063   1.80609   1.85750
  Beta virt. eigenvalues --    1.94116   1.94741   2.03530   2.09760   2.12334
  Beta virt. eigenvalues --    2.13958   2.17406   2.19376   2.20222   2.20458
  Beta virt. eigenvalues --    2.20561   2.20610   2.26126   2.29531   2.29784
  Beta virt. eigenvalues --    2.31091   2.32584   2.37770   2.41128   2.43548
  Beta virt. eigenvalues --    2.45821   2.51752   2.54087   2.57178   2.59447
  Beta virt. eigenvalues --    2.60146   2.61428   2.64676   2.67549   2.70303
  Beta virt. eigenvalues --    2.70943   2.74237   2.81900   2.85115   2.86855
  Beta virt. eigenvalues --    2.88902   2.91255   2.91922   2.91944   2.97738
  Beta virt. eigenvalues --    2.98971   2.99626   3.00754   3.03916   3.07062
  Beta virt. eigenvalues --    3.08233   3.10345   3.14489   3.15606   3.20547
  Beta virt. eigenvalues --    3.21901   3.27825   3.30626   3.40103   3.40957
  Beta virt. eigenvalues --    3.41331   3.48680   3.60889   3.63266   3.64061
  Beta virt. eigenvalues --    3.64209   3.65343   3.65916   3.68816   3.71187
  Beta virt. eigenvalues --    3.72534   3.73499   3.79977   3.81519   3.85110
  Beta virt. eigenvalues --    3.87432   3.97245   4.00312   4.00792   4.04681
  Beta virt. eigenvalues --    4.07097   4.10403   4.13460   4.14367   4.18782
  Beta virt. eigenvalues --    4.25335   4.32730   4.33503   4.44728   4.46040
  Beta virt. eigenvalues --    4.50362   4.64992   4.66765   4.98229   4.98325
  Beta virt. eigenvalues --    5.36930   5.48074   5.60297   5.60921   5.65076
  Beta virt. eigenvalues --    5.66763   5.67218   5.67697   5.70292   5.73527
  Beta virt. eigenvalues --    5.74995   5.75544   5.81165   5.82467   5.95462
  Beta virt. eigenvalues --    5.99169   6.13535   6.17670   6.19632   6.20459
  Beta virt. eigenvalues --    6.20641   6.21355   6.27656   6.31840   6.32634
  Beta virt. eigenvalues --    6.35238   6.38409   6.39347   6.41296   6.43939
  Beta virt. eigenvalues --    6.56819   6.61874   6.63378   6.67865   6.71582
  Beta virt. eigenvalues --    6.71663   6.71899   6.76290   6.80062   6.85369
  Beta virt. eigenvalues --    6.85771   6.92146   7.03214   7.03247   7.11015
  Beta virt. eigenvalues --    7.14711   7.18393   7.23014   7.24619   7.27324
  Beta virt. eigenvalues --    7.51449   7.54045   7.56997   7.63712   7.67140
  Beta virt. eigenvalues --    7.72000   7.72546   7.80740   7.82237   7.88759
  Beta virt. eigenvalues --    7.90171   7.91143   7.94137   7.97372   7.98280
  Beta virt. eigenvalues --    8.00337   8.03545   8.05705   8.14163   8.27702
  Beta virt. eigenvalues --    8.32253   8.36186   8.43197   8.44263   8.51405
  Beta virt. eigenvalues --    8.55384   8.56924   8.59376   8.59456   8.66872
  Beta virt. eigenvalues --    8.68208   8.69467   8.72842   8.75217   8.77605
  Beta virt. eigenvalues --    8.79515   8.83281   8.84572   8.84637   8.99433
  Beta virt. eigenvalues --    9.00185   9.33254   9.36920   9.38581   9.41156
  Beta virt. eigenvalues --    9.44230   9.49506   9.59172   9.98337  10.00907
  Beta virt. eigenvalues --   10.10765  10.15933  10.20608  10.20892  10.21366
  Beta virt. eigenvalues --   10.28088  10.29009  10.31657  10.81475  10.83371
  Beta virt. eigenvalues --   10.90789  10.94367  12.29857  12.32197  13.35430
  Beta virt. eigenvalues --   13.45200  25.71941  29.48804  29.51778  30.02535
  Beta virt. eigenvalues --   30.41929  30.75150  85.99147 149.91468 149.93439
  Beta virt. eigenvalues --  455.92383
          Condensed to atoms (all electrons):
               1          2          3          4          5          6
     1  C    5.071357   0.528576  -0.086755   0.401142   0.442390  -0.001340
     2  S    0.528576  14.912753   0.528578  -0.054357  -0.018484  -0.018484
     3  C   -0.086755   0.528578   5.071301   0.004150  -0.001339   0.442389
     4  H    0.401142  -0.054357   0.004150   0.479928  -0.005313  -0.000684
     5  H    0.442390  -0.018484  -0.001339  -0.005313   0.488610  -0.000974
     6  H   -0.001340  -0.018484   0.442389  -0.000684  -0.000974   0.488604
     7  H    0.004149  -0.054360   0.401142  -0.000673  -0.000684  -0.005308
               7
     1  C    0.004149
     2  S   -0.054360
     3  C    0.401142
     4  H   -0.000673
     5  H   -0.000684
     6  H   -0.005308
     7  H    0.479918
          Atomic-Atomic Spin Densities.
               1          2          3          4          5          6
     1  C    0.000000   0.000000   0.000000   0.000000   0.000000   0.000000
     2  S    0.000000   0.000000   0.000000   0.000000   0.000000   0.000000
     3  C    0.000000   0.000000   0.000000   0.000000   0.000000   0.000000
     4  H    0.000000   0.000000   0.000000   0.000000   0.000000   0.000000
     5  H    0.000000   0.000000   0.000000   0.000000   0.000000   0.000000
     6  H    0.000000   0.000000   0.000000   0.000000   0.000000   0.000000
     7  H    0.000000   0.000000   0.000000   0.000000   0.000000   0.000000
               7
     1  C    0.000000
     2  S    0.000000
     3  C    0.000000
     4  H    0.000000
     5  H    0.000000
     6  H    0.000000
     7  H    0.000000
 Mulliken charges and spin densities:
               1          2
     1  C   -0.359521   0.000000
     2  S    0.175777   0.000000
     3  C   -0.359467   0.000000
     4  H    0.175806   0.000000
     5  H    0.095793   0.000000
     6  H    0.095795   0.000000
     7  H    0.175816   0.000000
 Sum of Mulliken charges =  -0.00000   0.00000
 Mulliken charges and spin densities with hydrogens summed into heavy atoms:
               1          2
     1  C   -0.087921   0.000000
     2  S    0.175777   0.000000
     3  C   -0.087856   0.000000
 Electronic spatial extent (au):  <R**2>=            871.9794
 Charge=              0.0000 electrons
 Dipole moment (field-independent basis, Debye):
    X=             -0.1611    Y=              0.0815    Z=             -0.2149  Tot=              0.2807
 Quadrupole moment (field-independent basis, Debye-Ang):
   XX=            -25.6510   YY=            -29.0926   ZZ=            -25.4664
   XY=              0.4243   XZ=             -0.2240   YZ=             -1.9465
 Traceless Quadrupole moment (field-independent basis, Debye-Ang):
   XX=              1.0857   YY=             -2.3559   ZZ=              1.2703
   XY=              0.4243   XZ=             -0.2240   YZ=             -1.9465
 Octapole moment (field-independent basis, Debye-Ang**2):
  XXX=           -175.2358  YYY=            -21.9332  ZZZ=             26.4756  XYY=            -67.3103
  XXY=             -3.9397  XXZ=              7.7093  XZZ=            -61.9444  YZZ=             -3.8349
  YYZ=              9.8914  XYZ=             -3.3110
 Hexadecapole moment (field-independent basis, Debye-Ang**3):
 XXXX=           -963.9976 YYYY=            -72.4246 ZZZZ=           -122.6843 XXXY=            -47.1458
 XXXZ=             81.2365 YYYX=            -72.6142 YYYZ=             26.7530 ZZZX=             93.0403
 ZZZY=             16.0428 XXYY=           -199.2193 XXZZ=           -197.4795 YYZZ=            -31.0148
 XXYZ=             -1.8611 YYXZ=             33.8361 ZZXY=            -12.7431
 N-N= 1.003080120317D+02 E-N=-1.327837868992D+03  KE= 4.752646247656D+02
                          Isotropic Fermi Contact Couplings
        Atom                 a.u.       MegaHertz       Gauss      10(-4) cm-1
     1  C(13)              0.00000       0.00000       0.00000       0.00000
     2  S(33)              0.00000       0.00000       0.00000       0.00000
     3  C(13)              0.00000       0.00000       0.00000       0.00000
     4  H(1)               0.00000       0.00000       0.00000       0.00000
     5  H(1)               0.00000       0.00000       0.00000       0.00000
     6  H(1)               0.00000       0.00000       0.00000       0.00000
     7  H(1)               0.00000       0.00000       0.00000       0.00000
 --------------------------------------------------------
       Center         ----  Spin Dipole Couplings  ----
                      3XX-RR        3YY-RR        3ZZ-RR
 --------------------------------------------------------
     1   Atom        0.000000      0.000000      0.000000
     2   Atom        0.000000      0.000000      0.000000
     3   Atom        0.000000      0.000000      0.000000
     4   Atom        0.000000      0.000000      0.000000
     5   Atom        0.000000      0.000000      0.000000
     6   Atom        0.000000      0.000000      0.000000
     7   Atom        0.000000      0.000000      0.000000
 --------------------------------------------------------
                        XY            XZ            YZ
 --------------------------------------------------------
     1   Atom        0.000000      0.000000      0.000000
     2   Atom        0.000000      0.000000      0.000000
     3   Atom        0.000000      0.000000      0.000000
     4   Atom        0.000000      0.000000      0.000000
     5   Atom        0.000000      0.000000      0.000000
     6   Atom        0.000000      0.000000      0.000000
     7   Atom        0.000000      0.000000      0.000000
 --------------------------------------------------------


 ---------------------------------------------------------------------------------
              Anisotropic Spin Dipole Couplings in Principal Axis System
 ---------------------------------------------------------------------------------

       Atom             a.u.   MegaHertz   Gauss  10(-4) cm-1        Axes

              Baa     0.0000     0.000     0.000     0.000  1.0000  0.0000  0.0000
     1 C(13)  Bbb     0.0000     0.000     0.000     0.000 -0.0000  1.0000  0.0000
              Bcc     0.0000     0.000     0.000     0.000  0.0000  0.0000  1.0000
 
              Baa     0.0000     0.000     0.000     0.000  1.0000  0.0000  0.0000
     2 S(33)  Bbb     0.0000     0.000     0.000     0.000 -0.0000  1.0000  0.0000
              Bcc     0.0000     0.000     0.000     0.000  0.0000  0.0000  1.0000
 
              Baa     0.0000     0.000     0.000     0.000  1.0000  0.0000  0.0000
     3 C(13)  Bbb     0.0000     0.000     0.000     0.000 -0.0000  1.0000  0.0000
              Bcc     0.0000     0.000     0.000     0.000  0.0000  0.0000  1.0000
 
              Baa     0.0000     0.000     0.000     0.000  1.0000  0.0000  0.0000
     4 H(1)   Bbb     0.0000     0.000     0.000     0.000 -0.0000  1.0000  0.0000
              Bcc     0.0000     0.000     0.000     0.000  0.0000  0.0000  1.0000
 
              Baa     0.0000     0.000     0.000     0.000  1.0000  0.0000  0.0000
     5 H(1)   Bbb     0.0000     0.000     0.000     0.000 -0.0000  1.0000  0.0000
              Bcc     0.0000     0.000     0.000     0.000  0.0000  0.0000  1.0000
 
              Baa     0.0000     0.000     0.000     0.000  1.0000  0.0000  0.0000
     6 H(1)   Bbb     0.0000     0.000     0.000     0.000 -0.0000  1.0000  0.0000
              Bcc     0.0000     0.000     0.000     0.000  0.0000  0.0000  1.0000
 
              Baa     0.0000     0.000     0.000     0.000  1.0000  0.0000  0.0000
     7 H(1)   Bbb     0.0000     0.000     0.000     0.000 -0.0000  1.0000  0.0000
              Bcc     0.0000     0.000     0.000     0.000  0.0000  0.0000  1.0000
 

 ---------------------------------------------------------------------------------

 No NMR shielding tensors so no spin-rotation constants.
 Leave Link  601 at Tue Jan  3 09:11:06 2023, MaxMem=   536870912 cpu:               0.7 elap:               0.4
 (Enter /opt/software/gaussian/g16.c01/l801.exe)
 Range of M.O.s used for correlation:     1   337
 NBasis=   337 NAE=    16 NBE=    16 NFC=     0 NFV=     0
 NROrb=    337 NOA=    16 NOB=    16 NVA=   321 NVB=   321

 **** Warning!!: The largest alpha MO coefficient is  0.12054334D+03


 **** Warning!!: The largest beta MO coefficient is  0.12054334D+03

 Leave Link  801 at Tue Jan  3 09:11:06 2023, MaxMem=   536870912 cpu:               0.1 elap:               0.0
 (Enter /opt/software/gaussian/g16.c01/l914.exe)
 UHF ground state
 Doing stability rather than CIS.
 Two-electron integral symmetry not used.
 MDV=   536870912 DFT=F DoStab=T Mixed=F DoRPA=F DoScal=F NonHer=F
 Making orbital integer symmetry assigments:
 FoFJK:  IHMeth= 1 ICntrl=       0 DoSepK=F KAlg= 0 I1Cent=           0 FoldK=F
 IRaf=         0 NMat=       2 IRICut=       1 DoRegI=T DoRafI=F ISym2E= 0 IDoP0=0 IntGTp=1.
 FoFCou: FMM=F IPFlag=           0 FMFlag=      100000 FMFlg1=           0
         NFxFlg=           0 DoJE=F BraDBF=F KetDBF=F FulRan=T
         wScrn=  0.000000 ICntrl=         0 IOpCl=  1 I1Cent=           0 NGrid=           0
         NMat0=    2 NMatS0=      2 NMatT0=    0 NMatD0=    2 NMtDS0=    0 NMtDT0=    0
 Symmetry not used in FoFCou.
    12 initial guesses have been made.
 Convergence on wavefunction:    0.001000000000000
 Davidson Disk Diagonalization:  ConvIn= 1.00D-03 SkipCon=T Conv= 1.00D-03.
 Max sub-space:  2000 roots to seek:    12 dimension of matrix:        10272
 Iteration     1 Dimension    12 NMult     0 NNew     12
 CISAX will form    12 AO SS matrices at one time.
 NMat=    12 NSing=    12 JSym2X= 0.
 New state      1 was old state      2
 Excitation Energies [eV] at current iteration:
 Root      1 :    -0.778420881374501
 Root      2 :     4.800283075518575
 Root      3 :     5.149230106511832
 Root      4 :     5.563051899030494
 Root      5 :     5.608878845610074
 Root      6 :     5.645483906892598
 Root      7 :     5.671163774309345
 Root      8 :     5.874360840818722
 Root      9 :     6.215158092543006
 Root     10 :     6.411765185287359
 Root     11 :     6.882904459671872
 Root     12 :     8.207265644825190
 Iteration     2 Dimension    24 NMult    12 NNew     12
 CISAX will form    12 AO SS matrices at one time.
 NMat=    12 NSing=    12 JSym2X= 0.
 Root      1 not converged, maximum delta is    0.073708302299168
 Excitation Energies [eV] at current iteration:
 Root      1 :    -1.978927028428345   Change is   -1.200506147053844
 Root      2 :     4.236928288240470   Change is   -3.970337356584720
 Root      3 :     4.328508526258369   Change is   -0.471774549260206
 Root      4 :     4.592102358652760   Change is   -1.016776486957314
 Root      5 :     4.973675599176218   Change is   -0.175554507335613
 Root      6 :     5.146372421621477   Change is   -1.068785670921529
 Root      7 :     5.375315964647355   Change is   -0.187735934383139
 Root      8 :     5.452445923641180   Change is   -0.959319261646178
 Root      9 :     5.453415511820907   Change is   -0.217748262488438
 Root     10 :     5.521135180970262   Change is   -0.124348725922336
 Root     11 :     5.839154530013250   Change is   -0.035206310805473
 Root     12 :     6.115008909404051   Change is   -0.767895550267822
 Iteration     3 Dimension    27 NMult    24 NNew      3
 CISAX will form     3 AO SS matrices at one time.
 NMat=     3 NSing=     3 JSym2X= 0.
 Root      1 not converged, maximum delta is    0.010327986357876
 Excitation Energies [eV] at current iteration:
 Root      1 :    -2.030223076923621   Change is   -0.051296048495276
 Root      2 :     4.049792699920217   Change is   -0.187135588320254
 Root      3 :     4.244449393477568   Change is   -0.084059132780801
 Iteration     4 Dimension    30 NMult    27 NNew      3
 CISAX will form     3 AO SS matrices at one time.
 NMat=     3 NSing=     3 JSym2X= 0.
 Root      1 not converged, maximum delta is    0.002573255703988
 Excitation Energies [eV] at current iteration:
 Root      1 :    -2.034472800789654   Change is   -0.004249723866033
 Root      2 :     4.028184311847151   Change is   -0.021608388073065
 Root      3 :     4.206017622736791   Change is   -0.038431770740776
 Iteration     5 Dimension    33 NMult    30 NNew      3
 CISAX will form     3 AO SS matrices at one time.
 NMat=     3 NSing=     3 JSym2X= 0.
 Root      1 has converged.
 Excitation Energies [eV] at current iteration:
 Root      1 :    -2.034736418933451   Change is   -0.000263618143797
 Root      2 :     4.025442123212645   Change is   -0.002742188634506
 Root      3 :     4.199330886132316   Change is   -0.006686736604476
 Convergence achieved on expansion vectors.
 ***********************************************************************
 Stability analysis using <AA,BB:AA,BB> singles matrix:
 ***********************************************************************
 1PDM for each excited state written to RWF  633
 Ground to excited state transition densities written to RWF  633

 Eigenvectors of the stability matrix:
 
 Excited state symmetry could not be determined.
 Eigenvector   1:  3.000-?Sym  Eigenvalue=-0.0747752  <S**2>=2.000
     16A -> 19A        0.48425
     16A -> 21A       -0.42249
     16A -> 28A       -0.15935
     16A -> 36A       -0.11939
     16B -> 19B       -0.48425
     16B -> 21B        0.42249
     16B -> 28B        0.15935
     16B -> 36B        0.11939
 The wavefunction has an internal instability.
 Leave Link  914 at Tue Jan  3 09:20:40 2023, MaxMem=   536870912 cpu:            1147.6 elap:             574.0
 (Enter /opt/software/gaussian/g16.c01/l508.exe)
 Two-electron integral symmetry not used.
 Very tight linear equation convergence will be used.
 UHF wavefunction.
 Quadratic Convergence SCF Method.
 Line search only if initial step raises energy.
 Fock matrices will be formed incrementally for  20 cycles.
 Perform preliminary linear searches along instability eigenvector.
     ILin= 1 X=0.000D+00 Y=-4.755465483918D+02 DE= 0.00D+00
 FoFJK:  IHMeth= 1 ICntrl=       0 DoSepK=F KAlg= 0 I1Cent=           0 FoldK=F
 IRaf= 970000000 NMat=       1 IRICut=       1 DoRegI=T DoRafI=F ISym2E= 0 IDoP0=0 IntGTp=1.
 FoFCou: FMM=F IPFlag=           0 FMFlag=      100000 FMFlg1=           0
         NFxFlg=           0 DoJE=F BraDBF=F KetDBF=F FulRan=T
         wScrn=  0.000000 ICntrl=         0 IOpCl=  1 I1Cent=           0 NGrid=           0
         NMat0=    1 NMatS0=      1 NMatT0=    0 NMatD0=    1 NMtDS0=    0 NMtDT0=    0
 Symmetry not used in FoFCou.
     ILin= 2 X=1.000D-01 Y=-4.755472839569D+02 DE=-7.36D-04
     ILin= 3 X=1.414D-01 Y=-4.755479954914D+02 DE=-1.45D-03
     ILin= 4 X=2.000D-01 Y=-4.755493472463D+02 DE=-2.80D-03
     ILin= 5 X=2.828D-01 Y=-4.755517708885D+02 DE=-5.22D-03
     ILin= 6 X=4.000D-01 Y=-4.755555409852D+02 DE=-8.99D-03
     ILin= 7 X=5.657D-01 Y=-4.755590970558D+02 DE=-1.25D-02
     ILin= 8 X=8.000D-01 Y=-4.755526614451D+02 DE=-6.11D-03
     Reject polynomial IMin12=  6  7 Big=T Turn=T Min=-6.701D-01 FVal=-4.755608920178D+02 Lims=  4.00D-01  8.00D-01
     ILin= 9 X=1.131D+00 Y=-4.755017108127D+02 DE= 4.48D-02
     Reject polynomial IMin12=  6  7 Big=T Turn=T Min=-6.240D-01 FVal=-4.755598834069D+02 Lims=  4.00D-01  8.00D-01
     ILin=10 X=1.600D+00 Y=-4.753377131884D+02 DE= 2.09D-01
     An  expanding polynomial of degree 10 produced  0.5976
 Iteration F X= 5.976D-01 EE=-4.755592214662958D+02
     ILin= 1 X=0.000D+00 Y=-4.755465483918D+02 DE= 0.00D+00
     ILin= 2 X=1.000D-01 Y=-4.755472839495D+02 DE=-7.36D-04
     ILin= 3 X=1.414D-01 Y=-4.755479954706D+02 DE=-1.45D-03
 The two search directions are symmetric.
 Iteration B X= 5.976D-01 EE=-4.755592214662958D+02
 Take forward step, X= 5.976D-01 Step= 5.976D-01
 Iteration   1 EE= -475.559221455997                                    Grad=4.834D-02 Max rot=    0.6432 deg.
 Gradient too large for Newton-Raphson -- use scaled steepest descent instead.
 Alpha Gap=     0.369 HL deriv= 1.37D-05
  Beta Gap=     0.369 HL deriv= 5.38D-07
     ILin= 1 X=0.000D+00 Y=-4.755592214560D+02 DE= 0.00D+00 F= -4.79D-03
 RMSU=  4.81D-05    CP:  1.00D+00
     ILin= 2 X=3.000D-01 Y=-4.755605179552D+02 DE=-1.30D-03 F= -3.85D-03 OKLS=F
 RMSU=  1.01D-06    CP:  1.00D+00  2.00D+00
     ILin= 3 X=6.000D-01 Y=-4.755615305572D+02 DE=-2.31D-03 F= -2.90D-03
 RMSU=  4.83D-05    CP:  1.00D+00  3.00D+00  3.00D+00
     ILin= 4 X=1.200D+00 Y=-4.755627028552D+02 DE=-3.48D-03 F= -1.01D-03
 RMSU=  9.76D-05    CP:  1.00D+00  3.00D+00  3.00D+00  3.00D+00
     ILin= 5 X=2.400D+00 Y=-4.755616309682D+02 DE=-2.41D-03 F=  2.79D-03
     An  expanding polynomial of degree  5 produced  1.5178
 RMSU=  1.10D-06    CP:  1.00D+00  3.00D+00  3.00D+00  2.06D+00  1.17D-03
 Iteration   2 EE= -475.562862606478     Delta-E=       -0.003641150481 Grad=2.412D-02 Max rot=    0.2802 deg.
 Gradient too large for Newton-Raphson -- use scaled steepest descent instead.
 Alpha Gap=     0.365 HL deriv= 4.42D-07
  Beta Gap=     0.365 HL deriv= 1.19D-06
     ILin= 1 X=0.000D+00 Y=-4.755628626065D+02 DE= 0.00D+00 F= -1.17D-03
 RMSU=  5.09D-05    CP:  1.00D+00  3.00D+00  3.00D+00  1.62D+00  1.59D-03
                    CP:  1.58D+00
     ILin= 2 X=7.000D-01 Y=-4.755634644080D+02 DE=-6.02D-04 F= -5.44D-04 OKLS=F
 RMSU=  6.00D-07    CP:  1.00D+00  3.00D+00  3.00D+00  1.25D+00  2.99D-03
                    CP:  2.97D+00  1.86D+00
     ILin= 3 X=1.300D+00 Y=-4.755636275837D+02 DE=-7.65D-04 F=  5.23D-07
     Accept linear search using points  2 and  3.
     An  expanding polynomial of degree  3 produced  1.2932
     Minimum is close to point  3 DX= -6.79D-03 DF= -3.01D-09 DXR=  5.25D-03 DFR=  3.93D-06 which will be used.
 Iteration   3 EE= -475.563627583660     Delta-E=       -0.000764977182 Grad=2.174D-02 Max rot=    0.1557 deg.
 Gradient too large for Newton-Raphson -- use scaled steepest descent instead.
 Alpha Gap=     0.373 HL deriv= 1.15D-06
  Beta Gap=     0.373 HL deriv= 3.74D-07
     ILin= 1 X=0.000D+00 Y=-4.755636275837D+02 DE= 0.00D+00 F= -7.00D-04
 RMSU=  4.61D-05    CP:  1.00D+00  3.00D+00  3.00D+00  2.09D+00  5.72D-03
                    CP:  3.00D+00  2.03D+00 -3.00D+00
     ILin= 2 X=1.400D+00 Y=-4.755639899435D+02 DE=-3.62D-04 F=  1.82D-04 OKLS=T
     Accept linear search using points  1 and  2.
     An  expanding polynomial of degree  2 produced  1.2273
 RMSU=  2.96D-07    CP:  1.00D+00  3.00D+00  3.00D+00  1.98D+00  5.34D-03
                    CP:  3.00D+00  2.00D+00 -3.00D+00  8.76D-01
 Iteration   4 EE= -475.564012000027     Delta-E=       -0.000384416367 Grad=1.588D-02 Max rot=    0.1637 deg.
 Gradient too large for Newton-Raphson -- use scaled steepest descent instead.
 Alpha Gap=     0.370 HL deriv= 4.21D-07
  Beta Gap=     0.370 HL deriv= 5.86D-07
     ILin= 1 X=0.000D+00 Y=-4.755640120000D+02 DE= 0.00D+00 F= -4.59D-04
 RMSU=  2.58D-05    CP:  1.00D+00  3.00D+00  3.00D+00  2.04D+00  8.17D-03
                    CP:  3.00D+00  2.67D+00  2.08D-01  6.76D-01 -2.41D+00
     ILin= 2 X=1.300D+00 Y=-4.755642333347D+02 DE=-2.21D-04 F=  1.18D-04 OKLS=T
     Accept linear search using points  1 and  2.
     An  expanding polynomial of degree  2 produced  1.1210
 RMSU=  4.93D-08    CP:  1.00D+00  3.00D+00  3.00D+00  2.03D+00  7.75D-03
                    CP:  3.00D+00  2.58D+00 -2.98D-01  7.04D-01 -1.90D+00
                    CP:  8.62D-01
 Iteration   5 EE= -475.564247385822     Delta-E=       -0.000235385794 Grad=1.260D-02 Max rot=    0.0915 deg.
 Gradient too large for Newton-Raphson -- use scaled steepest descent instead.
 Alpha Gap=     0.375 HL deriv= 3.53D-07
  Beta Gap=     0.375 HL deriv= 2.28D-07
     ILin= 1 X=0.000D+00 Y=-4.755642473858D+02 DE= 0.00D+00 F= -2.44D-04
 RMSU=  9.41D-06    CP:  1.00D+00  3.00D+00  3.00D+00  2.36D+00  1.03D-02
                    CP:  3.00D+00  2.75D+00 -2.13D+00  1.21D+00 -1.89D+00
                    CP:  7.48D-01 -3.00D+00
     ILin= 2 X=1.200D+00 Y=-4.755643834629D+02 DE=-1.36D-04 F=  1.67D-05 OKLS=T
     Accept linear search using points  1 and  2.
     An  expanding polynomial of degree  2 produced  1.1500
     Minimum is close to point  2 DX= -5.00D-02 DF= -3.46D-07 DXR=  4.35D-02 DFR=  2.55D-03 which will be used.
 Iteration   6 EE= -475.564383462920     Delta-E=       -0.000136077099 Grad=8.967D-03 Max rot=    0.0965 deg.
 QCNR:  CnvC1=1.01D-09 CnvC2=1.01D-08
 LinEq1:  Iter=  0 NonCon=     1 RMS=1.09D-04 Max=5.74D-03 NDo=     1
 AX will form     1 AO Fock derivatives at one time.
 LinEq1:  Iter=  1 NonCon=     1 RMS=5.89D-05 Max=1.69D-03 NDo=     1
 LinEq1:  Iter=  2 NonCon=     1 RMS=3.19D-06 Max=9.85D-05 NDo=     1
 LinEq1:  Iter=  3 NonCon=     1 RMS=7.76D-07 Max=1.35D-05 NDo=     1
 LinEq1:  Iter=  4 NonCon=     1 RMS=2.85D-07 Max=5.00D-06 NDo=     1
 LinEq1:  Iter=  5 NonCon=     1 RMS=5.23D-08 Max=9.54D-07 NDo=     1
 LinEq1:  Iter=  6 NonCon=     1 RMS=1.78D-08 Max=5.74D-07 NDo=     1
 LinEq1:  Iter=  7 NonCon=     1 RMS=6.46D-09 Max=1.44D-07 NDo=     1
 LinEq1:  Iter=  8 NonCon=     1 RMS=1.43D-09 Max=1.99D-08 NDo=     1
 LinEq1:  Iter=  9 NonCon=     0 RMS=3.06D-10 Max=6.48D-09 NDo=     1
 Linear equations converged to 1.014D-09 1.014D-08 after     9 iterations.
 Angle between quadratic step and gradient=  57.91 degrees.
     ILin= 1 X=0.000D+00 Y=-4.755643834629D+02 DE= 0.00D+00 F= -3.84D-04
 RMSU=  3.86D-05    CP:  1.00D+00  3.00D+00  3.00D+00  2.94D+00  1.79D-02
                    CP:  3.00D+00  3.00D+00  8.72D-01  1.70D+00 -3.00D+00
                    CP:  1.90D+00 -3.00D+00  2.32D+00
     ILin= 2 X=1.000D+00 Y=-4.755645696234D+02 DE=-1.86D-04 F=  1.72D-05 OKLS=T
     Accept linear search using points  1 and  2.
     An  expanding polynomial of degree  2 produced  0.9587
     Minimum is close to point  2 DX= -4.13D-02 DF= -3.55D-07 DXR=  4.30D-02 DFR=  1.91D-03 which will be used.
 Iteration   7 EE= -475.564569623372     Delta-E=       -0.000186160452 Grad=3.237D-04 Max rot=    0.0075 deg.
 QCNR:  CnvC1=1.01D-09 CnvC2=1.01D-08
 LinEq1:  Iter=  0 NonCon=     1 RMS=5.65D-06 Max=3.09D-04 NDo=     1
 LinEq1:  Iter=  1 NonCon=     1 RMS=1.12D-06 Max=5.25D-05 NDo=     1
 LinEq1:  Iter=  2 NonCon=     1 RMS=3.94D-07 Max=9.15D-06 NDo=     1
 LinEq1:  Iter=  3 NonCon=     1 RMS=9.06D-08 Max=2.96D-06 NDo=     1
 LinEq1:  Iter=  4 NonCon=     1 RMS=2.38D-08 Max=4.34D-07 NDo=     1
 LinEq1:  Iter=  5 NonCon=     1 RMS=7.95D-09 Max=1.47D-07 NDo=     1
 LinEq1:  Iter=  6 NonCon=     1 RMS=2.03D-09 Max=3.11D-08 NDo=     1
 LinEq1:  Iter=  7 NonCon=     1 RMS=5.88D-10 Max=1.03D-08 NDo=     1
 LinEq1:  Iter=  8 NonCon=     0 RMS=1.50D-10 Max=3.09D-09 NDo=     1
 Linear equations converged to 1.014D-09 1.014D-08 after     8 iterations.
 Angle between quadratic step and gradient=  33.89 degrees.
     ILin= 1 X=0.000D+00 Y=-4.755645696234D+02 DE= 0.00D+00 F= -1.08D-06
 RMSU=  8.74D-07    CP:  1.00D+00  3.00D+00  3.00D+00  2.91D+00  1.74D-02
                    CP:  3.00D+00  3.00D+00  7.71D-01  1.67D+00 -3.00D+00
                    CP:  1.83D+00 -3.00D+00  2.17D+00  9.53D-01
     ILin= 2 X=1.000D+00 Y=-4.755645701660D+02 DE=-5.43D-07 F= -3.72D-09 OKLS=T
     Reject lnstep IMin12=  1  2 Big=T Turn=F Min= 1.003D+00 FVal=-4.755645701660D+02 Lims=  0.00D+00  1.00D+00
 RMSU=  6.56D-09    CP:  1.00D+00  3.00D+00  3.00D+00  2.89D+00  1.69D-02
                    CP:  3.00D+00  3.00D+00  6.76D-01  1.64D+00 -3.00D+00
                    CP:  1.76D+00 -3.00D+00  2.03D+00  9.07D-01  2.00D+00
     ILin= 3 X=2.000D+00 Y=-4.755645696333D+02 DE=-9.91D-09 F=  1.07D-06
     An  expanding polynomial of degree  3 produced  1.0046
     Minimum is close to point  2 DX=  4.61D-03 DF= -1.14D-11 DXR=  4.59D-03 DFR=  2.11D-05 which will be used.
 Iteration   8 EE= -475.564570166012     Delta-E=       -0.000000542640 Grad=1.664D-06 Max rot=    0.0000 deg.
 QCNR:  CnvC1=1.66D-11 CnvC2=1.66D-10
 LinEq1:  Iter=  0 NonCon=     1 RMS=1.97D-08 Max=1.16D-06 NDo=     1
 LinEq1:  Iter=  1 NonCon=     1 RMS=3.86D-09 Max=9.50D-08 NDo=     1
 LinEq1:  Iter=  2 NonCon=     1 RMS=1.88D-09 Max=8.81D-08 NDo=     1
 LinEq1:  Iter=  3 NonCon=     1 RMS=4.59D-10 Max=1.23D-08 NDo=     1
 LinEq1:  Iter=  4 NonCon=     1 RMS=1.79D-10 Max=4.36D-09 NDo=     1
 LinEq1:  Iter=  5 NonCon=     1 RMS=4.15D-11 Max=7.85D-10 NDo=     1
 LinEq1:  Iter=  6 NonCon=     1 RMS=1.71D-11 Max=3.41D-10 NDo=     1
 LinEq1:  Iter=  7 NonCon=     0 RMS=3.70D-12 Max=4.46D-11 NDo=     1
 Linear equations converged to 1.664D-11 1.664D-10 after     7 iterations.
 Angle between quadratic step and gradient=  55.80 degrees.
     ILin= 1 X=0.000D+00 Y=-4.755645701660D+02 DE= 0.00D+00 F= -1.37D-11
 RMSU=  4.04D-09    CP:  1.00D+00  3.00D+00  3.00D+00  2.91D+00  1.74D-02
                    CP:  3.00D+00  3.00D+00  7.72D-01  1.67D+00 -3.00D+00
                    CP:  1.83D+00 -3.00D+00  2.17D+00  9.53D-01  1.00D+00
                    CP: -1.42D-02
     ILin= 2 X=1.000D+00 Y=-4.755645701660D+02 DE=-1.01D-11
 Iteration   9 EE= -475.564570166022     Delta-E=       -0.000000000010 Grad=1.980D-08 Max rot=    0.0000 deg.
 Rotation gradient small -- convergence achieved.
 SCF Done:  E(UHF) =  -475.564570166     a.u. after    9 cycles
            Convg  =    0.1980D-07                    52 Fock formations.
              S**2 =  0.7236                  -V/T =  1.9999
 <Sx>= 0.0000 <Sy>= 0.0000 <Sz>= 0.0000 <S**2>= 0.7236 S= 0.4867
 <L.S>=  0.00000000000    
 Annihilation of the first spin contaminant:
 S**2 before annihilation     0.7236,   after     0.1427
 Leave Link  508 at Tue Jan  3 09:46:04 2023, MaxMem=   536870912 cpu:            3045.6 elap:            1523.1
 (Enter /opt/software/gaussian/g16.c01/l801.exe)
 Range of M.O.s used for correlation:     1   337
 NBasis=   337 NAE=    16 NBE=    16 NFC=     0 NFV=     0
 NROrb=    337 NOA=    16 NOB=    16 NVA=   321 NVB=   321

 **** Warning!!: The largest alpha MO coefficient is  0.12133950D+03


 **** Warning!!: The largest beta MO coefficient is  0.12133351D+03

 Leave Link  801 at Tue Jan  3 09:46:04 2023, MaxMem=   536870912 cpu:               0.1 elap:               0.0
 (Enter /opt/software/gaussian/g16.c01/l914.exe)
 UHF ground state
 Doing stability rather than CIS.
 Two-electron integral symmetry not used.
 MDV=   536870912 DFT=F DoStab=T Mixed=F DoRPA=F DoScal=F NonHer=F
 Making orbital integer symmetry assigments:
 FoFJK:  IHMeth= 1 ICntrl=       0 DoSepK=F KAlg= 0 I1Cent=           0 FoldK=F
 IRaf=         0 NMat=       2 IRICut=       1 DoRegI=T DoRafI=F ISym2E= 0 IDoP0=0 IntGTp=1.
 FoFCou: FMM=F IPFlag=           0 FMFlag=      100000 FMFlg1=           0
         NFxFlg=           0 DoJE=F BraDBF=F KetDBF=F FulRan=T
         wScrn=  0.000000 ICntrl=         0 IOpCl=  1 I1Cent=           0 NGrid=           0
         NMat0=    2 NMatS0=      2 NMatT0=    0 NMatD0=    2 NMtDS0=    0 NMtDT0=    0
 Symmetry not used in FoFCou.
    12 initial guesses have been made.
 Convergence on wavefunction:    0.001000000000000
 Davidson Disk Diagonalization:  ConvIn= 1.00D-03 SkipCon=T Conv= 1.00D-03.
 Max sub-space:  2000 roots to seek:    12 dimension of matrix:        10272
 Iteration     1 Dimension    12 NMult     0 NNew     12
 CISAX will form    12 AO SS matrices at one time.
 NMat=    12 NSing=    12 JSym2X= 0.
 Excitation Energies [eV] at current iteration:
 Root      1 :     4.236973513452931
 Root      2 :     5.782777615356186
 Root      3 :     5.795456837303188
 Root      4 :     6.180229335682515
 Root      5 :     6.417726526595164
 Root      6 :     6.445306438028272
 Root      7 :     6.589414994160578
 Root      8 :     6.647011528859015
 Root      9 :     6.741434631783251
 Root     10 :     7.122799729937141
 Root     11 :     7.207068900518124
 Root     12 :     7.724523271912449
 Iteration     2 Dimension    24 NMult    12 NNew     12
 CISAX will form    12 AO SS matrices at one time.
 NMat=    12 NSing=    12 JSym2X= 0.
 Root      1 not converged, maximum delta is    0.041645250309717
 Excitation Energies [eV] at current iteration:
 Root      1 :     3.299620623632888   Change is   -0.937352889820043
 Root      2 :     4.042227186952825   Change is   -2.138002148729690
 Root      3 :     5.344656038597579   Change is   -0.438121576758607
 Root      4 :     5.371301947586757   Change is   -0.424154889716431
 Root      5 :     5.777283622544271   Change is   -0.812131371616308
 Root      6 :     5.970391542053162   Change is   -0.771043089730089
 Root      7 :     6.232220237336707   Change is   -0.185506289258457
 Root      8 :     6.267463840460329   Change is   -0.177842597567943
 Root      9 :     6.417791469308945   Change is   -0.705008260628197
 Root     10 :     6.446346128665374   Change is   -0.200665400193642
 Root     11 :     6.552675357452052   Change is   -0.654393543066072
 Root     12 :     6.582203587963121   Change is   -1.142319683949328
 Iteration     3 Dimension    27 NMult    24 NNew      3
 CISAX will form     3 AO SS matrices at one time.
 NMat=     3 NSing=     3 JSym2X= 0.
 Root      1 not converged, maximum delta is    0.054728771429795
 Excitation Energies [eV] at current iteration:
 Root      1 :     3.068464927193961   Change is   -0.231155696438927
 Root      2 :     3.342939599972859   Change is   -0.699287586979966
 Root      3 :     5.230457296933523   Change is   -0.114198741664056
 Iteration     4 Dimension    30 NMult    27 NNew      3
 CISAX will form     3 AO SS matrices at one time.
 NMat=     3 NSing=     3 JSym2X= 0.
 Root      1 not converged, maximum delta is    0.010025980537443
 Excitation Energies [eV] at current iteration:
 Root      1 :     3.045614033844487   Change is   -0.022850893349474
 Root      2 :     3.245599719291850   Change is   -0.097339880681008
 Root      3 :     5.179127810921065   Change is   -0.051329486012458
 Iteration     5 Dimension    33 NMult    30 NNew      3
 CISAX will form     3 AO SS matrices at one time.
 NMat=     3 NSing=     3 JSym2X= 0.
 Root      1 not converged, maximum delta is    0.004629788607140
 Excitation Energies [eV] at current iteration:
 Root      1 :     3.040784742643290   Change is   -0.004829291201197
 Root      2 :     3.234311557934587   Change is   -0.011288161357263
 Root      3 :     5.139197115342740   Change is   -0.039930695578325
 Iteration     6 Dimension    36 NMult    33 NNew      3
 CISAX will form     3 AO SS matrices at one time.
 NMat=     3 NSing=     3 JSym2X= 0.
 Root      1 not converged, maximum delta is    0.001234667050494
 Excitation Energies [eV] at current iteration:
 Root      1 :     3.039795216092748   Change is   -0.000989526550542
 Root      2 :     3.232622414430981   Change is   -0.001689143503606
 Root      3 :     5.070736923082387   Change is   -0.068460192260354
 Iteration     7 Dimension    39 NMult    36 NNew      3
 CISAX will form     3 AO SS matrices at one time.
 NMat=     3 NSing=     3 JSym2X= 0.
 Root      1 has converged.
 Excitation Energies [eV] at current iteration:
 Root      1 :     3.039609295170914   Change is   -0.000185920921835
 Root      2 :     3.232321044648503   Change is   -0.000301369782478
 Root      3 :     5.009398530456953   Change is   -0.061338392625433
 Convergence achieved on expansion vectors.
 ***********************************************************************
 Stability analysis using <AA,BB:AA,BB> singles matrix:
 ***********************************************************************
 1PDM for each excited state written to RWF  633
 Ground to excited state transition densities written to RWF  633

 Eigenvectors of the stability matrix:
 
 Excited state symmetry could not be determined.
 Eigenvector   1:  1.888-?Sym  Eigenvalue= 0.1117036  <S**2>=0.641
     16A -> 20A       -0.15483
     16A -> 21A        0.61229
     16A -> 30A       -0.12899
     16A -> 36A        0.16755
     16B -> 20B       -0.15437
     16B -> 21B        0.61135
     16B -> 30B       -0.12879
     16B -> 36B        0.16733
 The wavefunction is stable under the perturbations considered.
 Leave Link  914 at Tue Jan  3 09:57:19 2023, MaxMem=   536870912 cpu:            1350.2 elap:             675.2
 (Enter /opt/software/gaussian/g16.c01/l508.exe)
 The wavefunction is already stable.
 Leave Link  508 at Tue Jan  3 09:57:19 2023, MaxMem=   536870912 cpu:               0.0 elap:               0.0
 (Enter /opt/software/gaussian/g16.c01/l601.exe)
 Copying SCF densities to generalized density rwf, IOpCl= 1 IROHF=0.

 **********************************************************************

            Population analysis using the SCF Density.

 **********************************************************************

 Alpha  occ. eigenvalues --  -91.98880 -11.25098 -11.23198  -8.98969  -6.67190
 Alpha  occ. eigenvalues --   -6.67046  -6.67042  -1.11293  -0.93971  -0.76581
 Alpha  occ. eigenvalues --   -0.63492  -0.61852  -0.55512  -0.49374  -0.45212
 Alpha  occ. eigenvalues --   -0.31299
 Alpha virt. eigenvalues --    0.05140   0.05345   0.06184   0.06533   0.10161
 Alpha virt. eigenvalues --    0.10592   0.12088   0.14783   0.17226   0.17943
 Alpha virt. eigenvalues --    0.18988   0.19693   0.21073   0.21553   0.22895
 Alpha virt. eigenvalues --    0.24329   0.24828   0.25047   0.26308   0.26861
 Alpha virt. eigenvalues --    0.27496   0.29131   0.30121   0.32117   0.32229
 Alpha virt. eigenvalues --    0.33056   0.33452   0.33533   0.34985   0.35265
 Alpha virt. eigenvalues --    0.35366   0.36573   0.37510   0.37792   0.39876
 Alpha virt. eigenvalues --    0.40021   0.42954   0.43791   0.45757   0.46706
 Alpha virt. eigenvalues --    0.47665   0.47750   0.48402   0.49643   0.51842
 Alpha virt. eigenvalues --    0.51934   0.52622   0.56815   0.58132   0.59676
 Alpha virt. eigenvalues --    0.60730   0.60732   0.62895   0.63400   0.71586
 Alpha virt. eigenvalues --    0.72147   0.73562   0.75553   0.80196   0.80240
 Alpha virt. eigenvalues --    0.81700   0.83020   0.86324   0.87424   0.89267
 Alpha virt. eigenvalues --    0.90711   0.93051   0.98577   1.01148   1.02198
 Alpha virt. eigenvalues --    1.03181   1.04920   1.05978   1.06404   1.07534
 Alpha virt. eigenvalues --    1.08752   1.09183   1.16418   1.17158   1.19827
 Alpha virt. eigenvalues --    1.21802   1.23710   1.24912   1.28157   1.31633
 Alpha virt. eigenvalues --    1.32384   1.32748   1.34547   1.40049   1.40790
 Alpha virt. eigenvalues --    1.43498   1.47347   1.47777   1.48671   1.53642
 Alpha virt. eigenvalues --    1.56040   1.60142   1.60702   1.62768   1.65647
 Alpha virt. eigenvalues --    1.67761   1.70224   1.75288   1.80501   1.86366
 Alpha virt. eigenvalues --    1.94566   1.95925   2.04104   2.09119   2.11881
 Alpha virt. eigenvalues --    2.13821   2.17026   2.18839   2.19339   2.20281
 Alpha virt. eigenvalues --    2.20678   2.21615   2.26073   2.29136   2.29972
 Alpha virt. eigenvalues --    2.30962   2.32480   2.37734   2.41151   2.43980
 Alpha virt. eigenvalues --    2.45744   2.51801   2.54191   2.57491   2.59427
 Alpha virt. eigenvalues --    2.60497   2.61629   2.64472   2.67810   2.69975
 Alpha virt. eigenvalues --    2.70802   2.74189   2.82775   2.85012   2.86712
 Alpha virt. eigenvalues --    2.88798   2.91690   2.91836   2.92213   2.97343
 Alpha virt. eigenvalues --    2.98874   2.99706   3.01069   3.04396   3.07992
 Alpha virt. eigenvalues --    3.08650   3.10461   3.15270   3.17861   3.20753
 Alpha virt. eigenvalues --    3.23903   3.27676   3.32703   3.41168   3.41446
 Alpha virt. eigenvalues --    3.42515   3.50125   3.62122   3.63414   3.64391
 Alpha virt. eigenvalues --    3.66268   3.66563   3.66570   3.70949   3.71556
 Alpha virt. eigenvalues --    3.73074   3.74016   3.79944   3.83530   3.86364
 Alpha virt. eigenvalues --    3.88043   3.98740   4.01981   4.02471   4.04585
 Alpha virt. eigenvalues --    4.07230   4.11900   4.14436   4.15486   4.18593
 Alpha virt. eigenvalues --    4.26479   4.33980   4.35510   4.45939   4.46043
 Alpha virt. eigenvalues --    4.50477   4.65406   4.67635   4.98552   4.98938
 Alpha virt. eigenvalues --    5.37159   5.48018   5.60054   5.60612   5.64892
 Alpha virt. eigenvalues --    5.66728   5.67039   5.67700   5.69701   5.73300
 Alpha virt. eigenvalues --    5.74569   5.75466   5.81225   5.82309   5.94845
 Alpha virt. eigenvalues --    5.98892   6.13167   6.17489   6.19337   6.20027
 Alpha virt. eigenvalues --    6.20649   6.21398   6.27363   6.31607   6.32403
 Alpha virt. eigenvalues --    6.34916   6.38168   6.39076   6.41116   6.43763
 Alpha virt. eigenvalues --    6.56543   6.61765   6.62919   6.67807   6.71365
 Alpha virt. eigenvalues --    6.71491   6.71914   6.76125   6.80001   6.85140
 Alpha virt. eigenvalues --    6.85724   6.91995   7.02822   7.03326   7.10339
 Alpha virt. eigenvalues --    7.14859   7.18388   7.23140   7.24297   7.27792
 Alpha virt. eigenvalues --    7.51139   7.53981   7.56925   7.63941   7.66997
 Alpha virt. eigenvalues --    7.71787   7.72605   7.80604   7.82900   7.88508
 Alpha virt. eigenvalues --    7.89889   7.90858   7.93925   7.97242   7.97984
 Alpha virt. eigenvalues --    8.00099   8.03304   8.06202   8.13978   8.27422
 Alpha virt. eigenvalues --    8.32112   8.36364   8.43507   8.44462   8.52182
 Alpha virt. eigenvalues --    8.55139   8.56658   8.59262   8.59771   8.66656
 Alpha virt. eigenvalues --    8.68196   8.69238   8.72661   8.75165   8.77475
 Alpha virt. eigenvalues --    8.79533   8.82972   8.84267   8.84615   8.99292
 Alpha virt. eigenvalues --    8.99970   9.36886   9.37028   9.38402   9.41758
 Alpha virt. eigenvalues --    9.47724   9.49438   9.61493   9.99269  10.01811
 Alpha virt. eigenvalues --   10.10649  10.15871  10.20488  10.21206  10.21681
 Alpha virt. eigenvalues --   10.27642  10.28864  10.32946  10.81504  10.83586
 Alpha virt. eigenvalues --   10.90750  10.94425  12.29682  12.32026  13.35305
 Alpha virt. eigenvalues --   13.45099  25.75828  29.49006  29.52059  30.06864
 Alpha virt. eigenvalues --   30.45984  30.79140  86.03455 149.91844 149.93833
 Alpha virt. eigenvalues --  455.96940
  Beta  occ. eigenvalues --  -91.98879 -11.25099 -11.23197  -8.98969  -6.67190
  Beta  occ. eigenvalues --   -6.67046  -6.67042  -1.11292  -0.93972  -0.76580
  Beta  occ. eigenvalues --   -0.63492  -0.61852  -0.55512  -0.49374  -0.45212
  Beta  occ. eigenvalues --   -0.31301
  Beta virt. eigenvalues --    0.05140   0.05345   0.06184   0.06533   0.10161
  Beta virt. eigenvalues --    0.10592   0.12088   0.14783   0.17226   0.17943
  Beta virt. eigenvalues --    0.18988   0.19693   0.21073   0.21553   0.22895
  Beta virt. eigenvalues --    0.24329   0.24828   0.25047   0.26308   0.26861
  Beta virt. eigenvalues --    0.27496   0.29131   0.30121   0.32117   0.32229
  Beta virt. eigenvalues --    0.33056   0.33452   0.33533   0.34985   0.35265
  Beta virt. eigenvalues --    0.35366   0.36573   0.37510   0.37792   0.39876
  Beta virt. eigenvalues --    0.40021   0.42954   0.43791   0.45757   0.46706
  Beta virt. eigenvalues --    0.47665   0.47750   0.48402   0.49643   0.51842
  Beta virt. eigenvalues --    0.51934   0.52622   0.56815   0.58132   0.59676
  Beta virt. eigenvalues --    0.60730   0.60733   0.62895   0.63400   0.71586
  Beta virt. eigenvalues --    0.72147   0.73562   0.75553   0.80196   0.80240
  Beta virt. eigenvalues --    0.81700   0.83020   0.86324   0.87423   0.89267
  Beta virt. eigenvalues --    0.90711   0.93051   0.98577   1.01148   1.02198
  Beta virt. eigenvalues --    1.03181   1.04920   1.05978   1.06403   1.07535
  Beta virt. eigenvalues --    1.08752   1.09183   1.16418   1.17158   1.19827
  Beta virt. eigenvalues --    1.21802   1.23710   1.24911   1.28157   1.31633
  Beta virt. eigenvalues --    1.32384   1.32748   1.34547   1.40049   1.40791
  Beta virt. eigenvalues --    1.43498   1.47347   1.47777   1.48671   1.53642
  Beta virt. eigenvalues --    1.56040   1.60142   1.60702   1.62768   1.65648
  Beta virt. eigenvalues --    1.67761   1.70224   1.75288   1.80501   1.86367
  Beta virt. eigenvalues --    1.94566   1.95925   2.04104   2.09119   2.11881
  Beta virt. eigenvalues --    2.13821   2.17025   2.18839   2.19339   2.20280
  Beta virt. eigenvalues --    2.20679   2.21614   2.26073   2.29136   2.29971
  Beta virt. eigenvalues --    2.30962   2.32480   2.37734   2.41151   2.43979
  Beta virt. eigenvalues --    2.45744   2.51801   2.54191   2.57491   2.59424
  Beta virt. eigenvalues --    2.60500   2.61629   2.64472   2.67810   2.69974
  Beta virt. eigenvalues --    2.70803   2.74189   2.82775   2.85012   2.86711
  Beta virt. eigenvalues --    2.88798   2.91689   2.91837   2.92213   2.97343
  Beta virt. eigenvalues --    2.98874   2.99705   3.01069   3.04396   3.07992
  Beta virt. eigenvalues --    3.08650   3.10461   3.15270   3.17861   3.20753
  Beta virt. eigenvalues --    3.23903   3.27676   3.32703   3.41169   3.41446
  Beta virt. eigenvalues --    3.42515   3.50125   3.62122   3.63414   3.64391
  Beta virt. eigenvalues --    3.66267   3.66565   3.66570   3.70949   3.71556
  Beta virt. eigenvalues --    3.73074   3.74016   3.79944   3.83530   3.86364
  Beta virt. eigenvalues --    3.88043   3.98739   4.01982   4.02472   4.04585
  Beta virt. eigenvalues --    4.07230   4.11900   4.14436   4.15486   4.18594
  Beta virt. eigenvalues --    4.26479   4.33979   4.35509   4.45938   4.46044
  Beta virt. eigenvalues --    4.50478   4.65406   4.67635   4.98551   4.98939
  Beta virt. eigenvalues --    5.37158   5.48019   5.60053   5.60611   5.64892
  Beta virt. eigenvalues --    5.66728   5.67040   5.67699   5.69701   5.73300
  Beta virt. eigenvalues --    5.74568   5.75467   5.81227   5.82309   5.94843
[...]
   229    H    4  dx2y2  Ryd( 4d)     0.00000       8.56749
   230    H    4  dz2    Ryd( 3d)     0.00001       4.04819
   231    H    4  dz2    Ryd( 4d)     0.00000       9.02525
   232    H    4  f(0)   Ryd( 4f)     0.00000       7.11115
   233    H    4  f(C1)  Ryd( 4f)     0.00002       6.98520
   234    H    4  f(S1)  Ryd( 4f)     0.00002       6.94327
   235    H    4  f(C2)  Ryd( 4f)     0.00000       6.86321
   236    H    4  f(S2)  Ryd( 4f)     0.00001       6.78552
   237    H    4  f(C3)  Ryd( 4f)     0.00000       6.54112
   238    H    4  f(S3)  Ryd( 4f)     0.00000       6.53537
 
   239    H    5  S      Val( 1S)     0.37848       0.09906
   240    H    5  S      Ryd( 3S)     0.00030       1.88826
   241    H    5  S      Ryd( 2S)     0.00001       1.40132
   242    H    5  S      Ryd( 4S)     0.00000       5.78298
   243    H    5  px     Ryd( 2p)     0.00018       0.97573
   244    H    5  px     Ryd( 3p)     0.00004       2.81917
   245    H    5  px     Ryd( 4p)     0.00000       3.64830
   246    H    5  px     Ryd( 5p)     0.00000       7.98991
   247    H    5  py     Ryd( 2p)     0.00030       0.84785
   248    H    5  py     Ryd( 3p)     0.00021       2.41058
   249    H    5  py     Ryd( 4p)     0.00000       2.73494
   250    H    5  py     Ryd( 5p)     0.00000       7.81645
   251    H    5  pz     Ryd( 2p)     0.00049       1.07068
   252    H    5  pz     Ryd( 3p)     0.00012       2.76270
   253    H    5  pz     Ryd( 4p)     0.00001       4.37846
   254    H    5  pz     Ryd( 5p)     0.00000       8.06283
   255    H    5  dxy    Ryd( 3d)     0.00001       3.30852
   256    H    5  dxy    Ryd( 4d)     0.00000       8.59231
   257    H    5  dxz    Ryd( 3d)     0.00002       3.93853
   258    H    5  dxz    Ryd( 4d)     0.00000       8.99528
   259    H    5  dyz    Ryd( 3d)     0.00000       3.61000
   260    H    5  dyz    Ryd( 4d)     0.00000       8.75404
   261    H    5  dx2y2  Ryd( 3d)     0.00000       3.50950
   262    H    5  dx2y2  Ryd( 4d)     0.00000       8.66554
   263    H    5  dz2    Ryd( 3d)     0.00000       4.01724
   264    H    5  dz2    Ryd( 4d)     0.00000       8.93195
   265    H    5  f(0)   Ryd( 4f)     0.00000       7.05982
   266    H    5  f(C1)  Ryd( 4f)     0.00002       6.94456
   267    H    5  f(S1)  Ryd( 4f)     0.00001       6.89273
   268    H    5  f(C2)  Ryd( 4f)     0.00001       6.80569
   269    H    5  f(S2)  Ryd( 4f)     0.00001       6.74905
   270    H    5  f(C3)  Ryd( 4f)     0.00000       6.66642
   271    H    5  f(S3)  Ryd( 4f)     0.00000       6.63407
 
   272    H    6  S      Val( 1S)     0.42054       0.06839
   273    H    6  S      Ryd( 3S)     0.00027       1.88355
   274    H    6  S      Ryd( 2S)     0.00001       1.40145
   275    H    6  S      Ryd( 4S)     0.00000       5.78182
   276    H    6  px     Ryd( 2p)     0.00040       1.03557
   277    H    6  px     Ryd( 3p)     0.00006       2.62030
   278    H    6  px     Ryd( 4p)     0.00001       3.71251
   279    H    6  px     Ryd( 5p)     0.00000       7.98799
   280    H    6  py     Ryd( 2p)     0.00005       0.84239
   281    H    6  py     Ryd( 3p)     0.00008       2.44493
   282    H    6  py     Ryd( 4p)     0.00001       2.72657
   283    H    6  py     Ryd( 5p)     0.00000       7.81451
   284    H    6  pz     Ryd( 2p)     0.00029       1.02364
   285    H    6  pz     Ryd( 3p)     0.00010       2.92605
   286    H    6  pz     Ryd( 4p)     0.00001       4.32634
   287    H    6  pz     Ryd( 5p)     0.00000       8.05996
   288    H    6  dxy    Ryd( 3d)     0.00001       3.24057
   289    H    6  dxy    Ryd( 4d)     0.00000       8.56593
   290    H    6  dxz    Ryd( 3d)     0.00002       3.90690
   291    H    6  dxz    Ryd( 4d)     0.00001       8.98708
   292    H    6  dyz    Ryd( 3d)     0.00000       3.70496
   293    H    6  dyz    Ryd( 4d)     0.00000       8.79638
   294    H    6  dx2y2  Ryd( 3d)     0.00000       3.43600
   295    H    6  dx2y2  Ryd( 4d)     0.00000       8.61764
   296    H    6  dz2    Ryd( 3d)     0.00000       4.10557
   297    H    6  dz2    Ryd( 4d)     0.00000       8.96608
   298    H    6  f(0)   Ryd( 4f)     0.00000       7.08226
   299    H    6  f(C1)  Ryd( 4f)     0.00002       6.95111
   300    H    6  f(S1)  Ryd( 4f)     0.00001       6.91662
   301    H    6  f(C2)  Ryd( 4f)     0.00001       6.81207
   302    H    6  f(S2)  Ryd( 4f)     0.00001       6.74808
   303    H    6  f(C3)  Ryd( 4f)     0.00000       6.64824
   304    H    6  f(S3)  Ryd( 4f)     0.00000       6.59989
 
   305    H    7  S      Val( 1S)     0.41408       0.07389
   306    H    7  S      Ryd( 3S)     0.00020       1.88230
   307    H    7  S      Ryd( 2S)     0.00004       1.70982
   308    H    7  S      Ryd( 4S)     0.00000       5.43669
   309    H    7  px     Ryd( 2p)     0.00027       0.66488
   310    H    7  px     Ryd( 3p)     0.00022       3.75912
   311    H    7  px     Ryd( 4p)     0.00001       5.17470
   312    H    7  px     Ryd( 5p)     0.00000       8.48398
   313    H    7  py     Ryd( 2p)     0.00041       0.58568
   314    H    7  py     Ryd( 4p)     0.00006       2.69743
   315    H    7  py     Ryd( 3p)     0.00001       2.28263
   316    H    7  py     Ryd( 5p)     0.00000       7.94108
   317    H    7  pz     Ryd( 2p)     0.00032       0.62467
   318    H    7  pz     Ryd( 4p)     0.00002       2.80645
   319    H    7  pz     Ryd( 3p)     0.00001       2.50521
   320    H    7  pz     Ryd( 5p)     0.00000       8.01664
   321    H    7  dxy    Ryd( 3d)     0.00000       3.97097
   322    H    7  dxy    Ryd( 4d)     0.00000       8.92278
   323    H    7  dxz    Ryd( 3d)     0.00000       4.21272
   324    H    7  dxz    Ryd( 4d)     0.00000       9.01483
   325    H    7  dyz    Ryd( 3d)     0.00001       2.87760
   326    H    7  dyz    Ryd( 4d)     0.00000       8.36238
   327    H    7  dx2y2  Ryd( 3d)     0.00001       3.93717
   328    H    7  dx2y2  Ryd( 4d)     0.00001       9.08665
   329    H    7  dz2    Ryd( 3d)     0.00001       3.23175
   330    H    7  dz2    Ryd( 4d)     0.00000       8.57829
   331    H    7  f(0)   Ryd( 4f)     0.00000       6.60501
   332    H    7  f(C1)  Ryd( 4f)     0.00002       6.97170
   333    H    7  f(S1)  Ryd( 4f)     0.00000       6.29911
   334    H    7  f(C2)  Ryd( 4f)     0.00000       6.88231
   335    H    7  f(S2)  Ryd( 4f)     0.00000       6.93647
   336    H    7  f(C3)  Ryd( 4f)     0.00004       6.95083
   337    H    7  f(S3)  Ryd( 4f)     0.00000       7.12591

 WARNING:  Population inversion found on atom  C    1
           Population inversion found on atom  S    2
           Population inversion found on atom  C    3
           Population inversion found on atom  H    4
           Population inversion found on atom  H    5
           Population inversion found on atom  H    6
           Population inversion found on atom  H    7


 Summary of Natural Population Analysis:                  
                                                          
                                       Natural Population 
                Natural  -----------------------------------------------
    Atom  No    Charge         Core      Valence    Rydberg      Total
 -----------------------------------------------------------------------
      C    1   -0.74642      0.99980     2.73171    0.01491     3.74642
      S    2    0.28113      4.99928     2.66559    0.05401     7.71887
      C    3    0.05946      0.99979     1.92230    0.01844     2.94054
      H    4    0.12382      0.00000     0.37440    0.00178     0.37618
      H    5    0.11975      0.00000     0.37848    0.00177     0.38025
      H    6    0.07805      0.00000     0.42054    0.00141     0.42195
      H    7    0.08422      0.00000     0.41408    0.00170     0.41578
 =======================================================================
   * Total *   -0.00000      6.99887     8.90710    0.09403    16.00000

                                 Natural Population      
 --------------------------------------------------------
   Core                       6.99887 ( 99.9839% of   7)
   Valence                    8.90710 ( 98.9678% of   9)
   Natural Minimal Basis     15.90597 ( 99.4123% of  16)
   Natural Rydberg Basis      0.09403 (  0.5877% of  16)
 --------------------------------------------------------

    Atom  No          Natural Electron Configuration
 ----------------------------------------------------------------------------
      C    1      [core]2S( 0.61)2p( 2.12)4d( 0.01)
      S    2      [core]3S( 0.75)3p( 1.91)4S( 0.01)4p( 0.01)4d( 0.04)
      C    3      [core]2S( 0.55)2p( 1.38)4d( 0.01)
      H    4            1S( 0.37)
      H    5            1S( 0.38)
      H    6            1S( 0.42)
      H    7            1S( 0.41)


 NBO analysis skipped by request.
 Leave Link  607 at Tue Jan  3 09:57:56 2023, MaxMem=   536870912 cpu:               3.9 elap:               2.0
 (Enter /opt/software/gaussian/g16.c01/l701.exe)
 ... and contract with generalized density number  0.
 Compute integral first derivatives.
 Leave Link  701 at Tue Jan  3 09:57:56 2023, MaxMem=   536870912 cpu:               0.5 elap:               0.3
 (Enter /opt/software/gaussian/g16.c01/l702.exe)
 L702 exits ... SP integral derivatives will be done elsewhere.
 Leave Link  702 at Tue Jan  3 09:57:56 2023, MaxMem=   536870912 cpu:               0.1 elap:               0.0
 (Enter /opt/software/gaussian/g16.c01/l703.exe)
 Integral derivatives from FoFJK, PRISM(SPDF).
 Compute integral first derivatives, UseDBF=F ICtDFT=           0.
 Calling FoFJK, ICntrl=      2127 FMM=F ISym2X=0 I1Cent= 0 IOpClX= 1 NMat=1 NMatS=1 NMatT=0.
 FoFJK:  IHMeth= 1 ICntrl=    2127 DoSepK=F KAlg= 0 I1Cent=           0 FoldK=F
 IRaf=         0 NMat=       1 IRICut=       1 DoRegI=T DoRafI=F ISym2E= 0 IDoP0=0 IntGTp=1.
 FoFCou: FMM=F IPFlag=           0 FMFlag=      100000 FMFlg1=         800
         NFxFlg=           0 DoJE=F BraDBF=F KetDBF=F FulRan=T
         wScrn=  0.000000 ICntrl=      2127 IOpCl=  1 I1Cent=           0 NGrid=           0
         NMat0=    1 NMatS0=      1 NMatT0=    0 NMatD0=    1 NMtDS0=    0 NMtDT0=    0
 Symmetry not used in FoFCou.
 Leave Link  703 at Tue Jan  3 10:00:09 2023, MaxMem=   536870912 cpu:             265.2 elap:             132.6
 (Enter /opt/software/gaussian/g16.c01/l716.exe)
 Dipole        =-1.93319908D-01 9.74253217D-02-2.57235563D-01
 -------------------------------------------------------------------
 Center     Atomic                   Forces (Hartrees/Bohr)
 Number     Number              X              Y              Z
 -------------------------------------------------------------------
      1        6          -0.035091948    0.000155444   -0.006256203
      2       16           0.022903952   -0.011577477    0.030555654
      3        6           0.006350072    0.014364705   -0.032071685
      4        1           0.003846032    0.005390277   -0.011786689
      5        1           0.006281514   -0.004394659    0.011186005
      6        1           0.009178420   -0.003400722    0.009386099
      7        1          -0.013468042   -0.000537566   -0.001013181
 -------------------------------------------------------------------
 Cartesian Forces:  Max     0.035091948 RMS     0.015230652
 Z-matrix is all fixed cartesians, so copy forces.
 Force constants in Cartesian coordinates: 
                1             2             3             4             5 
      1  0.799457D+00
      2  0.386953D-01  0.202300D+00
      3  0.262318D-01 -0.197489D+00  0.573805D+00
      4 -0.458605D+00 -0.232735D-01 -0.165583D-01  0.577555D+00
      5 -0.320482D-01 -0.525335D-01  0.183029D-01  0.867656D-01  0.122175D+00
      6  0.365769D-02  0.197847D-01 -0.872720D-01 -0.110154D+00 -0.165608D+00
      7  0.122699D-02 -0.100692D-01  0.221250D-01 -0.139616D+00 -0.489763D-01
      8 -0.597775D-03  0.748286D-02  0.517705D-03 -0.577409D-01 -0.107626D+00
      9  0.278568D-03 -0.108316D-02  0.102956D-01  0.116790D+00  0.142526D+00
     10 -0.144909D+00 -0.441803D-01  0.836168D-01  0.115252D-02 -0.932375D-02
     11 -0.404522D-01 -0.846163D-01  0.105218D+00 -0.241587D-03  0.264194D-02
     12  0.750267D-01  0.104603D+00 -0.264763D+00  0.410365D-03 -0.299905D-02
     13 -0.197168D+00  0.388020D-01 -0.115426D+00 -0.916549D-03  0.691836D-02
     14  0.343779D-01 -0.722913D-01  0.735979D-01 -0.146773D-02  0.180903D-01
     15 -0.105206D+00  0.743316D-01 -0.232001D+00  0.158269D-03  0.144866D-02
     16 -0.246017D-04  0.336366D-03  0.145813D-03  0.192862D-01 -0.309494D-02
     17  0.337132D-03 -0.460942D-02 -0.199817D-02  0.528610D-02  0.146053D-01
     18  0.146171D-03 -0.199852D-02 -0.866351D-03 -0.120134D-01  0.780803D-02
     19  0.227250D-04 -0.310706D-03 -0.134690D-03  0.114404D-02 -0.240739D-03
     20 -0.312161D-03  0.426801D-02  0.185017D-02 -0.932793D-02  0.264671D-02
     21 -0.135369D-03  0.185083D-02  0.802328D-03  0.213670D-01 -0.147893D-02
                6             7             8             9            10 
      6  0.407473D+00
      7  0.965700D-01  0.667382D+00
      8  0.141042D+00  0.492959D-01  0.225135D+00
      9 -0.351317D+00 -0.206782D-01 -0.248346D+00  0.683203D+00
     10  0.213707D-01  0.228255D-04 -0.312081D-03 -0.135286D-03  0.115530D+00
     11 -0.146606D-02 -0.312069D-03  0.426675D-02  0.184962D-02  0.445604D-01
     12  0.901525D-02 -0.135235D-03  0.184900D-02  0.801534D-03 -0.864441D-01
     13 -0.191712D-01 -0.246447D-04  0.336954D-03  0.146068D-03  0.282041D-01
     14  0.324183D-04  0.336979D-03 -0.460733D-02 -0.199726D-02  0.925576D-02
     15  0.148968D-01  0.146176D-03 -0.199858D-02 -0.866379D-03 -0.184082D-01
     16  0.731953D-02 -0.179623D+00  0.329496D-01 -0.989913D-01  0.000000D+00
     17  0.921888D-02  0.373763D-01 -0.753070D-01  0.810589D-01  0.000000D+00
     18 -0.181486D-02 -0.109211D+00  0.803191D-01 -0.246533D+00  0.000000D+00
     19  0.407512D-03 -0.349368D+00 -0.239317D-01  0.258983D-02  0.000000D+00
     20 -0.300348D-02 -0.276515D-01 -0.493443D-01  0.259912D-01  0.000000D+00
     21  0.901933D-02  0.111835D-01  0.266169D-01 -0.955832D-01  0.000000D+00
               11            12            13            14            15 
     11  0.698063D-01
     12 -0.111340D+00  0.260624D+00
     13 -0.355446D-02  0.111423D-01  0.169905D+00
     14  0.790132D-02  0.788712D-02 -0.425029D-01  0.509070D-01
     15  0.573850D-02 -0.567740D-02  0.123309D+00 -0.795202D-01  0.223648D+00
     16  0.000000D+00  0.000000D+00  0.000000D+00  0.000000D+00  0.000000D+00
     17  0.000000D+00  0.000000D+00  0.000000D+00  0.000000D+00  0.000000D+00
     18  0.000000D+00  0.000000D+00  0.000000D+00  0.000000D+00  0.000000D+00
     19  0.000000D+00  0.000000D+00  0.000000D+00  0.000000D+00  0.000000D+00
     20  0.000000D+00  0.000000D+00  0.000000D+00  0.000000D+00  0.000000D+00
     21  0.000000D+00  0.000000D+00  0.000000D+00  0.000000D+00  0.000000D+00
               16            17            18            19            20 
     16  0.161831D+00
     17 -0.418445D-01  0.522901D-01
     18  0.120449D+00 -0.826089D-01  0.230340D+00
     19 -0.147004D-02 -0.115499D-02  0.629518D-03  0.349671D+00
     20  0.116534D-01  0.130211D-01 -0.351969D-02  0.256381D-01  0.294086D-01
     21 -0.289230D-01 -0.567069D-02  0.188748D-01 -0.349217D-02 -0.213182D-01
               21 
     21  0.668867D-01
 Leave Link  716 at Tue Jan  3 10:00:09 2023, MaxMem=   536870912 cpu:               0.1 elap:               0.0
 (Enter /opt/software/gaussian/g16.c01/l103.exe)

 GradGradGradGradGradGradGradGradGradGradGradGradGradGradGradGradGradGrad
 Berny optimization.
 Search for a local minimum.
 Step number   1 out of a maximum of    2
 All quantities printed in internal units (Hartrees-Bohrs-Radians)
 Second derivative matrix not updated -- first step.
 ITU=  0
     Eigenvalues ---    0.00860   0.01482   0.01804   0.07108   0.07556
     Eigenvalues ---    0.11270   0.14823   0.15345   0.17618   0.32617
     Eigenvalues ---    0.36576   0.82416   0.92900   1.11635   1.31988
 Angle between quadratic step and forces=  69.32 degrees.
 Linear search not attempted -- first point.
 B after Tr=     0.019617   -0.009874    0.026123
         Rot=    1.000000   -0.000012   -0.000005    0.000009 Ang=  -0.00 deg.
 Variable       Old X    -DE/DX   Delta X   Delta X   Delta X     New X
                                 (Linear)    (Quad)   (Total)
    X1        1.85917  -0.03509   0.00000   0.00513   0.02474   1.88392
    Y1       -0.06153   0.00016   0.00000   0.01913   0.00922  -0.05231
    Z1        0.09233  -0.00626   0.00000  -0.04316  -0.01705   0.07527
    X2        4.92676   0.02290   0.00000   0.06556   0.08518   5.01195
    Y2        0.18746  -0.01158   0.00000  -0.03313  -0.04309   0.14437
    Z2        0.03552   0.03056   0.00000   0.08726   0.11334   0.14887
    X3        6.09876   0.00635   0.00000  -0.04608  -0.02647   6.07229
    Y3        1.39121   0.01436   0.00000   0.00156  -0.00836   1.38285
    Z3       -2.54358  -0.03207   0.00000  -0.01138   0.01472  -2.52886
    X4        1.07794   0.00385   0.00000  -0.07467  -0.05505   1.02289
    Y4       -0.86461   0.00539   0.00000   0.04386   0.03393  -0.83068
    Z4        1.81365  -0.01179   0.00000  -0.11345  -0.08736   1.72630
    X5        0.64970   0.00628   0.00000   0.08640   0.10601   0.75571
    Y5        0.52577  -0.00439   0.00000   0.02879   0.01894   0.54470
    Z5       -1.46547   0.01119   0.00000  -0.05190  -0.02577  -1.49123
    X6        4.94205   0.00918   0.00000  -0.08450  -0.06489   4.87716
    Y6        1.99647  -0.00340   0.00000  -0.02981  -0.03967   1.95680
    Z6       -4.13423   0.00939   0.00000   0.05429   0.08042  -4.05381
    X7        8.14558  -0.01347   0.00000  -0.08916  -0.06954   8.07604
    Y7        1.55646  -0.00054   0.00000   0.03899   0.02903   1.58549
    Z7       -2.58103  -0.00101   0.00000  -0.10439  -0.07830  -2.65934
         Item               Value     Threshold  Converged?
 Maximum Force            0.035092     0.000450     NO 
 RMS     Force            0.015231     0.000300     NO 
 Maximum Displacement     0.113345     0.001800     NO 
 RMS     Displacement     0.058583     0.001200     NO 
 Predicted change in Energy=-3.491304D-03
 GradGradGradGradGradGradGradGradGradGradGradGradGradGradGradGradGradGrad

 Leave Link  103 at Tue Jan  3 10:00:09 2023, MaxMem=   536870912 cpu:               0.1 elap:               0.1
 (Enter /opt/software/gaussian/g16.c01/l9999.exe)
 Unable to Open any file for archive entry.
 1\1\GINC-GRA634\Force\UHF\Gen\C2H4S1\BHAVUK\03-Jan-2023\0\\#p uhf/chkb
 asis force guess=read geom=check scf=(maxcycle=900,verytightlineq,xqc)
  integral=grid=ultrafine symmetry=None density=current pop=(cm5,hlygat
 ,mbs,npa) output=wfx\\0003_q000_m01_k00_opt_uwb97xd_def2svpd/0003_q000
 _m01_k00_force_uhf_def2qzvpd stable-force\\0,1\C,0.9838325225,-0.03255
 86033,0.0488580178\S,2.6071301422,0.0991997065,0.0187984451\C,3.227322
 8911,0.736197977,-1.3460048506\H,0.570421034,-0.4575297175,0.959744862
 7\H,0.3438072589,0.2782232167,-0.7754915598\H,2.615218944,1.0564841772
 ,-2.1877415072\H,4.3104572053,0.8236432464,-1.365823405\\Version=ES64L
 -G16RevC.01\HF=-475.5645702\S2=0.723614\S2-1=0.\S2A=0.142673\RMSD=5.09
 1e-11\RMSF=1.523e-02\Dipole=-0.1933199,0.0974253,-0.2572356\Quadrupole
 =0.1792758,-1.396962,1.2176862,0.8259757,-1.453932,-1.5007092\PG=Unkno
 wn\\@
 The archive entry for this job was punched.

 Writing a WFNX file to "0003_q000_m01_k00_force_uhf_def2qzvpd.wfx"


 ORIGINALITY CONSISTS NOT IN SAYING WHAT NO ONE HAS EVER SAID BEFORE, 
 BUT IN SAYING WHAT YOU THINK YOUR SELF.

                                    -- JAMES F. STEPHEN
 Job cpu time:       0 days  0 hours  5 minutes 37.9 seconds.
 Elapsed time:       0 days  0 hours  2 minutes 49.0 seconds.
 File lengths (MBytes):  RWF=    110 Int=      0 D2E=      0 Chk=     15 Scr=      1
 Normal termination of Gaussian 16 at Tue Jan  3 10:00:09 2023.
