 Entering Gaussian System, Link 0=g16
 Input=0003_q000_m01_k00_force_uwb97xd_def2tzvp.com
 Output=0003_q000_m01_k00_force_uwb97xd_def2tzvp.log
 Initial command:
 /opt/software/gaussian/g16.c01/l1.exe "/localscratch/bhavuk.2151389.0/Gau-20453.inp" -scrdir="/localscratch/bhavuk.2151389.0/"
 Entering Link 1 = /opt/software/gaussian/g16.c01/l1.exe PID=     20454.
  
 Copyright (c) 1988-2019, Gaussian, Inc.  All Rights Reserved.
  
 This is part of the Gaussian(R) 16 program.  It is based on
 the Gaussian(R) 09 system (copyright 2009, Gaussian, Inc.),
 the Gaussian(R) 03 system (copyright 2003, Gaussian, Inc.),
 the Gaussian(R) 98 system (copyright 1998, Gaussian, Inc.),
 the Gaussian(R) 94 system (copyright 1995, Gaussian, Inc.),
 the Gaussian 92(TM) system (copyright 1992, Gaussian, Inc.),
 the Gaussian 90(TM) system (copyright 1990, Gaussian, Inc.),
 the Gaussian 88(TM) system (copyright 1988, Gaussian, Inc.),
 the Gaussian 86(TM) system (copyright 1986, Carnegie Mellon
 University), and the Gaussian 82(TM) system (copyright 1983,
 Carnegie Mellon University). Gaussian is a federally registered
 trademark of Gaussian, Inc.
  
 This software contains proprietary and confidential information,
 including trade secrets, belonging to Gaussian, Inc.
  
 This software is provided under written license and may be
 used, copied, transmitted, or stored only in accord with that
 written license.
  
 The following legend is applicable only to US Government
 contracts under FAR:
  
                    RESTRICTED RIGHTS LEGEND
  
 Use, reproduction and disclosure by the US Government is
 subject to restrictions as set forth in subparagraphs (a)
 and (c) of the Commercial Computer Software - Restricted
 Rights clause in FAR 52.227-19.
  
 Gaussian, Inc.
 340 Quinnipiac St., Bldg. 40, Wallingford CT 06492
  
  
 ---------------------------------------------------------------
 Warning -- This program may not be used in any manner that
 competes with the business of Gaussian, Inc. or will provide
 assistance to any competitor of Gaussian, Inc.  The licensee
 of this program is prohibited from giving any competitor of
 Gaussian, Inc. access to this program.  By using this program,
 the user acknowledges that Gaussian, Inc. is engaged in the
 business of creating and licensing software in the field of
 computational chemistry and represents and warrants to the
 licensee that it is not a competitor of Gaussian, Inc. and that
 it will not use this program in any manner prohibited above.
 ---------------------------------------------------------------
  

 Cite this work as:
 Gaussian 16, Revision C.01,
 M. J. Frisch, G. W. Trucks, H. B. Schlegel, G. E. Scuseria, 
 M. A. Robb, J. R. Cheeseman, G. Scalmani, V. Barone, 
 G. A. Petersson, H. Nakatsuji, X. Li, M. Caricato, A. V. Marenich, 
 J. Bloino, B. G. Janesko, R. Gomperts, B. Mennucci, H. P. Hratchian, 
 J. V. Ortiz, A. F. Izmaylov, J. L. Sonnenberg, D. Williams-Young, 
 F. Ding, F. Lipparini, F. Egidi, J. Goings, B. Peng, A. Petrone, 
 T. Henderson, D. Ranasinghe, V. G. Zakrzewski, J. Gao, N. Rega, 
 G. Zheng, W. Liang, M. Hada, M. Ehara, K. Toyota, R. Fukuda, 
 J. Hasegawa, M. Ishida, T. Nakajima, Y. Honda, O. Kitao, H. Nakai, 
 T. Vreven, K. Throssell, J. A. Montgomery, Jr., J. E. Peralta, 
 F. Ogliaro, M. J. Bearpark, J. J. Heyd, E. N. Brothers, K. N. Kudin, 
 V. N. Staroverov, T. A. Keith, R. Kobayashi, J. Normand, 
 K. Raghavachari, A. P. Rendell, J. C. Burant, S. S. Iyengar, 
 J. Tomasi, M. Cossi, J. M. Millam, M. Klene, C. Adamo, R. Cammi, 
 J. W. Ochterski, R. L. Martin, K. Morokuma, O. Farkas, 
 J. B. Foresman, and D. J. Fox, Gaussian, Inc., Wallingford CT, 2019.
 
 ******************************************
 Gaussian 16:  ES64L-G16RevC.01  3-Jul-2019
                 3-Jan-2023 
 ******************************************
 %chk=0003_q000_m01_k00_force_uwb97xd_def2tzvp.chk
 %nprocshared=2
 Will use up to    2 processors via shared memory.
 %mem=4GB
 ----------------------------------------------------------------------
 #p uwb97xd/gen stable=opt scf=(maxcycle=900,verytightlineq,xqc) integr
 al=grid=ultrafine symmetry=None density=current iop(99/18=-1) output=w
 fn
 ----------------------------------------------------------------------
 1/38=1,172=1/1;
 2/12=2,15=3,17=6,18=5,40=1/2;
 3/5=7,11=2,25=1,30=1,74=-58,75=-5,116=2/1,2,3;
 4//1;
 5/5=2,7=900,8=3,13=1,17=3,38=5/2,8;
 6/7=2,8=2,9=2,10=2,22=-1,28=1/1;
 8/6=1,10=90,11=11/1;
 9/8=-3,42=1,46=1/14;
 5/5=2,7=900,8=3,17=43,38=5/8(-2);
 6/7=2,8=2,9=2,10=2,22=-1,28=1/1;
 99/5=1,6=100,9=1,18=-1/99;
 Leave Link    1 at Tue Jan  3 09:05:55 2023, MaxMem=   536870912 cpu:               0.2 elap:               0.1
 (Enter /opt/software/gaussian/g16.c01/l101.exe)
 ----------------------------------------------------------------------
 0003_q000_m01_k00_opt_uwb97xd_def2svpd/0003_q000_m01_k00_force_uwb97xd
 _def2tzvp stable-force
 ----------------------------------------------------------------------
 Symbolic Z-matrix:
 Charge =  0 Multiplicity = 1
 C                     0.98383  -0.03256   0.04886 
 S                     2.60713   0.0992    0.0188 
 C                     3.22732   0.7362   -1.346 
 H                     0.57042  -0.45753   0.95974 
 H                     0.34381   0.27822  -0.77549 
 H                     2.61522   1.05648  -2.18774 
 H                     4.31046   0.82364  -1.36582 
 
 ITRead=  0  0  0  0  0  0  0
 MicOpt= -1 -1 -1 -1 -1 -1 -1
 NAtoms=      7 NQM=        7 NQMF=       0 NMMI=      0 NMMIF=      0
                NMic=       0 NMicF=      0.
                    Isotopes and Nuclear Properties:
 (Nuclear quadrupole moments (NQMom) in fm**2, nuclear magnetic moments (NMagM)
  in nuclear magnetons)

  Atom         1           2           3           4           5           6           7
 IAtWgt=          12          32          12           1           1           1           1
 AtmWgt=  12.0000000  31.9720718  12.0000000   1.0078250   1.0078250   1.0078250   1.0078250
 NucSpn=           0           0           0           1           1           1           1
 AtZEff=  -0.0000000  -0.0000000  -0.0000000  -0.0000000  -0.0000000  -0.0000000  -0.0000000
 NQMom=    0.0000000   0.0000000   0.0000000   0.0000000   0.0000000   0.0000000   0.0000000
 NMagM=    0.0000000   0.0000000   0.0000000   2.7928460   2.7928460   2.7928460   2.7928460
 AtZNuc=   6.0000000  16.0000000   6.0000000   1.0000000   1.0000000   1.0000000   1.0000000
 Leave Link  101 at Tue Jan  3 09:05:55 2023, MaxMem=   536870912 cpu:               0.5 elap:               0.3
 (Enter /opt/software/gaussian/g16.c01/l202.exe)
                          Input orientation:                          
 ---------------------------------------------------------------------
 Center     Atomic      Atomic             Coordinates (Angstroms)
 Number     Number       Type             X           Y           Z
 ---------------------------------------------------------------------
      1          6           0        0.983833   -0.032559    0.048858
      2         16           0        2.607130    0.099200    0.018798
      3          6           0        3.227323    0.736198   -1.346005
      4          1           0        0.570421   -0.457530    0.959745
      5          1           0        0.343807    0.278223   -0.775492
      6          1           0        2.615219    1.056484   -2.187742
      7          1           0        4.310457    0.823643   -1.365823
 ---------------------------------------------------------------------
                    Distance matrix (angstroms):
                    1          2          3          4          5
     1  C    0.000000
     2  S    1.628913   0.000000
     3  C    2.751341   1.628832   0.000000
     4  H    1.086841   2.311604   3.714915   0.000000
     5  H    1.088931   2.405323   2.974876   1.898350   0.000000
     6  H    2.974864   2.405260   1.088933   4.047234   2.785579
     7  H    3.714948   2.311562   1.086839   4.586670   4.047257
                    6          7
     6  H    0.000000
     7  H    1.898314   0.000000
 Symmetry turned off by external request.
 Stoichiometry    C2H4S
 Rotational constants (GHZ):          32.8865896           8.4327606           6.7117401
 Leave Link  202 at Tue Jan  3 09:05:55 2023, MaxMem=   536870912 cpu:               0.0 elap:               0.0
 (Enter /opt/software/gaussian/g16.c01/l301.exe)
 General basis read from cards:  (5D, 7F)
 Centers:       4      5      6      7
 S 3 1.00
     Exponent=  3.4061341000D+01 Coefficients=  6.0251978000D-03
     Exponent=  5.1235746000D+00 Coefficients=  4.5021094000D-02
     Exponent=  1.1646626000D+00 Coefficients=  2.0189726000D-01
 S 1 1.00
     Exponent=  3.2723041000D-01 Coefficients=  1.0000000000D+00
 S 1 1.00
     Exponent=  1.0307241000D-01 Coefficients=  1.0000000000D+00
 P 1 1.00
     Exponent=  8.0000000000D-01 Coefficients=  1.0000000000D+00
 ****
 Centers:       1      3
 S 6 1.00
     Exponent=  1.3575349682D+04 Coefficients=  2.2245814352D-04
     Exponent=  2.0352333680D+03 Coefficients=  1.7232738252D-03
     Exponent=  4.6322562359D+02 Coefficients=  8.9255715314D-03
     Exponent=  1.3120019598D+02 Coefficients=  3.5727984502D-02
     Exponent=  4.2853015891D+01 Coefficients=  1.1076259931D-01
     Exponent=  1.5584185766D+01 Coefficients=  2.4295627626D-01
 S 2 1.00
     Exponent=  6.2067138508D+00 Coefficients=  4.1440263448D-01
     Exponent=  2.5764896527D+00 Coefficients=  2.3744968655D-01
 S 1 1.00
     Exponent=  5.7696339419D-01 Coefficients=  1.0000000000D+00
 S 1 1.00
     Exponent=  2.2972831358D-01 Coefficients=  1.0000000000D+00
 S 1 1.00
     Exponent=  9.5164440028D-02 Coefficients=  1.0000000000D+00
 P 4 1.00
     Exponent=  3.4697232244D+01 Coefficients=  5.3333657805D-03
     Exponent=  7.9582622826D+00 Coefficients=  3.5864109092D-02
     Exponent=  2.3780826883D+00 Coefficients=  1.4215873329D-01
     Exponent=  8.1433208183D-01 Coefficients=  3.4270471845D-01
 P 1 1.00
     Exponent=  2.8887547253D-01 Coefficients=  4.6445822433D-01
 P 1 1.00
     Exponent=  1.0056823671D-01 Coefficients=  2.4955789874D-01
 D 1 1.00
     Exponent=  1.0970000000D+00 Coefficients=  1.0000000000D+00
 D 1 1.00
     Exponent=  3.1800000000D-01 Coefficients=  1.0000000000D+00
 F 1 1.00
     Exponent=  7.6100000000D-01 Coefficients=  1.0000000000D+00
 ****
 Centers:       2
 S 7 1.00
     Exponent=  6.0700928104D+04 Coefficients=  5.4695944225D-04
     Exponent=  9.1026106854D+03 Coefficients=  4.2297224557D-03
     Exponent=  2.0714166009D+03 Coefficients=  2.1747824159D-02
     Exponent=  5.8602476821D+02 Coefficients=  8.5100053589D-02
     Exponent=  1.9055395021D+02 Coefficients=  2.4799128459D-01
     Exponent=  6.7630384260D+01 Coefficients=  4.6703640406D-01
     Exponent=  2.5127306905D+01 Coefficients=  3.6434587550D-01
 S 3 1.00
     Exponent=  1.1257463010D+02 Coefficients=  2.1670040240D-02
     Exponent=  3.4795554217D+01 Coefficients=  9.3602301760D-02
     Exponent=  6.5115556215D+00 Coefficients= -2.6068001422D-01
 S 2 1.00
     Exponent=  3.2399032261D+00 Coefficients=  1.2842089435D+00
     Exponent=  1.5477160881D+00 Coefficients=  6.6036416584D-01
 S 1 1.00
     Exponent=  4.0541030112D-01 Coefficients=  1.0000000000D+00
 S 1 1.00
     Exponent=  1.4550651059D-01 Coefficients=  1.0000000000D+00
 P 5 1.00
     Exponent=  5.6436716027D+02 Coefficients=  2.4796796317D-03
     Exponent=  1.3342624379D+02 Coefficients=  1.9677930250D-02
     Exponent=  4.2468271189D+01 Coefficients=  8.9980008258D-02
     Exponent=  1.5616527580D+01 Coefficients=  2.5705880575D-01
     Exponent=  6.1093988469D+00 Coefficients=  4.3515167292D-01
 P 1 1.00
     Exponent=  2.4404160198D+00 Coefficients=  3.4883240595D-01
 P 1 1.00
     Exponent=  8.3882201296D-01 Coefficients=  1.0000000000D+00
 P 1 1.00
     Exponent=  3.1288746900D-01 Coefficients=  1.0000000000D+00
 P 1 1.00
     Exponent=  1.0770109004D-01 Coefficients=  1.0000000000D+00
 D 2 1.00
     Exponent=  3.7560000000D+00 Coefficients=  2.0000000000D-01
     Exponent=  8.1200000000D-01 Coefficients=  1.0000000000D+00
 D 1 1.00
     Exponent=  2.7300000000D-01 Coefficients=  1.0000000000D+00
 F 1 1.00
     Exponent=  5.5700000000D-01 Coefficients=  1.0000000000D+00
 ****
 Ernie: Thresh=  0.10000D-02 Tol=  0.10000D-05 Strict=F.
   123 basis functions,   203 primitive gaussians,   138 cartesian basis functions
    16 alpha electrons       16 beta electrons
       nuclear repulsion energy       100.3080120317 Hartrees.
 IExCor= 4639 DFT=T Ex+Corr=wB97XD ExCW=0 ScaHFX=  1.000000
 ScaDFX=  1.000000  1.000000  1.000000  1.000000 ScalE2=  1.000000  1.000000
 IRadAn=      5 IRanWt=     -1 IRanGd=            0 ICorTp=0 IEmpDi=121
 HFx  wShort=  0.000000 wLong=  0.200000 cFull=  0.222036 cShort=  0.000000 cLong=  0.777964
 DFx  wShort=  0.000000 wLong=  0.200000 cFull=  0.000000 cShort=  0.000000 cLong=  1.000000
 NAtoms=    7 NActive=    7 NUniq=    7 SFac= 1.00D+00 NAtFMM=   60 NAOKFM=F Big=F
 Integral buffers will be    131072 words long.
 Raffenetti 2 integral format.
 Two-electron integral symmetry is turned off.
 R6Disp:  Grimme-D2 Dispersion energy=       -0.0011997330 Hartrees.
 Nuclear repulsion after empirical dispersion term =      100.3068122987 Hartrees.
 Leave Link  301 at Tue Jan  3 09:05:56 2023, MaxMem=   536870912 cpu:               0.2 elap:               0.1
 (Enter /opt/software/gaussian/g16.c01/l302.exe)
 NPDir=0 NMtPBC=     1 NCelOv=     1 NCel=       1 NClECP=     1 NCelD=      1
         NCelK=      1 NCelE2=     1 NClLst=     1 CellRange=     0.0.
 One-electron integrals computed using PRISM.
 NBasis=   123 RedAO= T EigKep=  1.22D-03  NBF=   123
 NBsUse=   123 1.00D-06 EigRej= -1.00D+00 NBFU=   123
 Precomputing XC quadrature grid using
 IXCGrd= 4 IRadAn=           5 IRanWt=          -1 IRanGd=           0 AccXCQ= 0.00D+00.
 Generated NRdTot=       0 NPtTot=           0 NUsed=           0 NTot=          32
 NSgBfM=   138   137   137   138   138 MxSgAt=     7 MxSgA2=     7.
 Leave Link  302 at Tue Jan  3 09:05:56 2023, MaxMem=   536870912 cpu:               0.4 elap:               0.2
 (Enter /opt/software/gaussian/g16.c01/l303.exe)
 DipDrv:  MaxL=1.
 Leave Link  303 at Tue Jan  3 09:05:56 2023, MaxMem=   536870912 cpu:               0.1 elap:               0.1
 (Enter /opt/software/gaussian/g16.c01/l401.exe)
 ExpMin= 9.52D-02 ExpMax= 6.07D+04 ExpMxC= 2.07D+03 IAcc=3 IRadAn=         5 AccDes= 0.00D+00
 Harris functional with IExCor= 4639 and IRadAn=       5 diagonalized for initial guess.
 HarFok:  IExCor= 4639 AccDes= 0.00D+00 IRadAn=         5 IDoV= 1 UseB2=F ITyADJ=14
 ICtDFT=  3500011 ScaDFX=  1.000000  1.000000  1.000000  1.000000
 FoFCou: FMM=F IPFlag=           0 FMFlag=      100000 FMFlg1=           0
         NFxFlg=           0 DoJE=T BraDBF=F KetDBF=T FulRan=T
         wScrn=  0.000000 ICntrl=       500 IOpCl=  0 I1Cent=   200000004 NGrid=           0
         NMat0=    1 NMatS0=      1 NMatT0=    0 NMatD0=    1 NMtDS0=    0 NMtDT0=    0
 Symmetry not used in FoFCou.
 Harris En= -465.956356835192    
 JPrj=0 DoOrth=F DoCkMO=F.
 Initial guess <Sx>= 0.0000 <Sy>= 0.0000 <Sz>= 0.0000 <S**2>= 0.0000 S= 0.0000
 Leave Link  401 at Tue Jan  3 09:05:57 2023, MaxMem=   536870912 cpu:               1.7 elap:               0.9
 (Enter /opt/software/gaussian/g16.c01/l502.exe)
 Keep R1 and R2 ints in memory in canonical form, NReq=119295747.
 FoFCou: FMM=F IPFlag=           0 FMFlag=           0 FMFlg1=           0
         NFxFlg=           0 DoJE=F BraDBF=F KetDBF=F FulRan=T
         wScrn=  0.000000 ICntrl=       600 IOpCl=  0 I1Cent=           0 NGrid=           0
         NMat0=    1 NMatS0=   7626 NMatT0=    0 NMatD0=    1 NMtDS0=    0 NMtDT0=    0
 Symmetry not used in FoFCou.
 Two-electron integral symmetry not used.
 UHF open shell SCF:
 Using DIIS extrapolation, IDIIS=  1040.
 NGot=   536870912 LenX=   420503772 LenY=   420484287
 Requested convergence on RMS density matrix=1.00D-08 within 128 cycles.
 Requested convergence on MAX density matrix=1.00D-06.
 Requested convergence on             energy=1.00D-06.
 No special actions if energy rises.
 Integral accuracy reduced to 1.0D-05 until final iterations.

 Cycle   1  Pass 0  IDiag  1:
 E= -476.535354385014    
 DIIS: error= 9.83D-02 at cycle   1 NSaved=   1.
 NSaved= 1 IEnMin= 1 EnMin= -476.535354385014     IErMin= 1 ErrMin= 9.83D-02
 ErrMax= 9.83D-02  0.00D+00 EMaxC= 1.00D-01 BMatC= 2.93D+00 BMatP= 2.93D+00
 IDIUse=3 WtCom= 1.67D-02 WtEn= 9.83D-01
 Coeff-Com:  0.100D+01
 Coeff-En:   0.100D+01
 Coeff:      0.100D+01
 Gap=     0.201 Goal=   None    Shift=    0.000
 Gap=     0.201 Goal=   None    Shift=    0.000
 GapD=    0.201 DampG=1.000 DampE=0.500 DampFc=0.5000 IDamp=-1.
 Damping current iteration by 5.00D-01
 RMSDP=4.94D-03 MaxDP=2.64D-01              OVMax= 2.94D-01

 Cycle   2  Pass 0  IDiag  1:
 E= -476.635741018996     Delta-E=       -0.100386633982 Rises=F Damp=T
 DIIS: error= 3.29D-02 at cycle   2 NSaved=   2.
 NSaved= 2 IEnMin= 2 EnMin= -476.635741018996     IErMin= 2 ErrMin= 3.29D-02
 ErrMax= 3.29D-02  0.00D+00 EMaxC= 1.00D-01 BMatC= 3.05D-01 BMatP= 2.93D+00
 IDIUse=3 WtCom= 6.71D-01 WtEn= 3.29D-01
 Coeff-Com: -0.306D+00 0.131D+01
 Coeff-En:   0.000D+00 0.100D+01
 Coeff:     -0.205D+00 0.121D+01
 Gap=     0.292 Goal=   None    Shift=    0.000
 Gap=     0.292 Goal=   None    Shift=    0.000
 RMSDP=8.93D-04 MaxDP=2.49D-02 DE=-1.00D-01 OVMax= 1.63D-01

 Cycle   3  Pass 0  IDiag  1:
 E= -476.727339540623     Delta-E=       -0.091598521627 Rises=F Damp=F
 DIIS: error= 1.09D-02 at cycle   3 NSaved=   3.
 NSaved= 3 IEnMin= 3 EnMin= -476.727339540623     IErMin= 3 ErrMin= 1.09D-02
 ErrMax= 1.09D-02  0.00D+00 EMaxC= 1.00D-01 BMatC= 2.78D-02 BMatP= 3.05D-01
 IDIUse=3 WtCom= 8.91D-01 WtEn= 1.09D-01
 Coeff-Com: -0.123D+00 0.381D+00 0.742D+00
 Coeff-En:   0.000D+00 0.000D+00 0.100D+01
 Coeff:     -0.110D+00 0.339D+00 0.770D+00
 Gap=     0.281 Goal=   None    Shift=    0.000
 Gap=     0.281 Goal=   None    Shift=    0.000
 RMSDP=5.69D-04 MaxDP=2.14D-02 DE=-9.16D-02 OVMax= 4.52D-02

 Cycle   4  Pass 0  IDiag  1:
 E= -476.733892090830     Delta-E=       -0.006552550206 Rises=F Damp=F
 DIIS: error= 2.63D-03 at cycle   4 NSaved=   4.
 NSaved= 4 IEnMin= 4 EnMin= -476.733892090830     IErMin= 4 ErrMin= 2.63D-03
 ErrMax= 2.63D-03  0.00D+00 EMaxC= 1.00D-01 BMatC= 2.46D-03 BMatP= 2.78D-02
 IDIUse=3 WtCom= 9.74D-01 WtEn= 2.63D-02
 Coeff-Com: -0.399D-02 0.154D-01 0.238D+00 0.751D+00
 Coeff-En:   0.000D+00 0.000D+00 0.000D+00 0.100D+01
 Coeff:     -0.388D-02 0.150D-01 0.232D+00 0.757D+00
 Gap=     0.286 Goal=   None    Shift=    0.000
 Gap=     0.286 Goal=   None    Shift=    0.000
 RMSDP=1.36D-04 MaxDP=4.29D-03 DE=-6.55D-03 OVMax= 5.87D-03

 Cycle   5  Pass 0  IDiag  1:
 E= -476.734485802649     Delta-E=       -0.000593711819 Rises=F Damp=F
 DIIS: error= 3.40D-04 at cycle   5 NSaved=   5.
 NSaved= 5 IEnMin= 5 EnMin= -476.734485802649     IErMin= 5 ErrMin= 3.40D-04
 ErrMax= 3.40D-04  0.00D+00 EMaxC= 1.00D-01 BMatC= 3.40D-05 BMatP= 2.46D-03
 IDIUse=3 WtCom= 9.97D-01 WtEn= 3.40D-03
 Coeff-Com:  0.442D-02-0.104D-01 0.257D-01 0.154D+00 0.826D+00
 Coeff-En:   0.000D+00 0.000D+00 0.000D+00 0.000D+00 0.100D+01
 Coeff:      0.441D-02-0.103D-01 0.257D-01 0.154D+00 0.826D+00
 Gap=     0.286 Goal=   None    Shift=    0.000
 Gap=     0.286 Goal=   None    Shift=    0.000
 RMSDP=3.17D-05 MaxDP=1.52D-03 DE=-5.94D-04 OVMax= 1.26D-03

 Cycle   6  Pass 0  IDiag  1:
 E= -476.734497773760     Delta-E=       -0.000011971111 Rises=F Damp=F
 DIIS: error= 1.28D-04 at cycle   6 NSaved=   6.
 NSaved= 6 IEnMin= 6 EnMin= -476.734497773760     IErMin= 6 ErrMin= 1.28D-04
 ErrMax= 1.28D-04  0.00D+00 EMaxC= 1.00D-01 BMatC= 2.94D-06 BMatP= 3.40D-05
 IDIUse=3 WtCom= 9.99D-01 WtEn= 1.28D-03
 Coeff-Com:  0.790D-03-0.261D-02-0.242D-01-0.827D-01 0.877D-01 0.102D+01
 Coeff-En:   0.000D+00 0.000D+00 0.000D+00 0.000D+00 0.000D+00 0.100D+01
 Coeff:      0.789D-03-0.261D-02-0.242D-01-0.826D-01 0.876D-01 0.102D+01
 Gap=     0.286 Goal=   None    Shift=    0.000
 Gap=     0.286 Goal=   None    Shift=    0.000
 RMSDP=1.51D-05 MaxDP=4.26D-04 DE=-1.20D-05 OVMax= 9.29D-04

 Cycle   7  Pass 0  IDiag  1:
 E= -476.734499387783     Delta-E=       -0.000001614023 Rises=F Damp=F
 DIIS: error= 1.39D-05 at cycle   7 NSaved=   7.
 NSaved= 7 IEnMin= 7 EnMin= -476.734499387783     IErMin= 7 ErrMin= 1.39D-05
 ErrMax= 1.39D-05  0.00D+00 EMaxC= 1.00D-01 BMatC= 9.23D-08 BMatP= 2.94D-06
 IDIUse=1 WtCom= 1.00D+00 WtEn= 0.00D+00
 Coeff-Com: -0.147D-03 0.434D-03 0.196D-02 0.789D-03-0.296D-01-0.788D-01
 Coeff-Com:  0.111D+01
 Coeff:     -0.147D-03 0.434D-03 0.196D-02 0.789D-03-0.296D-01-0.788D-01
 Coeff:      0.111D+01
 Gap=     0.286 Goal=   None    Shift=    0.000
 Gap=     0.286 Goal=   None    Shift=    0.000
 RMSDP=2.69D-06 MaxDP=5.50D-05 DE=-1.61D-06 OVMax= 1.63D-04

 Initial convergence to 1.0D-05 achieved.  Increase integral accuracy.
 Cycle   8  Pass 1  IDiag  1:
 E= -476.734518181970     Delta-E=       -0.000018794187 Rises=F Damp=F
 DIIS: error= 8.99D-05 at cycle   1 NSaved=   1.
 NSaved= 1 IEnMin= 1 EnMin= -476.734518181970     IErMin= 1 ErrMin= 8.99D-05
 ErrMax= 8.99D-05  0.00D+00 EMaxC= 1.00D-01 BMatC= 1.74D-06 BMatP= 1.74D-06
 IDIUse=1 WtCom= 1.00D+00 WtEn= 0.00D+00
 Coeff-Com:  0.100D+01
 Coeff:      0.100D+01
 Gap=     0.286 Goal=   None    Shift=    0.000
 Gap=     0.286 Goal=   None    Shift=    0.000
 RMSDP=2.69D-06 MaxDP=5.50D-05 DE=-1.88D-05 OVMax= 9.08D-05

 Cycle   9  Pass 1  IDiag  1:
 E= -476.734518341856     Delta-E=       -0.000000159886 Rises=F Damp=F
 DIIS: error= 1.28D-05 at cycle   2 NSaved=   2.
 NSaved= 2 IEnMin= 2 EnMin= -476.734518341856     IErMin= 2 ErrMin= 1.28D-05
 ErrMax= 1.28D-05  0.00D+00 EMaxC= 1.00D-01 BMatC= 6.84D-08 BMatP= 1.74D-06
 IDIUse=1 WtCom= 1.00D+00 WtEn= 0.00D+00
 Coeff-Com:  0.227D-01 0.977D+00
 Coeff:      0.227D-01 0.977D+00
 Gap=     0.286 Goal=   None    Shift=    0.000
 Gap=     0.286 Goal=   None    Shift=    0.000
 RMSDP=1.41D-06 MaxDP=3.42D-05 DE=-1.60D-07 OVMax= 1.36D-04

 Cycle  10  Pass 1  IDiag  1:
 E= -476.734518332485     Delta-E=        0.000000009371 Rises=F Damp=F
 DIIS: error= 1.88D-05 at cycle   3 NSaved=   3.
 NSaved= 3 IEnMin= 2 EnMin= -476.734518341856     IErMin= 2 ErrMin= 1.28D-05
 ErrMax= 1.88D-05  0.00D+00 EMaxC= 1.00D-01 BMatC= 9.54D-08 BMatP= 6.84D-08
 IDIUse=1 WtCom= 1.00D+00 WtEn= 0.00D+00
 Coeff-Com: -0.248D-01 0.555D+00 0.470D+00
 Coeff:     -0.248D-01 0.555D+00 0.470D+00
 Gap=     0.286 Goal=   None    Shift=    0.000
 Gap=     0.286 Goal=   None    Shift=    0.000
 RMSDP=8.46D-07 MaxDP=1.94D-05 DE= 9.37D-09 OVMax= 9.05D-05

 Cycle  11  Pass 1  IDiag  1:
 E= -476.734518356843     Delta-E=       -0.000000024359 Rises=F Damp=F
 DIIS: error= 2.21D-06 at cycle   4 NSaved=   4.
 NSaved= 4 IEnMin= 4 EnMin= -476.734518356843     IErMin= 4 ErrMin= 2.21D-06
 ErrMax= 2.21D-06  0.00D+00 EMaxC= 1.00D-01 BMatC= 1.81D-09 BMatP= 6.84D-08
 IDIUse=1 WtCom= 1.00D+00 WtEn= 0.00D+00
 Coeff-Com: -0.105D-01 0.142D+00 0.180D+00 0.688D+00
 Coeff:     -0.105D-01 0.142D+00 0.180D+00 0.688D+00
 Gap=     0.286 Goal=   None    Shift=    0.000
 Gap=     0.286 Goal=   None    Shift=    0.000
 RMSDP=1.24D-07 MaxDP=3.72D-06 DE=-2.44D-08 OVMax= 1.03D-05

 Cycle  12  Pass 1  IDiag  1:
 E= -476.734518357269     Delta-E=       -0.000000000425 Rises=F Damp=F
 DIIS: error= 4.01D-07 at cycle   5 NSaved=   5.
 NSaved= 5 IEnMin= 5 EnMin= -476.734518357269     IErMin= 5 ErrMin= 4.01D-07
 ErrMax= 4.01D-07  0.00D+00 EMaxC= 1.00D-01 BMatC= 5.07D-11 BMatP= 1.81D-09
 IDIUse=1 WtCom= 1.00D+00 WtEn= 0.00D+00
 Coeff-Com:  0.712D-03-0.270D-01-0.130D-01 0.880D-01 0.951D+00
 Coeff:      0.712D-03-0.270D-01-0.130D-01 0.880D-01 0.951D+00
 Gap=     0.286 Goal=   None    Shift=    0.000
 Gap=     0.286 Goal=   None    Shift=    0.000
 RMSDP=4.51D-08 MaxDP=1.50D-06 DE=-4.25D-10 OVMax= 1.65D-06

 Cycle  13  Pass 1  IDiag  1:
 E= -476.734518357285     Delta-E=       -0.000000000016 Rises=F Damp=F
 DIIS: error= 1.99D-07 at cycle   6 NSaved=   6.
 NSaved= 6 IEnMin= 6 EnMin= -476.734518357285     IErMin= 6 ErrMin= 1.99D-07
 ErrMax= 1.99D-07  0.00D+00 EMaxC= 1.00D-01 BMatC= 9.20D-12 BMatP= 5.07D-11
 IDIUse=1 WtCom= 1.00D+00 WtEn= 0.00D+00
 Coeff-Com:  0.835D-03-0.171D-01-0.175D-01-0.324D-01 0.332D+00 0.734D+00
 Coeff:      0.835D-03-0.171D-01-0.175D-01-0.324D-01 0.332D+00 0.734D+00
 Gap=     0.286 Goal=   None    Shift=    0.000
 Gap=     0.286 Goal=   None    Shift=    0.000
 RMSDP=1.54D-08 MaxDP=4.90D-07 DE=-1.63D-11 OVMax= 8.58D-07

 Cycle  14  Pass 1  IDiag  1:
 E= -476.734518357289     Delta-E=       -0.000000000004 Rises=F Damp=F
 DIIS: error= 4.45D-08 at cycle   7 NSaved=   7.
 NSaved= 7 IEnMin= 7 EnMin= -476.734518357289     IErMin= 7 ErrMin= 4.45D-08
 ErrMax= 4.45D-08  0.00D+00 EMaxC= 1.00D-01 BMatC= 7.85D-13 BMatP= 9.20D-12
 IDIUse=1 WtCom= 1.00D+00 WtEn= 0.00D+00
 Coeff-Com:  0.236D-03-0.333D-02-0.472D-02-0.188D-01 0.177D-01 0.246D+00
 Coeff-Com:  0.763D+00
 Coeff:      0.236D-03-0.333D-02-0.472D-02-0.188D-01 0.177D-01 0.246D+00
 Coeff:      0.763D+00
 Gap=     0.286 Goal=   None    Shift=    0.000
 Gap=     0.286 Goal=   None    Shift=    0.000
 RMSDP=5.77D-09 MaxDP=8.28D-08 DE=-3.87D-12 OVMax= 2.20D-07

 SCF Done:  E(UwB97XD) =  -476.734518357     A.U. after   14 cycles
            NFock= 14  Conv=0.58D-08     -V/T= 2.0025
 <Sx>= 0.0000 <Sy>= 0.0000 <Sz>= 0.0000 <S**2>=-0.0000 S=-0.0000
 <L.S>=  0.00000000000    
 KE= 4.755577582487D+02 PE=-1.328893049751D+03 EE= 2.762939608462D+02
 Annihilation of the first spin contaminant:
 S**2 before annihilation    -0.0000,   after     0.0000
 Leave Link  502 at Tue Jan  3 09:06:11 2023, MaxMem=   536870912 cpu:              28.0 elap:              14.3
 (Enter /opt/software/gaussian/g16.c01/l508.exe)
 QCSCF skips out because SCF is already converged.
 Leave Link  508 at Tue Jan  3 09:06:11 2023, MaxMem=   536870912 cpu:               0.0 elap:               0.0
 (Enter /opt/software/gaussian/g16.c01/l601.exe)
 Copying SCF densities to generalized density rwf, IOpCl= 1 IROHF=0.

 **********************************************************************

            Population analysis using the SCF Density.

 **********************************************************************

 Alpha  occ. eigenvalues --  -89.08585 -10.29731 -10.29729  -8.11445  -6.06066
 Alpha  occ. eigenvalues --   -6.06024  -6.05688  -0.94949  -0.79388  -0.66391
 Alpha  occ. eigenvalues --   -0.55720  -0.54565  -0.48645  -0.44573  -0.41504
 Alpha  occ. eigenvalues --   -0.27348
 Alpha virt. eigenvalues --    0.01230   0.12685   0.13747   0.15087   0.17325
 Alpha virt. eigenvalues --    0.18726   0.21893   0.24534   0.29008   0.29388
 Alpha virt. eigenvalues --    0.30038   0.33635   0.33862   0.34333   0.38084
 Alpha virt. eigenvalues --    0.38214   0.46699   0.47182   0.48742   0.50502
 Alpha virt. eigenvalues --    0.52896   0.53590   0.59236   0.62958   0.64130
 Alpha virt. eigenvalues --    0.72098   0.74719   0.75613   0.81266   0.83505
 Alpha virt. eigenvalues --    0.98387   1.02485   1.03939   1.06065   1.06101
 Alpha virt. eigenvalues --    1.09266   1.15899   1.17417   1.41467   1.50710
 Alpha virt. eigenvalues --    1.52735   1.53699   1.54293   1.57244   1.62728
 Alpha virt. eigenvalues --    1.63011   1.63393   1.65853   1.66719   1.71552
 Alpha virt. eigenvalues --    1.72070   1.76258   1.76995   1.80873   1.85932
 Alpha virt. eigenvalues --    1.87175   1.87973   1.96820   2.01877   2.06068
 Alpha virt. eigenvalues --    2.11346   2.13615   2.17789   2.22538   2.25435
 Alpha virt. eigenvalues --    2.36397   2.39034   2.41710   2.54157   2.59779
 Alpha virt. eigenvalues --    2.60892   2.67376   2.73327   2.78038   2.82032
 Alpha virt. eigenvalues --    2.86148   2.93339   3.01785   3.06244   3.14967
 Alpha virt. eigenvalues --    3.16446   3.21740   3.26177   3.27912   3.33631
 Alpha virt. eigenvalues --    3.38184   3.39322   3.39492   3.41555   3.56425
 Alpha virt. eigenvalues --    3.56516   3.56964   3.65939   3.66993   3.74268
 Alpha virt. eigenvalues --    3.84018   3.97209   4.17622   4.17827   4.49992
 Alpha virt. eigenvalues --    4.56276   8.92204   9.20926   9.65414  20.67395
 Alpha virt. eigenvalues --   22.01376  22.09315
  Beta  occ. eigenvalues --  -89.08585 -10.29731 -10.29729  -8.11445  -6.06066
  Beta  occ. eigenvalues --   -6.06024  -6.05688  -0.94949  -0.79388  -0.66391
  Beta  occ. eigenvalues --   -0.55720  -0.54565  -0.48645  -0.44573  -0.41504
  Beta  occ. eigenvalues --   -0.27348
  Beta virt. eigenvalues --    0.01230   0.12685   0.13747   0.15087   0.17325
  Beta virt. eigenvalues --    0.18726   0.21893   0.24534   0.29008   0.29388
  Beta virt. eigenvalues --    0.30038   0.33635   0.33862   0.34333   0.38084
  Beta virt. eigenvalues --    0.38214   0.46699   0.47182   0.48742   0.50502
  Beta virt. eigenvalues --    0.52896   0.53590   0.59236   0.62958   0.64130
  Beta virt. eigenvalues --    0.72098   0.74719   0.75613   0.81266   0.83505
  Beta virt. eigenvalues --    0.98387   1.02485   1.03939   1.06065   1.06101
  Beta virt. eigenvalues --    1.09266   1.15899   1.17417   1.41467   1.50710
  Beta virt. eigenvalues --    1.52735   1.53699   1.54293   1.57244   1.62728
  Beta virt. eigenvalues --    1.63011   1.63393   1.65853   1.66719   1.71552
  Beta virt. eigenvalues --    1.72070   1.76258   1.76995   1.80873   1.85932
  Beta virt. eigenvalues --    1.87175   1.87973   1.96820   2.01877   2.06068
  Beta virt. eigenvalues --    2.11346   2.13615   2.17789   2.22538   2.25435
  Beta virt. eigenvalues --    2.36397   2.39034   2.41710   2.54157   2.59779
  Beta virt. eigenvalues --    2.60892   2.67376   2.73327   2.78038   2.82032
  Beta virt. eigenvalues --    2.86148   2.93339   3.01785   3.06244   3.14967
  Beta virt. eigenvalues --    3.16446   3.21740   3.26177   3.27912   3.33631
  Beta virt. eigenvalues --    3.38184   3.39322   3.39492   3.41555   3.56425
  Beta virt. eigenvalues --    3.56516   3.56964   3.65939   3.66993   3.74268
  Beta virt. eigenvalues --    3.84018   3.97209   4.17622   4.17827   4.49992
  Beta virt. eigenvalues --    4.56276   8.92204   9.20926   9.65414  20.67395
  Beta virt. eigenvalues --   22.01376  22.09315
          Condensed to atoms (all electrons):
               1          2          3          4          5          6
     1  C    5.191252   0.501354  -0.089766   0.409115   0.415927   0.002428
     2  S    0.501354  14.920472   0.501357  -0.037263  -0.043516  -0.043519
     3  C   -0.089766   0.501357   5.191182   0.002125   0.002430   0.415931
     4  H    0.409115  -0.037263   0.002125   0.482001  -0.017250  -0.000112
     5  H    0.415927  -0.043516   0.002430  -0.017250   0.488259   0.002524
     6  H    0.002428  -0.043519   0.415931  -0.000112   0.002524   0.488262
     7  H    0.002125  -0.037264   0.409114  -0.000093  -0.000112  -0.017252
               7
     1  C    0.002125
     2  S   -0.037264
     3  C    0.409114
     4  H   -0.000093
     5  H   -0.000112
     6  H   -0.017252
     7  H    0.482004
          Atomic-Atomic Spin Densities.
               1          2          3          4          5          6
     1  C    0.000000   0.000000   0.000000   0.000000   0.000000   0.000000
     2  S    0.000000   0.000000   0.000000   0.000000   0.000000   0.000000
     3  C    0.000000   0.000000   0.000000   0.000000   0.000000   0.000000
     4  H    0.000000   0.000000   0.000000   0.000000   0.000000   0.000000
     5  H    0.000000   0.000000   0.000000   0.000000   0.000000   0.000000
     6  H    0.000000   0.000000   0.000000   0.000000   0.000000   0.000000
     7  H    0.000000   0.000000   0.000000   0.000000   0.000000   0.000000
               7
     1  C    0.000000
     2  S    0.000000
     3  C    0.000000
     4  H    0.000000
     5  H    0.000000
     6  H    0.000000
     7  H    0.000000
 Mulliken charges and spin densities:
               1          2
     1  C   -0.432435   0.000000
     2  S    0.238379   0.000000
     3  C   -0.432375   0.000000
     4  H    0.161477   0.000000
     5  H    0.151738   0.000000
     6  H    0.151738   0.000000
     7  H    0.161477   0.000000
 Sum of Mulliken charges =  -0.00000   0.00000
 Mulliken charges and spin densities with hydrogens summed into heavy atoms:
               1          2
     1  C   -0.119220   0.000000
     2  S    0.238379   0.000000
     3  C   -0.119159   0.000000
 Electronic spatial extent (au):  <R**2>=            870.4640
 Charge=             -0.0000 electrons
 Dipole moment (field-independent basis, Debye):
    X=             -0.1314    Y=              0.0665    Z=             -0.1752  Tot=              0.2289
 Quadrupole moment (field-independent basis, Debye-Ang):
   XX=            -24.8819   YY=            -28.3541   ZZ=            -24.9357
   XY=              0.4454   XZ=             -0.2799   YZ=             -1.8461
 Traceless Quadrupole moment (field-independent basis, Debye-Ang):
   XX=              1.1754   YY=             -2.2969   ZZ=              1.1215
   XY=              0.4454   XZ=             -0.2799   YZ=             -1.8461
 Octapole moment (field-independent basis, Debye-Ang**2):
  XXX=           -169.8368  YYY=            -21.5428  ZZZ=             26.3721  XYY=            -65.5003
  XXY=             -3.6366  XXZ=              7.1331  XZZ=            -60.6290  YZZ=             -3.8784
  YYZ=              9.8191  XYZ=             -3.0839
 Hexadecapole moment (field-independent basis, Debye-Ang**3):
 XXXX=           -933.7733 YYYY=            -68.6342 ZZZZ=           -120.0606 XXXY=            -45.2732
 XXXZ=             77.6933 YYYX=            -70.7738 YYYZ=             26.5199 ZZZX=             92.0338
 ZZZY=             16.5357 XXYY=           -193.0513 XXZZ=           -192.9285 YYZZ=            -30.0827
 XXYZ=             -1.0740 YYXZ=             33.2848 ZZXY=            -13.0926
 N-N= 1.003068122987D+02 E-N=-1.328893052416D+03  KE= 4.755577582487D+02
                          Isotropic Fermi Contact Couplings
        Atom                 a.u.       MegaHertz       Gauss      10(-4) cm-1
     1  C(13)              0.00000       0.00000       0.00000       0.00000
     2  S(33)              0.00000       0.00000       0.00000       0.00000
     3  C(13)              0.00000       0.00000       0.00000       0.00000
     4  H(1)               0.00000       0.00000       0.00000       0.00000
     5  H(1)               0.00000       0.00000       0.00000       0.00000
     6  H(1)               0.00000       0.00000       0.00000       0.00000
     7  H(1)               0.00000       0.00000       0.00000       0.00000
 --------------------------------------------------------
       Center         ----  Spin Dipole Couplings  ----
                      3XX-RR        3YY-RR        3ZZ-RR
 --------------------------------------------------------
     1   Atom        0.000000      0.000000      0.000000
     2   Atom        0.000000      0.000000      0.000000
     3   Atom        0.000000      0.000000      0.000000
     4   Atom        0.000000      0.000000      0.000000
     5   Atom        0.000000      0.000000      0.000000
     6   Atom        0.000000      0.000000      0.000000
     7   Atom        0.000000      0.000000      0.000000
 --------------------------------------------------------
                        XY            XZ            YZ
 --------------------------------------------------------
     1   Atom        0.000000      0.000000      0.000000
     2   Atom        0.000000      0.000000      0.000000
     3   Atom        0.000000      0.000000      0.000000
     4   Atom        0.000000      0.000000      0.000000
     5   Atom        0.000000      0.000000      0.000000
     6   Atom        0.000000      0.000000      0.000000
     7   Atom        0.000000      0.000000      0.000000
 --------------------------------------------------------


 ---------------------------------------------------------------------------------
              Anisotropic Spin Dipole Couplings in Principal Axis System
 ---------------------------------------------------------------------------------

       Atom             a.u.   MegaHertz   Gauss  10(-4) cm-1        Axes

              Baa     0.0000     0.000     0.000     0.000  1.0000  0.0000  0.0000
     1 C(13)  Bbb     0.0000     0.000     0.000     0.000 -0.0000  1.0000  0.0000
              Bcc     0.0000     0.000     0.000     0.000  0.0000  0.0000  1.0000
 
              Baa     0.0000     0.000     0.000     0.000  1.0000  0.0000  0.0000
     2 S(33)  Bbb     0.0000     0.000     0.000     0.000 -0.0000  1.0000  0.0000
              Bcc     0.0000     0.000     0.000     0.000  0.0000  0.0000  1.0000
 
              Baa     0.0000     0.000     0.000     0.000  1.0000  0.0000  0.0000
     3 C(13)  Bbb     0.0000     0.000     0.000     0.000 -0.0000  1.0000  0.0000
              Bcc     0.0000     0.000     0.000     0.000  0.0000  0.0000  1.0000
 
              Baa     0.0000     0.000     0.000     0.000  1.0000  0.0000  0.0000
     4 H(1)   Bbb     0.0000     0.000     0.000     0.000 -0.0000  1.0000  0.0000
              Bcc     0.0000     0.000     0.000     0.000  0.0000  0.0000  1.0000
 
              Baa     0.0000     0.000     0.000     0.000  1.0000  0.0000  0.0000
     5 H(1)   Bbb     0.0000     0.000     0.000     0.000 -0.0000  1.0000  0.0000
              Bcc     0.0000     0.000     0.000     0.000  0.0000  0.0000  1.0000
 
              Baa     0.0000     0.000     0.000     0.000  1.0000  0.0000  0.0000
     6 H(1)   Bbb     0.0000     0.000     0.000     0.000 -0.0000  1.0000  0.0000
              Bcc     0.0000     0.000     0.000     0.000  0.0000  0.0000  1.0000
 
              Baa     0.0000     0.000     0.000     0.000  1.0000  0.0000  0.0000
     7 H(1)   Bbb     0.0000     0.000     0.000     0.000 -0.0000  1.0000  0.0000
              Bcc     0.0000     0.000     0.000     0.000  0.0000  0.0000  1.0000
 

 ---------------------------------------------------------------------------------

 No NMR shielding tensors so no spin-rotation constants.
 Leave Link  601 at Tue Jan  3 09:06:11 2023, MaxMem=   536870912 cpu:               0.3 elap:               0.2
 (Enter /opt/software/gaussian/g16.c01/l801.exe)
 DoSCS=F DFT=T ScalE2(SS,OS)=  1.000000  1.000000
 Range of M.O.s used for correlation:     1   123
 NBasis=   123 NAE=    16 NBE=    16 NFC=     0 NFV=     0
 NROrb=    123 NOA=    16 NOB=    16 NVA=   107 NVB=   107
 Leave Link  801 at Tue Jan  3 09:06:11 2023, MaxMem=   536870912 cpu:               0.1 elap:               0.0
 (Enter /opt/software/gaussian/g16.c01/l914.exe)
 UHF ground state
 Doing stability rather than CIS.
 Keep R1 and R2 ints in memory in canonical form, NReq=121984880.
 FoFCou: FMM=F IPFlag=           0 FMFlag=           0 FMFlg1=           0
         NFxFlg=           0 DoJE=F BraDBF=F KetDBF=F FulRan=T
         wScrn=  0.000000 ICntrl=       600 IOpCl=  0 I1Cent=           0 NGrid=           0
         NMat0=    1 NMatS0=   7626 NMatT0=    0 NMatD0=    1 NMtDS0=    0 NMtDT0=    0
 Symmetry not used in FoFCou.
 Two-electron integral symmetry not used.
 MDV=   536870912 DFT=T DoStab=T Mixed=T DoRPA=F DoScal=F NonHer=F
 Making orbital integer symmetry assigments:
    12 initial guesses have been made.
 Convergence on wavefunction:    0.001000000000000
 Davidson Disk Diagonalization:  ConvIn= 1.00D-03 SkipCon=T Conv= 1.00D-03.
 Max sub-space:  2000 roots to seek:    12 dimension of matrix:         3424
 Iteration     1 Dimension    12 NMult     0 NNew     12
 CISAX will form    12 AO SS matrices at one time.
 NMat=    12 NSing=    12 JSym2X= 0.
 Excitation Energies [eV] at current iteration:
 Root      1 :     0.725257244999419
 Root      2 :     5.216431764715254
 Root      3 :     5.859762209128543
 Root      4 :     6.087994530493111
 Root      5 :     6.160260015360802
 Root      6 :     6.485288809967088
 Root      7 :     6.626281971495047
 Root      8 :     6.733522970998696
 Root      9 :     7.421804469379051
 Root     10 :     7.614674745589671
 Root     11 :     7.682918880915770
 Root     12 :     9.842168516106026
 Iteration     2 Dimension    24 NMult    12 NNew     12
 CISAX will form    12 AO SS matrices at one time.
 NMat=    12 NSing=    12 JSym2X= 0.
 Root      1 not converged, maximum delta is    0.081391066920857
 Excitation Energies [eV] at current iteration:
 Root      1 :     0.257783266892224   Change is   -0.467473978107196
 Root      2 :     4.797154174873026   Change is   -0.419277589842228
 Root      3 :     5.377782390165557   Change is   -4.464386125940469
 Root      4 :     5.552080867004670   Change is   -0.535913663488441
 Root      5 :     5.620394953404453   Change is   -0.239367255724090
 Root      6 :     5.901813660920051   Change is   -0.258446354440752
 Root      7 :     6.228408928454455   Change is   -0.256879881512633
 Root      8 :     6.401209760056349   Change is   -0.225072211438697
 Root      9 :     6.588926918125350   Change is   -0.144596052873347
 Root     10 :     7.059185941436493   Change is   -0.555488804153178
 Root     11 :     7.159289997142996   Change is   -0.262514472236056
 Root     12 :     7.521523566790211   Change is   -0.161395314125558
 Iteration     3 Dimension    27 NMult    24 NNew      3
 CISAX will form     3 AO SS matrices at one time.
 NMat=     3 NSing=     3 JSym2X= 0.
 Root      1 not converged, maximum delta is    0.004707207881952
 Excitation Energies [eV] at current iteration:
 Root      1 :     0.250407165277000   Change is   -0.007376101615224
 Root      2 :     4.785014434124200   Change is   -0.012139740748826
 Root      3 :     5.195172001717390   Change is   -0.182610388448168
 Iteration     4 Dimension    30 NMult    27 NNew      3
 CISAX will form     3 AO SS matrices at one time.
 NMat=     3 NSing=     3 JSym2X= 0.
 Root      1 not converged, maximum delta is    0.001101350313515
 Excitation Energies [eV] at current iteration:
 Root      1 :     0.250152611430441   Change is   -0.000254553846559
 Root      2 :     4.783972741931422   Change is   -0.001041692192778
 Root      3 :     5.182872378501262   Change is   -0.012299623216128
 Iteration     5 Dimension    33 NMult    30 NNew      3
 CISAX will form     3 AO SS matrices at one time.
 NMat=     3 NSing=     3 JSym2X= 0.
 Root      1 has converged.
 Excitation Energies [eV] at current iteration:
 Root      1 :     0.250146495148124   Change is   -0.000006116282318
 Root      2 :     4.783861991383490   Change is   -0.000110750547932
 Root      3 :     5.181737605595897   Change is   -0.001134772905365
 Convergence achieved on expansion vectors.
 ***********************************************************************
 Stability analysis using <AA,BB:AA,BB> singles matrix:
 ***********************************************************************
 1PDM for each excited state written to RWF  633
 Ground to excited state transition densities written to RWF  633

 Eigenvectors of the stability matrix:
 
 Excited state symmetry could not be determined.
 Eigenvector   1:  3.000-?Sym  Eigenvalue= 0.0091927  <S**2>=2.000
     16A -> 17A        0.69366
     16B -> 17B       -0.69366
 The wavefunction is stable under the perturbations considered.
 Leave Link  914 at Tue Jan  3 09:07:19 2023, MaxMem=   536870912 cpu:             134.6 elap:              67.3
 (Enter /opt/software/gaussian/g16.c01/l508.exe)
 The wavefunction is already stable.
 Leave Link  508 at Tue Jan  3 09:07:19 2023, MaxMem=   536870912 cpu:               0.0 elap:               0.0
 (Enter /opt/software/gaussian/g16.c01/l601.exe)
 Copying SCF densities to generalized density rwf, IOpCl= 1 IROHF=0.

 **********************************************************************

            Population analysis using the SCF Density.

 **********************************************************************

 Alpha  occ. eigenvalues --  -89.08585 -10.29731 -10.29729  -8.11445  -6.06066
 Alpha  occ. eigenvalues --   -6.06024  -6.05688  -0.94949  -0.79388  -0.66391
 Alpha  occ. eigenvalues --   -0.55720  -0.54565  -0.48645  -0.44573  -0.41504
 Alpha  occ. eigenvalues --   -0.27348
 Alpha virt. eigenvalues --    0.01230   0.12685   0.13747   0.15087   0.17325
 Alpha virt. eigenvalues --    0.18726   0.21893   0.24534   0.29008   0.29388
 Alpha virt. eigenvalues --    0.30038   0.33635   0.33862   0.34333   0.38084
 Alpha virt. eigenvalues --    0.38214   0.46699   0.47182   0.48742   0.50502
 Alpha virt. eigenvalues --    0.52896   0.53590   0.59236   0.62958   0.64130
 Alpha virt. eigenvalues --    0.72098   0.74719   0.75613   0.81266   0.83505
 Alpha virt. eigenvalues --    0.98387   1.02485   1.03939   1.06065   1.06101
 Alpha virt. eigenvalues --    1.09266   1.15899   1.17417   1.41467   1.50710
 Alpha virt. eigenvalues --    1.52735   1.53699   1.54293   1.57244   1.62728
 Alpha virt. eigenvalues --    1.63011   1.63393   1.65853   1.66719   1.71552
 Alpha virt. eigenvalues --    1.72070   1.76258   1.76995   1.80873   1.85932
 Alpha virt. eigenvalues --    1.87175   1.87973   1.96820   2.01877   2.06068
 Alpha virt. eigenvalues --    2.11346   2.13615   2.17789   2.22538   2.25435
 Alpha virt. eigenvalues --    2.36397   2.39034   2.41710   2.54157   2.59779
 Alpha virt. eigenvalues --    2.60892   2.67376   2.73327   2.78038   2.82032
 Alpha virt. eigenvalues --    2.86148   2.93339   3.01785   3.06244   3.14967
 Alpha virt. eigenvalues --    3.16446   3.21740   3.26177   3.27912   3.33631
 Alpha virt. eigenvalues --    3.38184   3.39322   3.39492   3.41555   3.56425
 Alpha virt. eigenvalues --    3.56516   3.56964   3.65939   3.66993   3.74268
 Alpha virt. eigenvalues --    3.84018   3.97209   4.17622   4.17827   4.49992
 Alpha virt. eigenvalues --    4.56276   8.92204   9.20926   9.65414  20.67395
 Alpha virt. eigenvalues --   22.01376  22.09315
  Beta  occ. eigenvalues --  -89.08585 -10.29731 -10.29729  -8.11445  -6.06066
  Beta  occ. eigenvalues --   -6.06024  -6.05688  -0.94949  -0.79388  -0.66391
  Beta  occ. eigenvalues --   -0.55720  -0.54565  -0.48645  -0.44573  -0.41504
  Beta  occ. eigenvalues --   -0.27348
  Beta virt. eigenvalues --    0.01230   0.12685   0.13747   0.15087   0.17325
  Beta virt. eigenvalues --    0.18726   0.21893   0.24534   0.29008   0.29388
  Beta virt. eigenvalues --    0.30038   0.33635   0.33862   0.34333   0.38084
  Beta virt. eigenvalues --    0.38214   0.46699   0.47182   0.48742   0.50502
  Beta virt. eigenvalues --    0.52896   0.53590   0.59236   0.62958   0.64130
  Beta virt. eigenvalues --    0.72098   0.74719   0.75613   0.81266   0.83505
  Beta virt. eigenvalues --    0.98387   1.02485   1.03939   1.06065   1.06101
  Beta virt. eigenvalues --    1.09266   1.15899   1.17417   1.41467   1.50710
  Beta virt. eigenvalues --    1.52735   1.53699   1.54293   1.57244   1.62728
  Beta virt. eigenvalues --    1.63011   1.63393   1.65853   1.66719   1.71552
  Beta virt. eigenvalues --    1.72070   1.76258   1.76995   1.80873   1.85932
  Beta virt. eigenvalues --    1.87175   1.87973   1.96820   2.01877   2.06068
  Beta virt. eigenvalues --    2.11346   2.13615   2.17789   2.22538   2.25435
  Beta virt. eigenvalues --    2.36397   2.39034   2.41710   2.54157   2.59779
  Beta virt. eigenvalues --    2.60892   2.67376   2.73327   2.78038   2.82032
  Beta virt. eigenvalues --    2.86148   2.93339   3.01785   3.06244   3.14967
  Beta virt. eigenvalues --    3.16446   3.21740   3.26177   3.27912   3.33631
  Beta virt. eigenvalues --    3.38184   3.39322   3.39492   3.41555   3.56425
  Beta virt. eigenvalues --    3.56516   3.56964   3.65939   3.66993   3.74268
  Beta virt. eigenvalues --    3.84018   3.97209   4.17622   4.17827   4.49992
  Beta virt. eigenvalues --    4.56276   8.92204   9.20926   9.65414  20.67395
  Beta virt. eigenvalues --   22.01376  22.09315
          Condensed to atoms (all electrons):
               1          2          3          4          5          6
     1  C    5.191252   0.501354  -0.089766   0.409115   0.415927   0.002428
     2  S    0.501354  14.920472   0.501357  -0.037263  -0.043516  -0.043519
     3  C   -0.089766   0.501357   5.191182   0.002125   0.002430   0.415931
     4  H    0.409115  -0.037263   0.002125   0.482001  -0.017250  -0.000112
     5  H    0.415927  -0.043516   0.002430  -0.017250   0.488259   0.002524
     6  H    0.002428  -0.043519   0.415931  -0.000112   0.002524   0.488262
     7  H    0.002125  -0.037264   0.409114  -0.000093  -0.000112  -0.017252
               7
     1  C    0.002125
     2  S   -0.037264
     3  C    0.409114
     4  H   -0.000093
     5  H   -0.000112
     6  H   -0.017252
     7  H    0.482004
          Atomic-Atomic Spin Densities.
               1          2          3          4          5          6
     1  C    0.000000   0.000000   0.000000   0.000000   0.000000   0.000000
     2  S    0.000000   0.000000   0.000000   0.000000   0.000000   0.000000
     3  C    0.000000   0.000000   0.000000   0.000000   0.000000   0.000000
     4  H    0.000000   0.000000   0.000000   0.000000   0.000000   0.000000
     5  H    0.000000   0.000000   0.000000   0.000000   0.000000   0.000000
     6  H    0.000000   0.000000   0.000000   0.000000   0.000000   0.000000
     7  H    0.000000   0.000000   0.000000   0.000000   0.000000   0.000000
               7
     1  C    0.000000
     2  S    0.000000
     3  C    0.000000
     4  H    0.000000
     5  H    0.000000
     6  H    0.000000
     7  H    0.000000
 Mulliken charges and spin densities:
               1          2
     1  C   -0.432435   0.000000
     2  S    0.238379   0.000000
     3  C   -0.432375   0.000000
     4  H    0.161477   0.000000
     5  H    0.151738   0.000000
     6  H    0.151738   0.000000
     7  H    0.161477   0.000000
 Sum of Mulliken charges =  -0.00000   0.00000
 Mulliken charges and spin densities with hydrogens summed into heavy atoms:
               1          2
     1  C   -0.119220   0.000000
     2  S    0.238379   0.000000
     3  C   -0.119159   0.000000
 Electronic spatial extent (au):  <R**2>=            870.4640
 Charge=             -0.0000 electrons
 Dipole moment (field-independent basis, Debye):
    X=             -0.1314    Y=              0.0665    Z=             -0.1752  Tot=              0.2289
 Quadrupole moment (field-independent basis, Debye-Ang):
   XX=            -24.8819   YY=            -28.3541   ZZ=            -24.9357
   XY=              0.4454   XZ=             -0.2799   YZ=             -1.8461
 Traceless Quadrupole moment (field-independent basis, Debye-Ang):
   XX=              1.1754   YY=             -2.2969   ZZ=              1.1215
   XY=              0.4454   XZ=             -0.2799   YZ=             -1.8461
 Octapole moment (field-independent basis, Debye-Ang**2):
  XXX=           -169.8368  YYY=            -21.5428  ZZZ=             26.3721  XYY=            -65.5003
  XXY=             -3.6366  XXZ=              7.1331  XZZ=            -60.6290  YZZ=             -3.8784
  YYZ=              9.8191  XYZ=             -3.0839
 Hexadecapole moment (field-independent basis, Debye-Ang**3):
 XXXX=           -933.7733 YYYY=            -68.6342 ZZZZ=           -120.0606 XXXY=            -45.2732
 XXXZ=             77.6933 YYYX=            -70.7738 YYYZ=             26.5199 ZZZX=             92.0338
 ZZZY=             16.5357 XXYY=           -193.0513 XXZZ=           -192.9285 YYZZ=            -30.0827
 XXYZ=             -1.0740 YYXZ=             33.2848 ZZXY=            -13.0926
 N-N= 1.003068122987D+02 E-N=-1.328893052416D+03  KE= 4.755577582487D+02
                          Isotropic Fermi Contact Couplings
        Atom                 a.u.       MegaHertz       Gauss      10(-4) cm-1
     1  C(13)              0.00000       0.00000       0.00000       0.00000
     2  S(33)              0.00000       0.00000       0.00000       0.00000
     3  C(13)              0.00000       0.00000       0.00000       0.00000
     4  H(1)               0.00000       0.00000       0.00000       0.00000
     5  H(1)               0.00000       0.00000       0.00000       0.00000
     6  H(1)               0.00000       0.00000       0.00000       0.00000
     7  H(1)               0.00000       0.00000       0.00000       0.00000
 --------------------------------------------------------
       Center         ----  Spin Dipole Couplings  ----
                      3XX-RR        3YY-RR        3ZZ-RR
 --------------------------------------------------------
     1   Atom        0.000000      0.000000      0.000000
     2   Atom        0.000000      0.000000      0.000000
     3   Atom        0.000000      0.000000      0.000000
     4   Atom        0.000000      0.000000      0.000000
     5   Atom        0.000000      0.000000      0.000000
     6   Atom        0.000000      0.000000      0.000000
     7   Atom        0.000000      0.000000      0.000000
 --------------------------------------------------------
                        XY            XZ            YZ
 --------------------------------------------------------
     1   Atom        0.000000      0.000000      0.000000
     2   Atom        0.000000      0.000000      0.000000
     3   Atom        0.000000      0.000000      0.000000
     4   Atom        0.000000      0.000000      0.000000
     5   Atom        0.000000      0.000000      0.000000
     6   Atom        0.000000      0.000000      0.000000
     7   Atom        0.000000      0.000000      0.000000
 --------------------------------------------------------


 ---------------------------------------------------------------------------------
              Anisotropic Spin Dipole Couplings in Principal Axis System
 ---------------------------------------------------------------------------------

       Atom             a.u.   MegaHertz   Gauss  10(-4) cm-1        Axes

              Baa     0.0000     0.000     0.000     0.000  1.0000  0.0000  0.0000
     1 C(13)  Bbb     0.0000     0.000     0.000     0.000 -0.0000  1.0000  0.0000
              Bcc     0.0000     0.000     0.000     0.000  0.0000  0.0000  1.0000
 
              Baa     0.0000     0.000     0.000     0.000  1.0000  0.0000  0.0000
     2 S(33)  Bbb     0.0000     0.000     0.000     0.000 -0.0000  1.0000  0.0000
              Bcc     0.0000     0.000     0.000     0.000  0.0000  0.0000  1.0000
 
              Baa     0.0000     0.000     0.000     0.000  1.0000  0.0000  0.0000
     3 C(13)  Bbb     0.0000     0.000     0.000     0.000 -0.0000  1.0000  0.0000
              Bcc     0.0000     0.000     0.000     0.000  0.0000  0.0000  1.0000
 
              Baa     0.0000     0.000     0.000     0.000  1.0000  0.0000  0.0000
     4 H(1)   Bbb     0.0000     0.000     0.000     0.000 -0.0000  1.0000  0.0000
              Bcc     0.0000     0.000     0.000     0.000  0.0000  0.0000  1.0000
 
              Baa     0.0000     0.000     0.000     0.000  1.0000  0.0000  0.0000
     5 H(1)   Bbb     0.0000     0.000     0.000     0.000 -0.0000  1.0000  0.0000
              Bcc     0.0000     0.000     0.000     0.000  0.0000  0.0000  1.0000
 
              Baa     0.0000     0.000     0.000     0.000  1.0000  0.0000  0.0000
     6 H(1)   Bbb     0.0000     0.000     0.000     0.000 -0.0000  1.0000  0.0000
              Bcc     0.0000     0.000     0.000     0.000  0.0000  0.0000  1.0000
 
              Baa     0.0000     0.000     0.000     0.000  1.0000  0.0000  0.0000
     7 H(1)   Bbb     0.0000     0.000     0.000     0.000 -0.0000  1.0000  0.0000
              Bcc     0.0000     0.000     0.000     0.000  0.0000  0.0000  1.0000
 

 ---------------------------------------------------------------------------------

 No NMR shielding tensors so no spin-rotation constants.
 Leave Link  601 at Tue Jan  3 09:07:19 2023, MaxMem=   536870912 cpu:               0.4 elap:               0.2
 (Enter /opt/software/gaussian/g16.c01/l9999.exe)

 Test job not archived.
 1\1\GINC-GRA704\Stability\UwB97XD\Gen\C2H4S1\BHAVUK\03-Jan-2023\0\\#p 
 uwb97xd/gen stable=opt scf=(maxcycle=900,verytightlineq,xqc) integral=
 grid=ultrafine symmetry=None density=current iop(99/18=-1) output=wfn\
 \0003_q000_m01_k00_opt_uwb97xd_def2svpd/0003_q000_m01_k00_force_uwb97x
 d_def2tzvp stable-force\\0,1\C,0,0.9838325225,-0.0325586033,0.04885801
 78\S,0,2.6071301422,0.0991997065,0.0187984451\C,0,3.2273228911,0.73619
 7977,-1.3460048506\H,0,0.570421034,-0.4575297175,0.9597448627\H,0,0.34
 38072589,0.2782232167,-0.7754915598\H,0,2.615218944,1.0564841772,-2.18
 77415072\H,0,4.3104572053,0.8236432464,-1.365823405\\Version=ES64L-G16
 RevC.01\HF=-476.7345184\S2=0.\S2-1=0.\S2A=0.\RMSD=5.774e-09\Dipole=-0.
 0516871,0.0261661,-0.0689427\Quadrupole=0.8738487,-1.7076519,0.8338032
 ,0.3311196,-0.2081279,-1.3725627\PG=Unknown\\@

 Writing a WFN file to "0003_q000_m01_k00_force_uwb97xd_def2tzvp.wfn"


 PERICLES, SOPHOCLES,
 PELOPONESIAN WAR,
 FRENCH VERBS, LATIN VERBS
 H2SO4.
 Job cpu time:       0 days  0 hours  2 minutes 47.1 seconds.
 Elapsed time:       0 days  0 hours  1 minutes 23.8 seconds.
 File lengths (MBytes):  RWF=     99 Int=      0 D2E=      0 Chk=      3 Scr=      1
 Normal termination of Gaussian 16 at Tue Jan  3 09:07:19 2023.
 Initial command:
 /opt/software/gaussian/g16.c01/l1.exe "/localscratch/bhavuk.2151389.0/Gau-20453.inp" -scrdir="/localscratch/bhavuk.2151389.0/"
 Entering Link 1 = /opt/software/gaussian/g16.c01/l1.exe PID=     22601.
  
 Copyright (c) 1988-2019, Gaussian, Inc.  All Rights Reserved.
  
 This is part of the Gaussian(R) 16 program.  It is based on
 the Gaussian(R) 09 system (copyright 2009, Gaussian, Inc.),
 the Gaussian(R) 03 system (copyright 2003, Gaussian, Inc.),
 the Gaussian(R) 98 system (copyright 1998, Gaussian, Inc.),
 the Gaussian(R) 94 system (copyright 1995, Gaussian, Inc.),
 the Gaussian 92(TM) system (copyright 1992, Gaussian, Inc.),
 the Gaussian 90(TM) system (copyright 1990, Gaussian, Inc.),
 the Gaussian 88(TM) system (copyright 1988, Gaussian, Inc.),
 the Gaussian 86(TM) system (copyright 1986, Carnegie Mellon
 University), and the Gaussian 82(TM) system (copyright 1983,
 Carnegie Mellon University). Gaussian is a federally registered
 trademark of Gaussian, Inc.
  
 This software contains proprietary and confidential information,
 including trade secrets, belonging to Gaussian, Inc.
  
 This software is provided under written license and may be
 used, copied, transmitted, or stored only in accord with that
 written license.
  
 The following legend is applicable only to US Government
 contracts under FAR:
  
                    RESTRICTED RIGHTS LEGEND
  
 Use, reproduction and disclosure by the US Government is
 subject to restrictions as set forth in subparagraphs (a)
 and (c) of the Commercial Computer Software - Restricted
 Rights clause in FAR 52.227-19.
  
 Gaussian, Inc.
 340 Quinnipiac St., Bldg. 40, Wallingford CT 06492
  
  
 ---------------------------------------------------------------
 Warning -- This program may not be used in any manner that
 competes with the business of Gaussian, Inc. or will provide
 assistance to any competitor of Gaussian, Inc.  The licensee
 of this program is prohibited from giving any competitor of
 Gaussian, Inc. access to this program.  By using this program,
 the user acknowledges that Gaussian, Inc. is engaged in the
 business of creating and licensing software in the field of
 computational chemistry and represents and warrants to the
 licensee that it is not a competitor of Gaussian, Inc. and that
 it will not use this program in any manner prohibited above.
 ---------------------------------------------------------------
  

 Cite this work as:
 Gaussian 16, Revision C.01,
 M. J. Frisch, G. W. Trucks, H. B. Schlegel, G. E. Scuseria, 
 M. A. Robb, J. R. Cheeseman, G. Scalmani, V. Barone, 
 G. A. Petersson, H. Nakatsuji, X. Li, M. Caricato, A. V. Marenich, 
 J. Bloino, B. G. Janesko, R. Gomperts, B. Mennucci, H. P. Hratchian, 
 J. V. Ortiz, A. F. Izmaylov, J. L. Sonnenberg, D. Williams-Young, 
 F. Ding, F. Lipparini, F. Egidi, J. Goings, B. Peng, A. Petrone, 
 T. Henderson, D. Ranasinghe, V. G. Zakrzewski, J. Gao, N. Rega, 
 G. Zheng, W. Liang, M. Hada, M. Ehara, K. Toyota, R. Fukuda, 
 J. Hasegawa, M. Ishida, T. Nakajima, Y. Honda, O. Kitao, H. Nakai, 
 T. Vreven, K. Throssell, J. A. Montgomery, Jr., J. E. Peralta, 
 F. Ogliaro, M. J. Bearpark, J. J. Heyd, E. N. Brothers, K. N. Kudin, 
 V. N. Staroverov, T. A. Keith, R. Kobayashi, J. Normand, 
 K. Raghavachari, A. P. Rendell, J. C. Burant, S. S. Iyengar, 
 J. Tomasi, M. Cossi, J. M. Millam, M. Klene, C. Adamo, R. Cammi, 
 J. W. Ochterski, R. L. Martin, K. Morokuma, O. Farkas, 
 J. B. Foresman, and D. J. Fox, Gaussian, Inc., Wallingford CT, 2019.
 
 ******************************************
 Gaussian 16:  ES64L-G16RevC.01  3-Jul-2019
                 3-Jan-2023 
 ******************************************
 %chk=0003_q000_m01_k00_force_uwb97xd_def2tzvp.chk
 %nprocshared=2
 Will use up to    2 processors via shared memory.
 %mem=4GB
 ----------------------------------------------------------------------
 #p uwb97xd/chkbasis force guess=read geom=check scf=(maxcycle=900,very
 tightlineq,xqc) integral=grid=ultrafine symmetry=None density=current 
 pop=(cm5,hlygat,mbs,npa) output=wfx
 ----------------------------------------------------------------------
 1/10=7,29=2,30=1,38=1/1,3;
 2/12=2,15=3,40=1/2;
 3/5=7,6=2,11=2,14=-4,25=1,30=1,67=1,71=1,74=-58,75=-5,116=2/1,2,3;
 4/5=1/1;
 5/5=2,7=900,8=3,13=1,17=3,38=6/2,8;
 6/7=2,8=2,9=2,10=2,15=8,20=15,22=-1,27=100,28=1,40=-1,79=1/1,2,7;
 7/29=1,30=1/1,2,3,16;
 1/10=7,30=1/3;
 99/6=200/99;
 Leave Link    1 at Tue Jan  3 09:07:19 2023, MaxMem=   536870912 cpu:               0.2 elap:               0.1
 (Enter /opt/software/gaussian/g16.c01/l101.exe)
 ----------------------------------------------------------------------
 0003_q000_m01_k00_opt_uwb97xd_def2svpd/0003_q000_m01_k00_force_uwb97xd
 _def2tzvp stable-force
 ----------------------------------------------------------------------
 Structure from the checkpoint file:  "0003_q000_m01_k00_force_uwb97xd_def2tzvp.chk"
 Charge =  0 Multiplicity = 1
 Z-Matrix found in chk file.
 C,0,0.9838325225,-0.0325586033,0.0488580178
 S,0,2.6071301422,0.0991997065,0.0187984451
 C,0,3.2273228911,0.736197977,-1.3460048506
 H,0,0.570421034,-0.4575297175,0.9597448627
 H,0,0.3438072589,0.2782232167,-0.7754915598
 H,0,2.615218944,1.0564841772,-2.1877415072
 H,0,4.3104572053,0.8236432464,-1.365823405
 Recover connectivity data from disk.
 ITRead=  0  0  0  0  0  0  0
 MicOpt= -1 -1 -1 -1 -1 -1 -1
 NAtoms=      7 NQM=        7 NQMF=       0 NMMI=      0 NMMIF=      0
                NMic=       0 NMicF=      0.
                    Isotopes and Nuclear Properties:
 (Nuclear quadrupole moments (NQMom) in fm**2, nuclear magnetic moments (NMagM)
  in nuclear magnetons)

  Atom         1           2           3           4           5           6           7
 IAtWgt=          12          32          12           1           1           1           1
 AtmWgt=  12.0000000  31.9720718  12.0000000   1.0078250   1.0078250   1.0078250   1.0078250
 NucSpn=           0           0           0           1           1           1           1
 AtZEff=   3.6000000  13.6000000   3.6000000   1.0000000   1.0000000   1.0000000   1.0000000
 NQMom=    0.0000000   0.0000000   0.0000000   0.0000000   0.0000000   0.0000000   0.0000000
 NMagM=    0.0000000   0.0000000   0.0000000   2.7928460   2.7928460   2.7928460   2.7928460
 AtZNuc=   6.0000000  16.0000000   6.0000000   1.0000000   1.0000000   1.0000000   1.0000000
 Leave Link  101 at Tue Jan  3 09:07:20 2023, MaxMem=   536870912 cpu:               0.4 elap:               0.2
 (Enter /opt/software/gaussian/g16.c01/l103.exe)

 GradGradGradGradGradGradGradGradGradGradGradGradGradGradGradGradGradGrad
 Berny optimization.
 Initialization pass.
 Trust Radius=3.00D-01 FncErr=1.00D-07 GrdErr=1.00D-07 EigMax=2.50D+02 EigMin=1.00D-04
 Number of steps in this run=      2 maximum allowed number of steps=      2.
 GradGradGradGradGradGradGradGradGradGradGradGradGradGradGradGradGradGrad

 Leave Link  103 at Tue Jan  3 09:07:20 2023, MaxMem=   536870912 cpu:               0.1 elap:               0.0
 (Enter /opt/software/gaussian/g16.c01/l202.exe)
                          Input orientation:                          
 ---------------------------------------------------------------------
 Center     Atomic      Atomic             Coordinates (Angstroms)
 Number     Number       Type             X           Y           Z
 ---------------------------------------------------------------------
      1          6           0        0.983833   -0.032559    0.048858
      2         16           0        2.607130    0.099200    0.018798
      3          6           0        3.227323    0.736198   -1.346005
      4          1           0        0.570421   -0.457530    0.959745
      5          1           0        0.343807    0.278223   -0.775492
      6          1           0        2.615219    1.056484   -2.187742
      7          1           0        4.310457    0.823643   -1.365823
 ---------------------------------------------------------------------
                    Distance matrix (angstroms):
                    1          2          3          4          5
     1  C    0.000000
     2  S    1.628913   0.000000
     3  C    2.751341   1.628832   0.000000
     4  H    1.086841   2.311604   3.714915   0.000000
     5  H    1.088931   2.405323   2.974876   1.898350   0.000000
     6  H    2.974864   2.405260   1.088933   4.047234   2.785579
     7  H    3.714948   2.311562   1.086839   4.586670   4.047257
                    6          7
     6  H    0.000000
     7  H    1.898314   0.000000
 Symmetry turned off by external request.
 Stoichiometry    C2H4S
 Rotational constants (GHZ):          32.8865896           8.4327606           6.7117401
 Leave Link  202 at Tue Jan  3 09:07:20 2023, MaxMem=   536870912 cpu:               0.0 elap:               0.0
 (Enter /opt/software/gaussian/g16.c01/l301.exe)
 Basis read from chk: "0003_q000_m01_k00_force_uwb97xd_def2tzvp.chk" (5D, 7F)
 No pseudopotential information found on chk file.
   123 basis functions,   203 primitive gaussians,   138 cartesian basis functions
    16 alpha electrons       16 beta electrons
       nuclear repulsion energy       100.3080120317 Hartrees.
 IExCor= 4639 DFT=T Ex+Corr=wB97XD ExCW=0 ScaHFX=  1.000000
 ScaDFX=  1.000000  1.000000  1.000000  1.000000 ScalE2=  1.000000  1.000000
 IRadAn=      5 IRanWt=     -1 IRanGd=            0 ICorTp=0 IEmpDi=121
 HFx  wShort=  0.000000 wLong=  0.200000 cFull=  0.222036 cShort=  0.000000 cLong=  0.777964
 DFx  wShort=  0.000000 wLong=  0.200000 cFull=  0.000000 cShort=  0.000000 cLong=  1.000000
 NAtoms=    7 NActive=    7 NUniq=    7 SFac= 1.00D+00 NAtFMM=   60 NAOKFM=F Big=F
 Integral buffers will be    131072 words long.
 Raffenetti 2 integral format.
 Two-electron integral symmetry is turned off.
 R6Disp:  Grimme-D2 Dispersion energy=       -0.0011997330 Hartrees.
 Nuclear repulsion after empirical dispersion term =      100.3068122987 Hartrees.
 No density basis found on file  20724.
 Leave Link  301 at Tue Jan  3 09:07:20 2023, MaxMem=   536870912 cpu:               0.1 elap:               0.1
 (Enter /opt/software/gaussian/g16.c01/l302.exe)
 NPDir=0 NMtPBC=     1 NCelOv=     1 NCel=       1 NClECP=     1 NCelD=      1
         NCelK=      1 NCelE2=     1 NClLst=     1 CellRange=     0.0.
 One-electron integrals computed using PRISM.
 NBasis=   123 RedAO= T EigKep=  1.22D-03  NBF=   123
 NBsUse=   123 1.00D-06 EigRej= -1.00D+00 NBFU=   123
 Precomputing XC quadrature grid using
 IXCGrd= 4 IRadAn=           5 IRanWt=          -1 IRanGd=           0 AccXCQ= 0.00D+00.
 Generated NRdTot=       0 NPtTot=           0 NUsed=           0 NTot=          32
 NSgBfM=   138   137   137   138   138 MxSgAt=     7 MxSgA2=     7.
 Leave Link  302 at Tue Jan  3 09:07:20 2023, MaxMem=   536870912 cpu:               0.4 elap:               0.2
 (Enter /opt/software/gaussian/g16.c01/l303.exe)
 DipDrv:  MaxL=1.
 Leave Link  303 at Tue Jan  3 09:07:20 2023, MaxMem=   536870912 cpu:               0.1 elap:               0.0
 (Enter /opt/software/gaussian/g16.c01/l401.exe)
 Initial guess from the checkpoint file:  "0003_q000_m01_k00_force_uwb97xd_def2tzvp.chk"
 B after Tr=     0.000000    0.000000    0.000000
         Rot=    1.000000    0.000000    0.000000    0.000000 Ang=   0.00 deg.
 Guess basis will be translated and rotated to current coordinates.
 JPrj=2 DoOrth=T DoCkMO=T.
 Initial guess <Sx>= 0.0000 <Sy>= 0.0000 <Sz>= 0.0000 <S**2>=-0.0000 S=-0.0000
 Leave Link  401 at Tue Jan  3 09:07:20 2023, MaxMem=   536870912 cpu:               0.2 elap:               0.1
 (Enter /opt/software/gaussian/g16.c01/l502.exe)
 Keep R1 and R2 ints in memory in canonical form, NReq=119295747.
 FoFCou: FMM=F IPFlag=           0 FMFlag=           0 FMFlg1=           0
         NFxFlg=           0 DoJE=F BraDBF=F KetDBF=F FulRan=T
         wScrn=  0.000000 ICntrl=       600 IOpCl=  0 I1Cent=           0 NGrid=           0
         NMat0=    1 NMatS0=   7626 NMatT0=    0 NMatD0=    1 NMtDS0=    0 NMtDT0=    0
 Symmetry not used in FoFCou.
 Two-electron integral symmetry not used.
 UHF open shell SCF:
 Using DIIS extrapolation, IDIIS=  1040.
 NGot=   536870912 LenX=   420503772 LenY=   420484287
 Requested convergence on RMS density matrix=1.00D-08 within 128 cycles.
 Requested convergence on MAX density matrix=1.00D-06.
 Requested convergence on             energy=1.00D-06.
 No special actions if energy rises.

 Cycle   1  Pass 1  IDiag  1:
 E= -476.734518357290    
 DIIS: error= 9.96D-09 at cycle   1 NSaved=   1.
 NSaved= 1 IEnMin= 1 EnMin= -476.734518357290     IErMin= 1 ErrMin= 9.96D-09
 ErrMax= 9.96D-09  0.00D+00 EMaxC= 1.00D-01 BMatC= 5.11D-14 BMatP= 5.11D-14
 IDIUse=1 WtCom= 1.00D+00 WtEn= 0.00D+00
 Coeff-Com:  0.100D+01
 Coeff:      0.100D+01
 Gap=     0.286 Goal=   None    Shift=    0.000
 Gap=     0.286 Goal=   None    Shift=    0.000
 RMSDP=2.55D-09 MaxDP=3.66D-08              OVMax= 1.01D-07

 SCF Done:  E(UwB97XD) =  -476.734518357     A.U. after    1 cycles
            NFock=  1  Conv=0.25D-08     -V/T= 2.0025
 <Sx>= 0.0000 <Sy>= 0.0000 <Sz>= 0.0000 <S**2>=-0.0000 S=-0.0000
 <L.S>=  0.00000000000    
 KE= 4.755577573341D+02 PE=-1.328893051502D+03 EE= 2.762939635117D+02
 Annihilation of the first spin contaminant:
 S**2 before annihilation    -0.0000,   after     0.0000
 Leave Link  502 at Tue Jan  3 09:07:24 2023, MaxMem=   536870912 cpu:               7.8 elap:               3.9
 (Enter /opt/software/gaussian/g16.c01/l508.exe)
 QCSCF skips out because SCF is already converged.
 Leave Link  508 at Tue Jan  3 09:07:24 2023, MaxMem=   536870912 cpu:               0.0 elap:               0.0
 (Enter /opt/software/gaussian/g16.c01/l601.exe)
 Copying SCF densities to generalized density rwf, IOpCl= 1 IROHF=0.

 **********************************************************************

            Population analysis using the SCF Density.

 **********************************************************************

 Alpha  occ. eigenvalues --  -89.08585 -10.29731 -10.29729  -8.11445  -6.06066
 Alpha  occ. eigenvalues --   -6.06024  -6.05688  -0.94949  -0.79388  -0.66391
 Alpha  occ. eigenvalues --   -0.55720  -0.54565  -0.48645  -0.44573  -0.41504
 Alpha  occ. eigenvalues --   -0.27348
 Alpha virt. eigenvalues --    0.01230   0.12685   0.13747   0.15087   0.17325
 Alpha virt. eigenvalues --    0.18726   0.21893   0.24534   0.29008   0.29388
 Alpha virt. eigenvalues --    0.30038   0.33635   0.33862   0.34333   0.38084
 Alpha virt. eigenvalues --    0.38214   0.46699   0.47182   0.48742   0.50502
 Alpha virt. eigenvalues --    0.52896   0.53590   0.59236   0.62958   0.64130
 Alpha virt. eigenvalues --    0.72098   0.74719   0.75613   0.81266   0.83505
 Alpha virt. eigenvalues --    0.98387   1.02485   1.03939   1.06065   1.06101
 Alpha virt. eigenvalues --    1.09266   1.15899   1.17417   1.41467   1.50710
 Alpha virt. eigenvalues --    1.52735   1.53699   1.54293   1.57244   1.62728
 Alpha virt. eigenvalues --    1.63011   1.63393   1.65853   1.66719   1.71552
 Alpha virt. eigenvalues --    1.72070   1.76258   1.76995   1.80873   1.85932
 Alpha virt. eigenvalues --    1.87175   1.87973   1.96820   2.01877   2.06068
 Alpha virt. eigenvalues --    2.11346   2.13615   2.17789   2.22538   2.25435
 Alpha virt. eigenvalues --    2.36397   2.39034   2.41710   2.54157   2.59779
 Alpha virt. eigenvalues --    2.60892   2.67376   2.73327   2.78038   2.82032
 Alpha virt. eigenvalues --    2.86148   2.93339   3.01785   3.06244   3.14967
 Alpha virt. eigenvalues --    3.16446   3.21740   3.26177   3.27912   3.33631
 Alpha virt. eigenvalues --    3.38184   3.39322   3.39492   3.41555   3.56425
 Alpha virt. eigenvalues --    3.56516   3.56964   3.65939   3.66993   3.74268
 Alpha virt. eigenvalues --    3.84018   3.97209   4.17622   4.17827   4.49992
 Alpha virt. eigenvalues --    4.56276   8.92204   9.20926   9.65414  20.67395
 Alpha virt. eigenvalues --   22.01376  22.09315
  Beta  occ. eigenvalues --  -89.08585 -10.29731 -10.29729  -8.11445  -6.06066
  Beta  occ. eigenvalues --   -6.06024  -6.05688  -0.94949  -0.79388  -0.66391
  Beta  occ. eigenvalues --   -0.55720  -0.54565  -0.48645  -0.44573  -0.41504
  Beta  occ. eigenvalues --   -0.27348
  Beta virt. eigenvalues --    0.01230   0.12685   0.13747   0.15087   0.17325
  Beta virt. eigenvalues --    0.18726   0.21893   0.24534   0.29008   0.29388
  Beta virt. eigenvalues --    0.30038   0.33635   0.33862   0.34333   0.38084
  Beta virt. eigenvalues --    0.38214   0.46699   0.47182   0.48742   0.50502
  Beta virt. eigenvalues --    0.52896   0.53590   0.59236   0.62958   0.64130
  Beta virt. eigenvalues --    0.72098   0.74719   0.75613   0.81266   0.83505
  Beta virt. eigenvalues --    0.98387   1.02485   1.03939   1.06065   1.06101
  Beta virt. eigenvalues --    1.09266   1.15899   1.17417   1.41467   1.50710
  Beta virt. eigenvalues --    1.52735   1.53699   1.54293   1.57244   1.62728
  Beta virt. eigenvalues --    1.63011   1.63393   1.65853   1.66719   1.71552
  Beta virt. eigenvalues --    1.72070   1.76258   1.76995   1.80873   1.85932
  Beta virt. eigenvalues --    1.87175   1.87973   1.96820   2.01877   2.06068
  Beta virt. eigenvalues --    2.11346   2.13615   2.17789   2.22538   2.25435
  Beta virt. eigenvalues --    2.36397   2.39034   2.41710   2.54157   2.59779
  Beta virt. eigenvalues --    2.60892   2.67376   2.73327   2.78038   2.82032
  Beta virt. eigenvalues --    2.86148   2.93339   3.01785   3.06244   3.14967
  Beta virt. eigenvalues --    3.16446   3.21740   3.26177   3.27912   3.33631
  Beta virt. eigenvalues --    3.38184   3.39322   3.39492   3.41555   3.56425
  Beta virt. eigenvalues --    3.56516   3.56964   3.65939   3.66993   3.74268
  Beta virt. eigenvalues --    3.84018   3.97209   4.17622   4.17827   4.49992
  Beta virt. eigenvalues --    4.56276   8.92204   9.20926   9.65414  20.67395
  Beta virt. eigenvalues --   22.01376  22.09315
          Condensed to atoms (all electrons):
               1          2          3          4          5          6
     1  C    5.191252   0.501354  -0.089766   0.409115   0.415927   0.002428
     2  S    0.501354  14.920472   0.501357  -0.037263  -0.043516  -0.043519
     3  C   -0.089766   0.501357   5.191182   0.002125   0.002430   0.415931
     4  H    0.409115  -0.037263   0.002125   0.482001  -0.017250  -0.000112
     5  H    0.415927  -0.043516   0.002430  -0.017250   0.488259   0.002524
     6  H    0.002428  -0.043519   0.415931  -0.000112   0.002524   0.488262
     7  H    0.002125  -0.037264   0.409114  -0.000093  -0.000112  -0.017252
               7
     1  C    0.002125
     2  S   -0.037264
     3  C    0.409114
     4  H   -0.000093
     5  H   -0.000112
     6  H   -0.017252
     7  H    0.482004
          Atomic-Atomic Spin Densities.
               1          2          3          4          5          6
     1  C    0.000000   0.000000   0.000000   0.000000   0.000000   0.000000
     2  S    0.000000   0.000000   0.000000   0.000000   0.000000   0.000000
     3  C    0.000000   0.000000   0.000000   0.000000   0.000000   0.000000
     4  H    0.000000   0.000000   0.000000   0.000000   0.000000   0.000000
     5  H    0.000000   0.000000   0.000000   0.000000   0.000000   0.000000
     6  H    0.000000   0.000000   0.000000   0.000000   0.000000   0.000000
     7  H    0.000000   0.000000   0.000000   0.000000   0.000000   0.000000
               7
     1  C    0.000000
     2  S    0.000000
     3  C    0.000000
     4  H    0.000000
     5  H    0.000000
     6  H    0.000000
     7  H    0.000000
 Mulliken charges and spin densities:
               1          2
     1  C   -0.432435   0.000000
     2  S    0.238379   0.000000
     3  C   -0.432374   0.000000
     4  H    0.161477   0.000000
     5  H    0.151738   0.000000
     6  H    0.151738   0.000000
     7  H    0.161477   0.000000
 Sum of Mulliken charges =  -0.00000   0.00000
 Mulliken charges and spin densities with hydrogens summed into heavy atoms:
               1          2
     1  C   -0.119220   0.000000
     2  S    0.238379   0.000000
     3  C   -0.119159   0.000000
 Electronic spatial extent (au):  <R**2>=            870.4640
 Charge=             -0.0000 electrons
 Dipole moment (field-independent basis, Debye):
    X=             -0.1314    Y=              0.0665    Z=             -0.1752  Tot=              0.2289
 Quadrupole moment (field-independent basis, Debye-Ang):
   XX=            -24.8819   YY=            -28.3541   ZZ=            -24.9357
   XY=              0.4454   XZ=             -0.2799   YZ=             -1.8461
 Traceless Quadrupole moment (field-independent basis, Debye-Ang):
   XX=              1.1754   YY=             -2.2968   ZZ=              1.1215
   XY=              0.4454   XZ=             -0.2799   YZ=             -1.8461
 Octapole moment (field-independent basis, Debye-Ang**2):
  XXX=           -169.8368  YYY=            -21.5428  ZZZ=             26.3721  XYY=            -65.5003
  XXY=             -3.6366  XXZ=              7.1331  XZZ=            -60.6290  YZZ=             -3.8784
  YYZ=              9.8191  XYZ=             -3.0839
 Hexadecapole moment (field-independent basis, Debye-Ang**3):
 XXXX=           -933.7734 YYYY=            -68.6342 ZZZZ=           -120.0606 XXXY=            -45.2732
 XXXZ=             77.6933 YYYX=            -70.7738 YYYZ=             26.5199 ZZZX=             92.0338
 ZZZY=             16.5357 XXYY=           -193.0513 XXZZ=           -192.9285 YYZZ=            -30.0827
 XXYZ=             -1.0740 YYXZ=             33.2848 ZZXY=            -13.0926
 N-N= 1.003068122987D+02 E-N=-1.328893049454D+03  KE= 4.755577573341D+02
 There are a total of      154038 grid points.
 ElSum from          density=       31.9999997907
 ElSum from atomic densities=       32.0000007239
 Hirshfeld populations at iteration   1 (CA, CB, DipXYZ):
               1          2          3          4          5
     1  C    3.083541   3.083541  -0.060947   0.005210  -0.022188
     2  S    7.919101   7.919101   0.010399  -0.005225   0.013835
     3  C    3.083534   3.083534  -0.000607   0.025811  -0.059736
     4  H    0.479359   0.479359  -0.077621  -0.069198   0.146575
     5  H    0.477556   0.477556  -0.105873   0.048683  -0.130077
     6  H    0.477554   0.477554  -0.094812   0.052458  -0.136956
     7  H    0.479355   0.479355   0.178321   0.018437  -0.012598
       Tot  16.000000  16.000000  -0.151141   0.076177  -0.201145

 Dip from Atomic Chgs              0.099454  -0.050018   0.132199
         Total Dipole             -0.051687   0.026160  -0.068946

 Hirshfeld charges, spin densities, dipoles, and CM5 charges using IRadAn=      5:
              Q-H        S-H        Dx         Dy         Dz        Q-CM5   
[...]
    14    C    1  pz     Ryd( 4p)     0.00004       1.86803
    15    C    1  dxy    Ryd( 3d)     0.00146       1.23106
    16    C    1  dxy    Ryd( 4d)     0.00004       2.96835
    17    C    1  dxz    Ryd( 3d)     0.00062       1.41577
    18    C    1  dxz    Ryd( 4d)     0.00007       3.14116
    19    C    1  dyz    Ryd( 3d)     0.00067       1.14914
    20    C    1  dyz    Ryd( 4d)     0.00002       2.97865
    21    C    1  dx2y2  Ryd( 3d)     0.00169       1.48102
    22    C    1  dx2y2  Ryd( 4d)     0.00001       3.08840
    23    C    1  dz2    Ryd( 3d)     0.00133       1.26602
    24    C    1  dz2    Ryd( 4d)     0.00001       3.00671
    25    C    1  f(0)   Ryd( 4f)     0.00003       3.23172
    26    C    1  f(C1)  Ryd( 4f)     0.00007       3.72081
    27    C    1  f(S1)  Ryd( 4f)     0.00010       3.29229
    28    C    1  f(C2)  Ryd( 4f)     0.00011       3.30799
    29    C    1  f(S2)  Ryd( 4f)     0.00007       3.32245
    30    C    1  f(C3)  Ryd( 4f)     0.00009       3.46413
    31    C    1  f(S3)  Ryd( 4f)     0.00011       3.30782
 
    32    S    2  S      Cor( 1S)     1.00000     -87.78460
    33    S    2  S      Cor( 2S)     0.99957      -9.14192
    34    S    2  S      Val( 3S)     0.75812      -0.74082
    35    S    2  S      Ryd( 4S)     0.00558       1.08788
    36    S    2  S      Ryd( 5S)     0.00000      19.33002
    37    S    2  px     Cor( 2p)     0.99986      -6.04702
    38    S    2  px     Val( 3p)     0.54499      -0.18907
    39    S    2  px     Ryd( 4p)     0.00241       0.86650
    40    S    2  px     Ryd( 5p)     0.00004       2.07336
    41    S    2  px     Ryd( 6p)     0.00000       8.58030
    42    S    2  py     Cor( 2p)     0.99988      -6.05189
    43    S    2  py     Val( 3p)     0.61965      -0.26049
    44    S    2  py     Ryd( 4p)     0.00055       0.66583
    45    S    2  py     Ryd( 5p)     0.00001       1.78216
    46    S    2  py     Ryd( 6p)     0.00000       8.83134
    47    S    2  pz     Cor( 2p)     0.99989      -6.04807
    48    S    2  pz     Val( 3p)     0.64433      -0.24133
    49    S    2  pz     Ryd( 4p)     0.00185       0.77290
    50    S    2  pz     Ryd( 5p)     0.00003       1.98147
    51    S    2  pz     Ryd( 6p)     0.00000       8.71292
    52    S    2  dxy    Ryd( 3d)     0.01057       0.71909
    53    S    2  dxy    Ryd( 4d)     0.00003       1.64407
    54    S    2  dxz    Ryd( 3d)     0.00426       0.87277
    55    S    2  dxz    Ryd( 4d)     0.00006       1.88929
    56    S    2  dyz    Ryd( 3d)     0.00523       0.75245
    57    S    2  dyz    Ryd( 4d)     0.00003       1.74544
    58    S    2  dx2y2  Ryd( 3d)     0.00641       0.89885
    59    S    2  dx2y2  Ryd( 4d)     0.00007       1.86084
    60    S    2  dz2    Ryd( 3d)     0.00641       0.87128
    61    S    2  dz2    Ryd( 4d)     0.00008       1.92507
    62    S    2  f(0)   Ryd( 4f)     0.00008       2.32014
    63    S    2  f(C1)  Ryd( 4f)     0.00016       2.33941
    64    S    2  f(S1)  Ryd( 4f)     0.00014       2.18277
    65    S    2  f(C2)  Ryd( 4f)     0.00006       2.33462
    66    S    2  f(S2)  Ryd( 4f)     0.00008       2.16834
    67    S    2  f(C3)  Ryd( 4f)     0.00019       2.26433
    68    S    2  f(S3)  Ryd( 4f)     0.00010       2.28587
 
    69    C    3  S      Cor( 1S)     0.99978     -10.18638
    70    C    3  S      Val( 2S)     0.58361      -0.39132
    71    C    3  S      Ryd( 3S)     0.00122       0.76311
    72    C    3  S      Ryd( 4S)     0.00012       2.01110
    73    C    3  S      Ryd( 5S)     0.00000      21.06203
    74    C    3  px     Val( 2p)     0.60766      -0.14362
    75    C    3  px     Ryd( 3p)     0.00118       0.83231
    76    C    3  px     Ryd( 4p)     0.00003       2.05078
    77    C    3  py     Val( 2p)     0.64978      -0.19129
    78    C    3  py     Ryd( 3p)     0.00364       0.45422
    79    C    3  py     Ryd( 4p)     0.00004       1.62184
    80    C    3  pz     Val( 2p)     0.56717      -0.16853
    81    C    3  pz     Ryd( 3p)     0.00220       0.62446
    82    C    3  pz     Ryd( 4p)     0.00017       2.03919
    83    C    3  dxy    Ryd( 3d)     0.00029       1.09013
    84    C    3  dxy    Ryd( 4d)     0.00002       2.87295
    85    C    3  dxz    Ryd( 3d)     0.00134       1.42284
    86    C    3  dxz    Ryd( 4d)     0.00004       3.10107
    87    C    3  dyz    Ryd( 3d)     0.00153       1.33432
    88    C    3  dyz    Ryd( 4d)     0.00004       3.02861
    89    C    3  dx2y2  Ryd( 3d)     0.00109       1.29971
    90    C    3  dx2y2  Ryd( 4d)     0.00002       3.11476
    91    C    3  dz2    Ryd( 3d)     0.00151       1.39603
    92    C    3  dz2    Ryd( 4d)     0.00004       3.06583
    93    C    3  f(0)   Ryd( 4f)     0.00006       3.34142
    94    C    3  f(C1)  Ryd( 4f)     0.00007       3.74239
    95    C    3  f(S1)  Ryd( 4f)     0.00011       3.41416
    96    C    3  f(C2)  Ryd( 4f)     0.00010       3.33983
    97    C    3  f(S2)  Ryd( 4f)     0.00006       3.35412
    98    C    3  f(C3)  Ryd( 4f)     0.00010       3.34367
    99    C    3  f(S3)  Ryd( 4f)     0.00007       3.11191
 
   100    H    4  S      Val( 1S)     0.38251       0.03214
   101    H    4  S      Ryd( 3S)     0.00015       1.71902
   102    H    4  S      Ryd( 2S)     0.00006       0.79297
   103    H    4  px     Ryd( 2p)     0.00005       2.51384
   104    H    4  py     Ryd( 2p)     0.00010       2.27130
   105    H    4  pz     Ryd( 2p)     0.00011       2.76504
 
   106    H    5  S      Val( 1S)     0.38776       0.02974
   107    H    5  S      Ryd( 2S)     0.00044       1.22638
   108    H    5  S      Ryd( 3S)     0.00009       1.30677
   109    H    5  px     Ryd( 2p)     0.00008       2.64513
   110    H    5  py     Ryd( 2p)     0.00011       2.22336
   111    H    5  pz     Ryd( 2p)     0.00012       2.67905
 
   112    H    6  S      Val( 1S)     0.38776       0.02973
   113    H    6  S      Ryd( 2S)     0.00044       1.22636
   114    H    6  S      Ryd( 3S)     0.00009       1.30682
   115    H    6  px     Ryd( 2p)     0.00009       2.54267
   116    H    6  py     Ryd( 2p)     0.00010       2.24101
   117    H    6  pz     Ryd( 2p)     0.00011       2.76388
 
   118    H    7  S      Val( 1S)     0.38250       0.03213
   119    H    7  S      Ryd( 3S)     0.00015       1.71914
   120    H    7  S      Ryd( 2S)     0.00006       0.79287
   121    H    7  px     Ryd( 2p)     0.00013       3.01110
   122    H    7  py     Ryd( 2p)     0.00008       2.18551
   123    H    7  pz     Ryd( 2p)     0.00005       2.35359

 WARNING:  Population inversion found on atom  H    4
           Population inversion found on atom  H    7


 Summary of Natural Population Analysis:                  
                                                          
                                       Natural Population 
                Natural  -----------------------------------------------
    Atom  No    Charge         Core      Valence    Rydberg      Total
 -----------------------------------------------------------------------
      C    1   -0.42308      0.99978     2.40821    0.01509     3.42308
      S    2    0.38927      4.99920     2.56709    0.04444     7.61073
      C    3   -0.42308      0.99978     2.40821    0.01509     3.42308
      H    4    0.11703      0.00000     0.38251    0.00047     0.38297
      H    5    0.11141      0.00000     0.38776    0.00083     0.38859
      H    6    0.11142      0.00000     0.38776    0.00083     0.38858
      H    7    0.11703      0.00000     0.38250    0.00047     0.38297
 =======================================================================
   * Total *    0.00000      6.99876     8.92404    0.07720    16.00000

                                 Natural Population      
 --------------------------------------------------------
   Core                       6.99876 ( 99.9823% of   7)
   Valence                    8.92404 ( 99.1560% of   9)
   Natural Minimal Basis     15.92280 ( 99.5175% of  16)
   Natural Rydberg Basis      0.07720 (  0.4825% of  16)
 --------------------------------------------------------

    Atom  No          Natural Electron Configuration
 ----------------------------------------------------------------------------
      C    1      [core]2S( 0.58)2p( 1.82)3p( 0.01)3d( 0.01)
      S    2      [core]3S( 0.76)3p( 1.81)4S( 0.01)3d( 0.03)
      C    3      [core]2S( 0.58)2p( 1.82)3p( 0.01)3d( 0.01)
      H    4            1S( 0.38)
      H    5            1S( 0.39)
      H    6            1S( 0.39)
      H    7            1S( 0.38)


 NBO analysis skipped by request.
 Leave Link  607 at Tue Jan  3 09:07:27 2023, MaxMem=   536870912 cpu:               3.6 elap:               1.8
 (Enter /opt/software/gaussian/g16.c01/l701.exe)
 ... and contract with generalized density number  0.
 Compute integral first derivatives.
 R6Disp: Adding Grimme-D2 dispersion energy 1st derivatives to the gradient.
 Leave Link  701 at Tue Jan  3 09:07:27 2023, MaxMem=   536870912 cpu:               0.3 elap:               0.2
 (Enter /opt/software/gaussian/g16.c01/l702.exe)
 L702 exits ... SP integral derivatives will be done elsewhere.
 Leave Link  702 at Tue Jan  3 09:07:27 2023, MaxMem=   536870912 cpu:               0.1 elap:               0.0
 (Enter /opt/software/gaussian/g16.c01/l703.exe)
 Integral derivatives from FoFJK, PRISM(SPDF).
 Compute integral first derivatives, UseDBF=F ICtDFT=           0.
 Calling FoFJK, ICntrl=      2127 FMM=F ISym2X=0 I1Cent= 0 IOpClX= 1 NMat=1 NMatS=1 NMatT=0.
 FoFJK:  IHMeth= 1 ICntrl=    2127 DoSepK=T KAlg= 0 I1Cent=           0 FoldK=F
 IRaf=         1 NMat=       1 IRICut=       1 DoRegI=T DoRafI=F ISym2E= 0 IDoP0=0 IntGTp=1.
 FoFCou: FMM=F IPFlag=           0 FMFlag=      100000 FMFlg1=         800
         NFxFlg=           0 DoJE=F BraDBF=F KetDBF=F FulRan=T
         wScrn=  0.000000 ICntrl=      2527 IOpCl=  0 I1Cent=           0 NGrid=           0
         NMat0=    1 NMatS0=      1 NMatT0=    0 NMatD0=    1 NMtDS0=    0 NMtDT0=    0
 Symmetry not used in FoFCou.
 Leave Link  703 at Tue Jan  3 09:07:35 2023, MaxMem=   536870912 cpu:              15.9 elap:               8.0
 (Enter /opt/software/gaussian/g16.c01/l716.exe)
 Dipole        =-5.16870778D-02 2.61661644D-02-6.89427700D-02
 -------------------------------------------------------------------
 Center     Atomic                   Forces (Hartrees/Bohr)
 Number     Number              X              Y              Z
 -------------------------------------------------------------------
      1        6           0.005510261    0.000424623   -0.000046429
      2       16          -0.007050283    0.003542455   -0.009360424
      3        6          -0.002043268   -0.002157307    0.004639266
      4        1           0.002284602    0.002485848   -0.005345493
      5        1           0.003712656   -0.001952289    0.005112769
      6        1           0.003893054   -0.001888586    0.005001382
      7        1          -0.006307021   -0.000454745   -0.000001070
 -------------------------------------------------------------------
 Cartesian Forces:  Max     0.009360424 RMS     0.004243767
 Z-matrix is all fixed cartesians, so copy forces.
 Force constants in Cartesian coordinates: 
                1             2             3             4             5 
      1  0.799457D+00
      2  0.386953D-01  0.202300D+00
      3  0.262318D-01 -0.197489D+00  0.573805D+00
      4 -0.458605D+00 -0.232735D-01 -0.165583D-01  0.577555D+00
      5 -0.320482D-01 -0.525335D-01  0.183029D-01  0.867656D-01  0.122175D+00
      6  0.365769D-02  0.197847D-01 -0.872720D-01 -0.110154D+00 -0.165608D+00
      7  0.122699D-02 -0.100692D-01  0.221250D-01 -0.139616D+00 -0.489763D-01
      8 -0.597775D-03  0.748286D-02  0.517705D-03 -0.577409D-01 -0.107626D+00
      9  0.278568D-03 -0.108316D-02  0.102956D-01  0.116790D+00  0.142526D+00
     10 -0.144909D+00 -0.441803D-01  0.836168D-01  0.115252D-02 -0.932375D-02
     11 -0.404522D-01 -0.846163D-01  0.105218D+00 -0.241587D-03  0.264194D-02
     12  0.750267D-01  0.104603D+00 -0.264763D+00  0.410365D-03 -0.299905D-02
     13 -0.197168D+00  0.388020D-01 -0.115426D+00 -0.916549D-03  0.691836D-02
     14  0.343779D-01 -0.722913D-01  0.735979D-01 -0.146773D-02  0.180903D-01
     15 -0.105206D+00  0.743316D-01 -0.232001D+00  0.158269D-03  0.144866D-02
     16 -0.246017D-04  0.336366D-03  0.145813D-03  0.192862D-01 -0.309494D-02
     17  0.337132D-03 -0.460942D-02 -0.199817D-02  0.528610D-02  0.146053D-01
     18  0.146171D-03 -0.199852D-02 -0.866351D-03 -0.120134D-01  0.780803D-02
     19  0.227250D-04 -0.310706D-03 -0.134690D-03  0.114404D-02 -0.240739D-03
     20 -0.312161D-03  0.426801D-02  0.185017D-02 -0.932793D-02  0.264671D-02
     21 -0.135369D-03  0.185083D-02  0.802328D-03  0.213670D-01 -0.147893D-02
                6             7             8             9            10 
      6  0.407473D+00
      7  0.965700D-01  0.667382D+00
      8  0.141042D+00  0.492959D-01  0.225135D+00
      9 -0.351317D+00 -0.206782D-01 -0.248346D+00  0.683203D+00
     10  0.213707D-01  0.228255D-04 -0.312081D-03 -0.135286D-03  0.115530D+00
     11 -0.146606D-02 -0.312069D-03  0.426675D-02  0.184962D-02  0.445604D-01
     12  0.901525D-02 -0.135235D-03  0.184900D-02  0.801534D-03 -0.864441D-01
     13 -0.191712D-01 -0.246447D-04  0.336954D-03  0.146068D-03  0.282041D-01
     14  0.324183D-04  0.336979D-03 -0.460733D-02 -0.199726D-02  0.925576D-02
     15  0.148968D-01  0.146176D-03 -0.199858D-02 -0.866379D-03 -0.184082D-01
     16  0.731953D-02 -0.179623D+00  0.329496D-01 -0.989913D-01  0.000000D+00
     17  0.921888D-02  0.373763D-01 -0.753070D-01  0.810589D-01  0.000000D+00
     18 -0.181486D-02 -0.109211D+00  0.803191D-01 -0.246533D+00  0.000000D+00
     19  0.407512D-03 -0.349368D+00 -0.239317D-01  0.258983D-02  0.000000D+00
     20 -0.300348D-02 -0.276515D-01 -0.493443D-01  0.259912D-01  0.000000D+00
     21  0.901933D-02  0.111835D-01  0.266169D-01 -0.955832D-01  0.000000D+00
               11            12            13            14            15 
     11  0.698063D-01
     12 -0.111340D+00  0.260624D+00
     13 -0.355446D-02  0.111423D-01  0.169905D+00
     14  0.790132D-02  0.788712D-02 -0.425029D-01  0.509070D-01
     15  0.573850D-02 -0.567740D-02  0.123309D+00 -0.795202D-01  0.223648D+00
     16  0.000000D+00  0.000000D+00  0.000000D+00  0.000000D+00  0.000000D+00
     17  0.000000D+00  0.000000D+00  0.000000D+00  0.000000D+00  0.000000D+00
     18  0.000000D+00  0.000000D+00  0.000000D+00  0.000000D+00  0.000000D+00
     19  0.000000D+00  0.000000D+00  0.000000D+00  0.000000D+00  0.000000D+00
     20  0.000000D+00  0.000000D+00  0.000000D+00  0.000000D+00  0.000000D+00
     21  0.000000D+00  0.000000D+00  0.000000D+00  0.000000D+00  0.000000D+00
               16            17            18            19            20 
     16  0.161831D+00
     17 -0.418445D-01  0.522901D-01
     18  0.120449D+00 -0.826089D-01  0.230340D+00
     19 -0.147004D-02 -0.115499D-02  0.629518D-03  0.349671D+00
     20  0.116534D-01  0.130211D-01 -0.351969D-02  0.256381D-01  0.294086D-01
     21 -0.289230D-01 -0.567069D-02  0.188748D-01 -0.349217D-02 -0.213182D-01
               21 
     21  0.668867D-01
 Leave Link  716 at Tue Jan  3 09:07:35 2023, MaxMem=   536870912 cpu:               0.1 elap:               0.0
 (Enter /opt/software/gaussian/g16.c01/l103.exe)

 GradGradGradGradGradGradGradGradGradGradGradGradGradGradGradGradGradGrad
 Berny optimization.
 Search for a local minimum.
 Step number   1 out of a maximum of    2
 All quantities printed in internal units (Hartrees-Bohrs-Radians)
 Second derivative matrix not updated -- first step.
 ITU=  0
     Eigenvalues ---    0.00860   0.01482   0.01804   0.07108   0.07556
     Eigenvalues ---    0.11270   0.14823   0.15345   0.17618   0.32617
     Eigenvalues ---    0.36576   0.82416   0.92900   1.11635   1.31988
 Angle between quadratic step and forces=  42.47 degrees.
 Linear search not attempted -- first point.
 B after Tr=    -0.001938    0.000978   -0.002571
         Rot=    1.000000   -0.000013   -0.000004    0.000008 Ang=  -0.00 deg.
 Variable       Old X    -DE/DX   Delta X   Delta X   Delta X     New X
                                 (Linear)    (Quad)   (Total)
    X1        1.85917   0.00551   0.00000   0.01896   0.01702   1.87619
    Y1       -0.06153   0.00042   0.00000   0.00518   0.00612  -0.05540
    Z1        0.09233  -0.00005   0.00000  -0.00871  -0.01130   0.08103
    X2        4.92676  -0.00705   0.00000  -0.00604  -0.00798   4.91879
    Y2        0.18746   0.00354   0.00000   0.00296   0.00386   0.19132
    Z2        0.03552  -0.00936   0.00000  -0.00806  -0.01067   0.02486
    X3        6.09876  -0.00204   0.00000  -0.01582  -0.01776   6.08100
    Y3        1.39121  -0.00216   0.00000  -0.00672  -0.00577   1.38544
    Z3       -2.54358   0.00464   0.00000   0.01289   0.01030  -2.53328
    X4        1.07794   0.00228   0.00000   0.02527   0.02333   1.10127
    Y4       -0.86461   0.00249   0.00000   0.01242   0.01334  -0.85127
    Z4        1.81365  -0.00535   0.00000  -0.02391  -0.02651   1.78715
    X5        0.64970   0.00371   0.00000   0.02809   0.02615   0.67585
    Y5        0.52577  -0.00195   0.00000  -0.00101  -0.00000   0.52576
    Z5       -1.46547   0.00511   0.00000   0.00686   0.00430  -1.46117
    X6        4.94205   0.00389   0.00000  -0.00312  -0.00506   4.93698
    Y6        1.99647  -0.00189   0.00000  -0.01163  -0.01062   1.98584
    Z6       -4.13423   0.00500   0.00000   0.02626   0.02370  -4.11053
    X7        8.14558  -0.00631   0.00000  -0.03376  -0.03570   8.10989
    Y7        1.55646  -0.00045   0.00000  -0.00785  -0.00693   1.54953
    Z7       -2.58103  -0.00000   0.00000   0.01278   0.01018  -2.57085
         Item               Value     Threshold  Converged?
 Maximum Force            0.009360     0.000450     NO 
 RMS     Force            0.004244     0.000300     NO 
 Maximum Displacement     0.035698     0.001800     NO 
 RMS     Displacement     0.015969     0.001200     NO 
 Predicted change in Energy=-5.287871D-04
 GradGradGradGradGradGradGradGradGradGradGradGradGradGradGradGradGradGrad

 Leave Link  103 at Tue Jan  3 09:07:35 2023, MaxMem=   536870912 cpu:               0.0 elap:               0.0
 (Enter /opt/software/gaussian/g16.c01/l9999.exe)
 Unable to Open any file for archive entry.
 1\1\GINC-GRA704\Force\UwB97XD\Gen\C2H4S1\BHAVUK\03-Jan-2023\0\\#p uwb9
 7xd/chkbasis force guess=read geom=check scf=(maxcycle=900,verytightli
 neq,xqc) integral=grid=ultrafine symmetry=None density=current pop=(cm
 5,hlygat,mbs,npa) output=wfx\\0003_q000_m01_k00_opt_uwb97xd_def2svpd/0
 003_q000_m01_k00_force_uwb97xd_def2tzvp stable-force\\0,1\C,0.98383252
 25,-0.0325586033,0.0488580178\S,2.6071301422,0.0991997065,0.0187984451
 \C,3.2273228911,0.736197977,-1.3460048506\H,0.570421034,-0.4575297175,
 0.9597448627\H,0.3438072589,0.2782232167,-0.7754915598\H,2.615218944,1
 .0564841772,-2.1877415072\H,4.3104572053,0.8236432464,-1.365823405\\Ve
 rsion=ES64L-G16RevC.01\HF=-476.7345184\S2=0.\S2-1=0.\S2A=0.\RMSD=2.547
 e-09\RMSF=4.244e-03\Dipole=-0.0516871,0.0261662,-0.0689428\Quadrupole=
 0.8738483,-1.7076512,0.8338029,0.3311194,-0.2081275,-1.3725623\PG=Unkn
 own\\@
 The archive entry for this job was punched.

 Writing a WFNX file to "0003_q000_m01_k00_force_uwb97xd_def2tzvp.wfx"


 IF YOU WANT TO LEARN FROM THE THEORETICAL PHYSICISTS ABOUT THE
 METHODS WHICH THEY USE, I ADVISE YOU TO FOLLOW THIS PRINCIPLE VERY STRICTLY:
 DON'T LISTEN TO THEIR WORDS; PAY ATTENTION, INSTEAD, TO THEIR ACTIONS.
 -- A.EINSTEIN, 1934
 Job cpu time:       0 days  0 hours  0 minutes 31.6 seconds.
 Elapsed time:       0 days  0 hours  0 minutes 15.5 seconds.
 File lengths (MBytes):  RWF=     16 Int=      0 D2E=      0 Chk=      3 Scr=      1
 Normal termination of Gaussian 16 at Tue Jan  3 09:07:36 2023.
