 Entering Gaussian System, Link 0=g16
 Input=0003_q000_m01_k00_force_ub3lyp_def2tzvp.com
 Output=0003_q000_m01_k00_force_ub3lyp_def2tzvp.log
 Initial command:
 /opt/software/gaussian/g16.c01/l1.exe "/localscratch/bhavuk.2151377.0/Gau-9130.inp" -scrdir="/localscratch/bhavuk.2151377.0/"
 Entering Link 1 = /opt/software/gaussian/g16.c01/l1.exe PID=      9141.
  
 Copyright (c) 1988-2019, Gaussian, Inc.  All Rights Reserved.
  
 This is part of the Gaussian(R) 16 program.  It is based on
 the Gaussian(R) 09 system (copyright 2009, Gaussian, Inc.),
 the Gaussian(R) 03 system (copyright 2003, Gaussian, Inc.),
 the Gaussian(R) 98 system (copyright 1998, Gaussian, Inc.),
 the Gaussian(R) 94 system (copyright 1995, Gaussian, Inc.),
 the Gaussian 92(TM) system (copyright 1992, Gaussian, Inc.),
 the Gaussian 90(TM) system (copyright 1990, Gaussian, Inc.),
 the Gaussian 88(TM) system (copyright 1988, Gaussian, Inc.),
 the Gaussian 86(TM) system (copyright 1986, Carnegie Mellon
 University), and the Gaussian 82(TM) system (copyright 1983,
 Carnegie Mellon University). Gaussian is a federally registered
 trademark of Gaussian, Inc.
  
 This software contains proprietary and confidential information,
 including trade secrets, belonging to Gaussian, Inc.
  
 This software is provided under written license and may be
 used, copied, transmitted, or stored only in accord with that
 written license.
  
 The following legend is applicable only to US Government
 contracts under FAR:
  
                    RESTRICTED RIGHTS LEGEND
  
 Use, reproduction and disclosure by the US Government is
 subject to restrictions as set forth in subparagraphs (a)
 and (c) of the Commercial Computer Software - Restricted
 Rights clause in FAR 52.227-19.
  
 Gaussian, Inc.
 340 Quinnipiac St., Bldg. 40, Wallingford CT 06492
  
  
 ---------------------------------------------------------------
 Warning -- This program may not be used in any manner that
 competes with the business of Gaussian, Inc. or will provide
 assistance to any competitor of Gaussian, Inc.  The licensee
 of this program is prohibited from giving any competitor of
 Gaussian, Inc. access to this program.  By using this program,
 the user acknowledges that Gaussian, Inc. is engaged in the
 business of creating and licensing software in the field of
 computational chemistry and represents and warrants to the
 licensee that it is not a competitor of Gaussian, Inc. and that
 it will not use this program in any manner prohibited above.
 ---------------------------------------------------------------
  

 Cite this work as:
 Gaussian 16, Revision C.01,
 M. J. Frisch, G. W. Trucks, H. B. Schlegel, G. E. Scuseria, 
 M. A. Robb, J. R. Cheeseman, G. Scalmani, V. Barone, 
 G. A. Petersson, H. Nakatsuji, X. Li, M. Caricato, A. V. Marenich, 
 J. Bloino, B. G. Janesko, R. Gomperts, B. Mennucci, H. P. Hratchian, 
 J. V. Ortiz, A. F. Izmaylov, J. L. Sonnenberg, D. Williams-Young, 
 F. Ding, F. Lipparini, F. Egidi, J. Goings, B. Peng, A. Petrone, 
 T. Henderson, D. Ranasinghe, V. G. Zakrzewski, J. Gao, N. Rega, 
 G. Zheng, W. Liang, M. Hada, M. Ehara, K. Toyota, R. Fukuda, 
 J. Hasegawa, M. Ishida, T. Nakajima, Y. Honda, O. Kitao, H. Nakai, 
 T. Vreven, K. Throssell, J. A. Montgomery, Jr., J. E. Peralta, 
 F. Ogliaro, M. J. Bearpark, J. J. Heyd, E. N. Brothers, K. N. Kudin, 
 V. N. Staroverov, T. A. Keith, R. Kobayashi, J. Normand, 
 K. Raghavachari, A. P. Rendell, J. C. Burant, S. S. Iyengar, 
 J. Tomasi, M. Cossi, J. M. Millam, M. Klene, C. Adamo, R. Cammi, 
 J. W. Ochterski, R. L. Martin, K. Morokuma, O. Farkas, 
 J. B. Foresman, and D. J. Fox, Gaussian, Inc., Wallingford CT, 2019.
 
 ******************************************
 Gaussian 16:  ES64L-G16RevC.01  3-Jul-2019
                 3-Jan-2023 
 ******************************************
 %chk=0003_q000_m01_k00_force_ub3lyp_def2tzvp.chk
 %nprocshared=2
 Will use up to    2 processors via shared memory.
 %mem=4GB
 ----------------------------------------------------------------------
 #p ub3lyp/gen stable=opt scf=(maxcycle=900,verytightlineq,xqc) integra
 l=grid=ultrafine symmetry=None density=current iop(99/18=-1) output=wf
 n
 ----------------------------------------------------------------------
 1/38=1,172=1/1;
 2/12=2,15=3,17=6,18=5,40=1/2;
 3/5=7,11=2,25=1,30=1,74=-5,75=-5,116=2/1,2,3;
 4//1;
 5/5=2,7=900,8=3,13=1,17=3,38=5/2,8;
 6/7=2,8=2,9=2,10=2,22=-1,28=1/1;
 8/6=1,10=90,11=11/1;
 9/8=-3,42=1,46=1/14;
 5/5=2,7=900,8=3,17=43,38=5/8(-2);
 6/7=2,8=2,9=2,10=2,22=-1,28=1/1;
 99/5=1,6=100,9=1,18=-1/99;
 Leave Link    1 at Tue Jan  3 09:05:17 2023, MaxMem=   536870912 cpu:               0.4 elap:               0.3
 (Enter /opt/software/gaussian/g16.c01/l101.exe)
 ----------------------------------------------------------------------
 0003_q000_m01_k00_opt_uwb97xd_def2svpd/0003_q000_m01_k00_force_ub3lyp_
 def2tzvp stable-force
 ----------------------------------------------------------------------
 Symbolic Z-matrix:
 Charge =  0 Multiplicity = 1
 C                     0.98383  -0.03256   0.04886 
 S                     2.60713   0.0992    0.0188 
 C                     3.22732   0.7362   -1.346 
 H                     0.57042  -0.45753   0.95974 
 H                     0.34381   0.27822  -0.77549 
 H                     2.61522   1.05648  -2.18774 
 H                     4.31046   0.82364  -1.36582 
 
 ITRead=  0  0  0  0  0  0  0
 MicOpt= -1 -1 -1 -1 -1 -1 -1
 NAtoms=      7 NQM=        7 NQMF=       0 NMMI=      0 NMMIF=      0
                NMic=       0 NMicF=      0.
                    Isotopes and Nuclear Properties:
 (Nuclear quadrupole moments (NQMom) in fm**2, nuclear magnetic moments (NMagM)
  in nuclear magnetons)

  Atom         1           2           3           4           5           6           7
 IAtWgt=          12          32          12           1           1           1           1
 AtmWgt=  12.0000000  31.9720718  12.0000000   1.0078250   1.0078250   1.0078250   1.0078250
 NucSpn=           0           0           0           1           1           1           1
 AtZEff=  -0.0000000  -0.0000000  -0.0000000  -0.0000000  -0.0000000  -0.0000000  -0.0000000
 NQMom=    0.0000000   0.0000000   0.0000000   0.0000000   0.0000000   0.0000000   0.0000000
 NMagM=    0.0000000   0.0000000   0.0000000   2.7928460   2.7928460   2.7928460   2.7928460
 AtZNuc=   6.0000000  16.0000000   6.0000000   1.0000000   1.0000000   1.0000000   1.0000000
 Leave Link  101 at Tue Jan  3 09:05:18 2023, MaxMem=   536870912 cpu:               0.5 elap:               0.3
 (Enter /opt/software/gaussian/g16.c01/l202.exe)
                          Input orientation:                          
 ---------------------------------------------------------------------
 Center     Atomic      Atomic             Coordinates (Angstroms)
 Number     Number       Type             X           Y           Z
 ---------------------------------------------------------------------
      1          6           0        0.983833   -0.032559    0.048858
      2         16           0        2.607130    0.099200    0.018798
      3          6           0        3.227323    0.736198   -1.346005
      4          1           0        0.570421   -0.457530    0.959745
      5          1           0        0.343807    0.278223   -0.775492
      6          1           0        2.615219    1.056484   -2.187742
      7          1           0        4.310457    0.823643   -1.365823
 ---------------------------------------------------------------------
                    Distance matrix (angstroms):
                    1          2          3          4          5
     1  C    0.000000
     2  S    1.628913   0.000000
     3  C    2.751341   1.628832   0.000000
     4  H    1.086841   2.311604   3.714915   0.000000
     5  H    1.088931   2.405323   2.974876   1.898350   0.000000
     6  H    2.974864   2.405260   1.088933   4.047234   2.785579
     7  H    3.714948   2.311562   1.086839   4.586670   4.047257
                    6          7
     6  H    0.000000
     7  H    1.898314   0.000000
 Symmetry turned off by external request.
 Stoichiometry    C2H4S
 Rotational constants (GHZ):          32.8865896           8.4327606           6.7117401
 Leave Link  202 at Tue Jan  3 09:05:18 2023, MaxMem=   536870912 cpu:               0.0 elap:               0.0
 (Enter /opt/software/gaussian/g16.c01/l301.exe)
 General basis read from cards:  (5D, 7F)
 Centers:       4      5      6      7
 S 3 1.00
     Exponent=  3.4061341000D+01 Coefficients=  6.0251978000D-03
     Exponent=  5.1235746000D+00 Coefficients=  4.5021094000D-02
     Exponent=  1.1646626000D+00 Coefficients=  2.0189726000D-01
 S 1 1.00
     Exponent=  3.2723041000D-01 Coefficients=  1.0000000000D+00
 S 1 1.00
     Exponent=  1.0307241000D-01 Coefficients=  1.0000000000D+00
 P 1 1.00
     Exponent=  8.0000000000D-01 Coefficients=  1.0000000000D+00
 ****
 Centers:       1      3
 S 6 1.00
     Exponent=  1.3575349682D+04 Coefficients=  2.2245814352D-04
     Exponent=  2.0352333680D+03 Coefficients=  1.7232738252D-03
     Exponent=  4.6322562359D+02 Coefficients=  8.9255715314D-03
     Exponent=  1.3120019598D+02 Coefficients=  3.5727984502D-02
     Exponent=  4.2853015891D+01 Coefficients=  1.1076259931D-01
     Exponent=  1.5584185766D+01 Coefficients=  2.4295627626D-01
 S 2 1.00
     Exponent=  6.2067138508D+00 Coefficients=  4.1440263448D-01
     Exponent=  2.5764896527D+00 Coefficients=  2.3744968655D-01
 S 1 1.00
     Exponent=  5.7696339419D-01 Coefficients=  1.0000000000D+00
 S 1 1.00
     Exponent=  2.2972831358D-01 Coefficients=  1.0000000000D+00
 S 1 1.00
     Exponent=  9.5164440028D-02 Coefficients=  1.0000000000D+00
 P 4 1.00
     Exponent=  3.4697232244D+01 Coefficients=  5.3333657805D-03
     Exponent=  7.9582622826D+00 Coefficients=  3.5864109092D-02
     Exponent=  2.3780826883D+00 Coefficients=  1.4215873329D-01
     Exponent=  8.1433208183D-01 Coefficients=  3.4270471845D-01
 P 1 1.00
     Exponent=  2.8887547253D-01 Coefficients=  4.6445822433D-01
 P 1 1.00
     Exponent=  1.0056823671D-01 Coefficients=  2.4955789874D-01
 D 1 1.00
     Exponent=  1.0970000000D+00 Coefficients=  1.0000000000D+00
 D 1 1.00
     Exponent=  3.1800000000D-01 Coefficients=  1.0000000000D+00
 F 1 1.00
     Exponent=  7.6100000000D-01 Coefficients=  1.0000000000D+00
 ****
 Centers:       2
 S 7 1.00
     Exponent=  6.0700928104D+04 Coefficients=  5.4695944225D-04
     Exponent=  9.1026106854D+03 Coefficients=  4.2297224557D-03
     Exponent=  2.0714166009D+03 Coefficients=  2.1747824159D-02
     Exponent=  5.8602476821D+02 Coefficients=  8.5100053589D-02
     Exponent=  1.9055395021D+02 Coefficients=  2.4799128459D-01
     Exponent=  6.7630384260D+01 Coefficients=  4.6703640406D-01
     Exponent=  2.5127306905D+01 Coefficients=  3.6434587550D-01
 S 3 1.00
     Exponent=  1.1257463010D+02 Coefficients=  2.1670040240D-02
     Exponent=  3.4795554217D+01 Coefficients=  9.3602301760D-02
     Exponent=  6.5115556215D+00 Coefficients= -2.6068001422D-01
 S 2 1.00
     Exponent=  3.2399032261D+00 Coefficients=  1.2842089435D+00
     Exponent=  1.5477160881D+00 Coefficients=  6.6036416584D-01
 S 1 1.00
     Exponent=  4.0541030112D-01 Coefficients=  1.0000000000D+00
 S 1 1.00
     Exponent=  1.4550651059D-01 Coefficients=  1.0000000000D+00
 P 5 1.00
     Exponent=  5.6436716027D+02 Coefficients=  2.4796796317D-03
     Exponent=  1.3342624379D+02 Coefficients=  1.9677930250D-02
     Exponent=  4.2468271189D+01 Coefficients=  8.9980008258D-02
     Exponent=  1.5616527580D+01 Coefficients=  2.5705880575D-01
     Exponent=  6.1093988469D+00 Coefficients=  4.3515167292D-01
 P 1 1.00
     Exponent=  2.4404160198D+00 Coefficients=  3.4883240595D-01
 P 1 1.00
     Exponent=  8.3882201296D-01 Coefficients=  1.0000000000D+00
 P 1 1.00
     Exponent=  3.1288746900D-01 Coefficients=  1.0000000000D+00
 P 1 1.00
     Exponent=  1.0770109004D-01 Coefficients=  1.0000000000D+00
 D 2 1.00
     Exponent=  3.7560000000D+00 Coefficients=  2.0000000000D-01
     Exponent=  8.1200000000D-01 Coefficients=  1.0000000000D+00
 D 1 1.00
     Exponent=  2.7300000000D-01 Coefficients=  1.0000000000D+00
 F 1 1.00
     Exponent=  5.5700000000D-01 Coefficients=  1.0000000000D+00
 ****
 Ernie: Thresh=  0.10000D-02 Tol=  0.10000D-05 Strict=F.
   123 basis functions,   203 primitive gaussians,   138 cartesian basis functions
    16 alpha electrons       16 beta electrons
       nuclear repulsion energy       100.3080120317 Hartrees.
 IExCor=  402 DFT=T Ex+Corr=B3LYP ExCW=0 ScaHFX=  0.200000
 ScaDFX=  0.800000  0.720000  1.000000  0.810000 ScalE2=  1.000000  1.000000
 IRadAn=      5 IRanWt=     -1 IRanGd=            0 ICorTp=0 IEmpDi=  4
 NAtoms=    7 NActive=    7 NUniq=    7 SFac= 1.00D+00 NAtFMM=   60 NAOKFM=F Big=F
 Integral buffers will be    131072 words long.
 Raffenetti 2 integral format.
 Two-electron integral symmetry is turned off.
 Leave Link  301 at Tue Jan  3 09:05:18 2023, MaxMem=   536870912 cpu:               0.2 elap:               0.1
 (Enter /opt/software/gaussian/g16.c01/l302.exe)
 NPDir=0 NMtPBC=     1 NCelOv=     1 NCel=       1 NClECP=     1 NCelD=      1
         NCelK=      1 NCelE2=     1 NClLst=     1 CellRange=     0.0.
 One-electron integrals computed using PRISM.
 NBasis=   123 RedAO= T EigKep=  1.22D-03  NBF=   123
 NBsUse=   123 1.00D-06 EigRej= -1.00D+00 NBFU=   123
 Precomputing XC quadrature grid using
 IXCGrd= 4 IRadAn=           5 IRanWt=          -1 IRanGd=           0 AccXCQ= 0.00D+00.
 Generated NRdTot=       0 NPtTot=           0 NUsed=           0 NTot=          32
 NSgBfM=   138   137   137   138   138 MxSgAt=     7 MxSgA2=     7.
 Leave Link  302 at Tue Jan  3 09:05:18 2023, MaxMem=   536870912 cpu:               0.4 elap:               0.2
 (Enter /opt/software/gaussian/g16.c01/l303.exe)
 DipDrv:  MaxL=1.
 Leave Link  303 at Tue Jan  3 09:05:18 2023, MaxMem=   536870912 cpu:               0.1 elap:               0.1
 (Enter /opt/software/gaussian/g16.c01/l401.exe)
 ExpMin= 9.52D-02 ExpMax= 6.07D+04 ExpMxC= 2.07D+03 IAcc=3 IRadAn=         5 AccDes= 0.00D+00
 Harris functional with IExCor=  402 and IRadAn=       5 diagonalized for initial guess.
 HarFok:  IExCor=  402 AccDes= 0.00D+00 IRadAn=         5 IDoV= 1 UseB2=F ITyADJ=14
 ICtDFT=  3500011 ScaDFX=  1.000000  1.000000  1.000000  1.000000
 FoFCou: FMM=F IPFlag=           0 FMFlag=      100000 FMFlg1=           0
         NFxFlg=           0 DoJE=T BraDBF=F KetDBF=T FulRan=T
         wScrn=  0.000000 ICntrl=       500 IOpCl=  0 I1Cent=   200000004 NGrid=           0
         NMat0=    1 NMatS0=      1 NMatT0=    0 NMatD0=    1 NMtDS0=    0 NMtDT0=    0
 Symmetry not used in FoFCou.
 Harris En= -476.800970827977    
 JPrj=0 DoOrth=F DoCkMO=F.
 Initial guess <Sx>= 0.0000 <Sy>= 0.0000 <Sz>= 0.0000 <S**2>= 0.0000 S= 0.0000
 Leave Link  401 at Tue Jan  3 09:05:19 2023, MaxMem=   536870912 cpu:               1.5 elap:               0.8
 (Enter /opt/software/gaussian/g16.c01/l502.exe)
 Keep R1 and R2 ints in memory in canonical form, NReq=60178995.
 FoFCou: FMM=F IPFlag=           0 FMFlag=           0 FMFlg1=           0
         NFxFlg=           0 DoJE=F BraDBF=F KetDBF=F FulRan=T
         wScrn=  0.000000 ICntrl=       600 IOpCl=  0 I1Cent=           0 NGrid=           0
         NMat0=    1 NMatS0=   7626 NMatT0=    0 NMatD0=    1 NMtDS0=    0 NMtDT0=    0
 Symmetry not used in FoFCou.
 Two-electron integral symmetry not used.
 UHF open shell SCF:
 Using DIIS extrapolation, IDIIS=  1040.
 NGot=   536870912 LenX=   478667274 LenY=   478647789
 Requested convergence on RMS density matrix=1.00D-08 within 128 cycles.
 Requested convergence on MAX density matrix=1.00D-06.
 Requested convergence on             energy=1.00D-06.
 No special actions if energy rises.
 Integral accuracy reduced to 1.0D-05 until final iterations.

 Cycle   1  Pass 0  IDiag  1:
 E= -476.591132019717    
 DIIS: error= 6.11D-02 at cycle   1 NSaved=   1.
 NSaved= 1 IEnMin= 1 EnMin= -476.591132019717     IErMin= 1 ErrMin= 6.11D-02
 ErrMax= 6.11D-02  0.00D+00 EMaxC= 1.00D-01 BMatC= 8.85D-01 BMatP= 8.85D-01
 IDIUse=3 WtCom= 3.89D-01 WtEn= 6.11D-01
 Coeff-Com:  0.100D+01
 Coeff-En:   0.100D+01
 Coeff:      0.100D+01
 Gap=     0.040 Goal=   None    Shift=    0.000
 Gap=     0.040 Goal=   None    Shift=    0.000
 GapD=    0.040 DampG=0.250 DampE=0.500 DampFc=0.2500 IDamp=-1.
 Damping current iteration by 2.50D-01
 RMSDP=5.41D-03 MaxDP=1.22D-01              OVMax= 3.90D-01

 Cycle   2  Pass 0  IDiag  1:
 E= -476.669769348994     Delta-E=       -0.078637329277 Rises=F Damp=T
 DIIS: error= 2.70D-02 at cycle   2 NSaved=   2.
 NSaved= 2 IEnMin= 2 EnMin= -476.669769348994     IErMin= 2 ErrMin= 2.70D-02
 ErrMax= 2.70D-02  0.00D+00 EMaxC= 1.00D-01 BMatC= 1.60D-01 BMatP= 8.85D-01
 IDIUse=3 WtCom= 7.30D-01 WtEn= 2.70D-01
 Coeff-Com: -0.654D+00 0.165D+01
 Coeff-En:   0.000D+00 0.100D+01
 Coeff:     -0.478D+00 0.148D+01
 Gap=     0.130 Goal=   None    Shift=    0.000
 Gap=     0.130 Goal=   None    Shift=    0.000
 RMSDP=1.30D-03 MaxDP=3.52D-02 DE=-7.86D-02 OVMax= 2.13D-01

 Cycle   3  Pass 0  IDiag  1:
 E= -476.786227073162     Delta-E=       -0.116457724168 Rises=F Damp=F
 DIIS: error= 9.66D-03 at cycle   3 NSaved=   3.
 NSaved= 3 IEnMin= 3 EnMin= -476.786227073162     IErMin= 3 ErrMin= 9.66D-03
 ErrMax= 9.66D-03  0.00D+00 EMaxC= 1.00D-01 BMatC= 1.90D-02 BMatP= 1.60D-01
 IDIUse=3 WtCom= 9.03D-01 WtEn= 9.66D-02
 Coeff-Com:  0.424D-01 0.157D+00 0.801D+00
 Coeff-En:   0.000D+00 0.000D+00 0.100D+01
 Coeff:      0.383D-01 0.142D+00 0.820D+00
 Gap=     0.146 Goal=   None    Shift=    0.000
 Gap=     0.146 Goal=   None    Shift=    0.000
 RMSDP=4.61D-04 MaxDP=8.88D-03 DE=-1.16D-01 OVMax= 2.10D-02

 Cycle   4  Pass 0  IDiag  1:
 E= -476.790560543663     Delta-E=       -0.004333470501 Rises=F Damp=F
 DIIS: error= 2.13D-03 at cycle   4 NSaved=   4.
 NSaved= 4 IEnMin= 4 EnMin= -476.790560543663     IErMin= 4 ErrMin= 2.13D-03
 ErrMax= 2.13D-03  0.00D+00 EMaxC= 1.00D-01 BMatC= 1.12D-03 BMatP= 1.90D-02
 IDIUse=3 WtCom= 9.79D-01 WtEn= 2.13D-02
 Coeff-Com:  0.532D-01-0.587D-01 0.309D+00 0.697D+00
 Coeff-En:   0.000D+00 0.000D+00 0.000D+00 0.100D+01
 Coeff:      0.521D-01-0.575D-01 0.302D+00 0.703D+00
 Gap=     0.146 Goal=   None    Shift=    0.000
 Gap=     0.146 Goal=   None    Shift=    0.000
 RMSDP=1.20D-04 MaxDP=2.68D-03 DE=-4.33D-03 OVMax= 5.30D-03

 Cycle   5  Pass 0  IDiag  1:
 E= -476.790846469920     Delta-E=       -0.000285926257 Rises=F Damp=F
 DIIS: error= 2.78D-04 at cycle   5 NSaved=   5.
 NSaved= 5 IEnMin= 5 EnMin= -476.790846469920     IErMin= 5 ErrMin= 2.78D-04
 ErrMax= 2.78D-04  0.00D+00 EMaxC= 1.00D-01 BMatC= 2.60D-05 BMatP= 1.12D-03
 IDIUse=3 WtCom= 9.97D-01 WtEn= 2.78D-03
 Coeff-Com:  0.200D-01-0.259D-01 0.102D+00 0.261D+00 0.643D+00
 Coeff-En:   0.000D+00 0.000D+00 0.000D+00 0.000D+00 0.100D+01
 Coeff:      0.199D-01-0.258D-01 0.102D+00 0.260D+00 0.644D+00
 Gap=     0.146 Goal=   None    Shift=    0.000
 Gap=     0.146 Goal=   None    Shift=    0.000
 RMSDP=1.90D-05 MaxDP=7.32D-04 DE=-2.86D-04 OVMax= 9.47D-04

 Cycle   6  Pass 0  IDiag  1:
 E= -476.790852407865     Delta-E=       -0.000005937945 Rises=F Damp=F
 DIIS: error= 6.31D-05 at cycle   6 NSaved=   6.
 NSaved= 6 IEnMin= 6 EnMin= -476.790852407865     IErMin= 6 ErrMin= 6.31D-05
 ErrMax= 6.31D-05  0.00D+00 EMaxC= 1.00D-01 BMatC= 2.27D-06 BMatP= 2.60D-05
 IDIUse=1 WtCom= 1.00D+00 WtEn= 0.00D+00
 Coeff-Com:  0.361D-02-0.547D-02 0.131D-01 0.311D-01 0.240D+00 0.718D+00
 Coeff:      0.361D-02-0.547D-02 0.131D-01 0.311D-01 0.240D+00 0.718D+00
 Gap=     0.146 Goal=   None    Shift=    0.000
 Gap=     0.146 Goal=   None    Shift=    0.000
 RMSDP=7.26D-06 MaxDP=2.83D-04 DE=-5.94D-06 OVMax= 6.52D-04

 Initial convergence to 1.0D-05 achieved.  Increase integral accuracy.
 Cycle   7  Pass 1  IDiag  1:
 E= -476.790852513357     Delta-E=       -0.000000105491 Rises=F Damp=F
 DIIS: error= 6.95D-05 at cycle   1 NSaved=   1.
 NSaved= 1 IEnMin= 1 EnMin= -476.790852513357     IErMin= 1 ErrMin= 6.95D-05
 ErrMax= 6.95D-05  0.00D+00 EMaxC= 1.00D-01 BMatC= 1.07D-06 BMatP= 1.07D-06
 IDIUse=1 WtCom= 1.00D+00 WtEn= 0.00D+00
 Coeff-Com:  0.100D+01
 Coeff:      0.100D+01
 Gap=     0.146 Goal=   None    Shift=    0.000
 Gap=     0.146 Goal=   None    Shift=    0.000
 RMSDP=7.26D-06 MaxDP=2.83D-04 DE=-1.05D-07 OVMax= 1.59D-03

 Cycle   8  Pass 1  IDiag  1:
 E= -476.790849952825     Delta-E=        0.000002560532 Rises=F Damp=F
 DIIS: error= 2.10D-04 at cycle   2 NSaved=   2.
 NSaved= 2 IEnMin= 1 EnMin= -476.790852513357     IErMin= 1 ErrMin= 6.95D-05
 ErrMax= 2.10D-04  0.00D+00 EMaxC= 1.00D-01 BMatC= 9.52D-06 BMatP= 1.07D-06
 IDIUse=3 WtCom= 4.08D-01 WtEn= 5.92D-01
 Coeff-Com:  0.749D+00 0.251D+00
 Coeff-En:   0.833D+00 0.167D+00
 Coeff:      0.799D+00 0.201D+00
 Gap=     0.146 Goal=   None    Shift=    0.000
 Gap=     0.146 Goal=   None    Shift=    0.000
 RMSDP=7.70D-06 MaxDP=1.65D-04 DE= 2.56D-06 OVMax= 9.63D-04

 Cycle   9  Pass 1  IDiag  1:
 E= -476.790852730711     Delta-E=       -0.000002777886 Rises=F Damp=F
 DIIS: error= 4.05D-05 at cycle   3 NSaved=   3.
 NSaved= 3 IEnMin= 3 EnMin= -476.790852730711     IErMin= 3 ErrMin= 4.05D-05
 ErrMax= 4.05D-05  0.00D+00 EMaxC= 1.00D-01 BMatC= 3.57D-07 BMatP= 1.07D-06
 IDIUse=1 WtCom= 1.00D+00 WtEn= 0.00D+00
 Coeff-Com:  0.260D+00-0.696D-01 0.810D+00
 Coeff:      0.260D+00-0.696D-01 0.810D+00
 Gap=     0.146 Goal=   None    Shift=    0.000
 Gap=     0.146 Goal=   None    Shift=    0.000
 RMSDP=1.85D-06 MaxDP=3.97D-05 DE=-2.78D-06 OVMax= 2.30D-04

 Cycle  10  Pass 1  IDiag  1:
 E= -476.790852838943     Delta-E=       -0.000000108232 Rises=F Damp=F
 DIIS: error= 7.44D-07 at cycle   4 NSaved=   4.
 NSaved= 4 IEnMin= 4 EnMin= -476.790852838943     IErMin= 4 ErrMin= 7.44D-07
 ErrMax= 7.44D-07  0.00D+00 EMaxC= 1.00D-01 BMatC= 1.49D-10 BMatP= 3.57D-07
 IDIUse=1 WtCom= 1.00D+00 WtEn= 0.00D+00
 Coeff-Com:  0.554D-01-0.327D-01 0.266D+00 0.711D+00
 Coeff:      0.554D-01-0.327D-01 0.266D+00 0.711D+00
 Gap=     0.146 Goal=   None    Shift=    0.000
 Gap=     0.146 Goal=   None    Shift=    0.000
 RMSDP=6.08D-08 MaxDP=1.57D-06 DE=-1.08D-07 OVMax= 3.73D-06

 Cycle  11  Pass 1  IDiag  1:
 E= -476.790852838968     Delta-E=       -0.000000000025 Rises=F Damp=F
 DIIS: error= 4.29D-07 at cycle   5 NSaved=   5.
 NSaved= 5 IEnMin= 5 EnMin= -476.790852838968     IErMin= 5 ErrMin= 4.29D-07
 ErrMax= 4.29D-07  0.00D+00 EMaxC= 1.00D-01 BMatC= 5.84D-11 BMatP= 1.49D-10
 IDIUse=1 WtCom= 1.00D+00 WtEn= 0.00D+00
 Coeff-Com:  0.952D-03-0.117D-01 0.631D-01 0.399D+00 0.548D+00
 Coeff:      0.952D-03-0.117D-01 0.631D-01 0.399D+00 0.548D+00
 Gap=     0.146 Goal=   None    Shift=    0.000
 Gap=     0.146 Goal=   None    Shift=    0.000
 RMSDP=2.52D-08 MaxDP=8.40D-07 DE=-2.52D-11 OVMax= 2.19D-06

 Cycle  12  Pass 1  IDiag  1:
 E= -476.790852838982     Delta-E=       -0.000000000014 Rises=F Damp=F
 DIIS: error= 9.24D-08 at cycle   6 NSaved=   6.
 NSaved= 6 IEnMin= 6 EnMin= -476.790852838982     IErMin= 6 ErrMin= 9.24D-08
 ErrMax= 9.24D-08  0.00D+00 EMaxC= 1.00D-01 BMatC= 2.86D-12 BMatP= 5.84D-11
 IDIUse=1 WtCom= 1.00D+00 WtEn= 0.00D+00
 Coeff-Com: -0.539D-02-0.164D-02-0.491D-03 0.944D-01 0.241D+00 0.672D+00
 Coeff:     -0.539D-02-0.164D-02-0.491D-03 0.944D-01 0.241D+00 0.672D+00
 Gap=     0.146 Goal=   None    Shift=    0.000
 Gap=     0.146 Goal=   None    Shift=    0.000
 RMSDP=5.28D-09 MaxDP=1.19D-07 DE=-1.36D-11 OVMax= 2.61D-07

 SCF Done:  E(UB3LYP) =  -476.790852839     A.U. after   12 cycles
            NFock= 12  Conv=0.53D-08     -V/T= 2.0025
 <Sx>= 0.0000 <Sy>= 0.0000 <Sz>= 0.0000 <S**2>=-0.0000 S=-0.0000
 <L.S>=  0.00000000000    
 KE= 4.756041444910D+02 PE=-1.328912299775D+03 EE= 2.762092904134D+02
 Annihilation of the first spin contaminant:
 S**2 before annihilation    -0.0000,   after    -0.0000
 Leave Link  502 at Tue Jan  3 09:05:30 2023, MaxMem=   536870912 cpu:              21.1 elap:              11.0
 (Enter /opt/software/gaussian/g16.c01/l508.exe)
 QCSCF skips out because SCF is already converged.
 Leave Link  508 at Tue Jan  3 09:05:30 2023, MaxMem=   536870912 cpu:               0.0 elap:               0.0
 (Enter /opt/software/gaussian/g16.c01/l601.exe)
 Copying SCF densities to generalized density rwf, IOpCl= 1 IROHF=0.

 **********************************************************************

            Population analysis using the SCF Density.

 **********************************************************************

 Alpha  occ. eigenvalues --  -88.91810 -10.18572 -10.18571  -7.99066  -5.95156
 Alpha  occ. eigenvalues --   -5.95109  -5.94796  -0.85131  -0.69898  -0.57404
 Alpha  occ. eigenvalues --   -0.47166  -0.46297  -0.40747  -0.36121  -0.33612
 Alpha  occ. eigenvalues --   -0.20331
 Alpha virt. eigenvalues --   -0.05730   0.04843   0.05719   0.07226   0.09340
 Alpha virt. eigenvalues --    0.10624   0.14225   0.16153   0.20941   0.21228
 Alpha virt. eigenvalues --    0.21811   0.25603   0.26165   0.26308   0.29886
 Alpha virt. eigenvalues --    0.30069   0.38580   0.39020   0.40496   0.42473
 Alpha virt. eigenvalues --    0.44835   0.45578   0.50831   0.54563   0.55606
 Alpha virt. eigenvalues --    0.63931   0.66121   0.67493   0.72661   0.75094
 Alpha virt. eigenvalues --    0.89937   0.94074   0.95531   0.97276   0.97633
 Alpha virt. eigenvalues --    1.00627   1.07201   1.08686   1.32160   1.41466
 Alpha virt. eigenvalues --    1.42960   1.43661   1.44346   1.46945   1.53397
 Alpha virt. eigenvalues --    1.53587   1.54838   1.56001   1.57043   1.62195
 Alpha virt. eigenvalues --    1.63001   1.67365   1.67839   1.71785   1.76402
 Alpha virt. eigenvalues --    1.78245   1.78817   1.87371   1.92549   1.97198
 Alpha virt. eigenvalues --    2.02431   2.04379   2.08582   2.13564   2.16627
 Alpha virt. eigenvalues --    2.26880   2.29595   2.32605   2.44955   2.50528
 Alpha virt. eigenvalues --    2.51425   2.57761   2.64061   2.68881   2.72756
 Alpha virt. eigenvalues --    2.76936   2.84204   2.92678   2.97204   3.05397
 Alpha virt. eigenvalues --    3.07388   3.12952   3.17628   3.18932   3.24460
 Alpha virt. eigenvalues --    3.28942   3.30444   3.30673   3.32615   3.47725
 Alpha virt. eigenvalues --    3.47759   3.47784   3.56869   3.57979   3.65144
 Alpha virt. eigenvalues --    3.74654   3.88066   4.07751   4.08108   4.40382
 Alpha virt. eigenvalues --    4.46606   8.80727   9.09158   9.53682  20.56700
 Alpha virt. eigenvalues --   21.88500  21.96450
  Beta  occ. eigenvalues --  -88.91810 -10.18572 -10.18571  -7.99066  -5.95156
  Beta  occ. eigenvalues --   -5.95109  -5.94796  -0.85131  -0.69898  -0.57404
  Beta  occ. eigenvalues --   -0.47166  -0.46297  -0.40747  -0.36121  -0.33612
  Beta  occ. eigenvalues --   -0.20331
  Beta virt. eigenvalues --   -0.05730   0.04843   0.05719   0.07226   0.09340
  Beta virt. eigenvalues --    0.10624   0.14225   0.16153   0.20941   0.21228
  Beta virt. eigenvalues --    0.21811   0.25603   0.26165   0.26308   0.29886
  Beta virt. eigenvalues --    0.30069   0.38580   0.39020   0.40496   0.42473
  Beta virt. eigenvalues --    0.44835   0.45578   0.50831   0.54563   0.55606
  Beta virt. eigenvalues --    0.63931   0.66121   0.67493   0.72661   0.75094
  Beta virt. eigenvalues --    0.89937   0.94074   0.95531   0.97276   0.97633
  Beta virt. eigenvalues --    1.00627   1.07201   1.08686   1.32160   1.41466
  Beta virt. eigenvalues --    1.42960   1.43661   1.44346   1.46945   1.53397
  Beta virt. eigenvalues --    1.53587   1.54838   1.56001   1.57043   1.62195
  Beta virt. eigenvalues --    1.63001   1.67365   1.67839   1.71785   1.76402
  Beta virt. eigenvalues --    1.78245   1.78817   1.87371   1.92549   1.97198
  Beta virt. eigenvalues --    2.02431   2.04379   2.08582   2.13564   2.16627
  Beta virt. eigenvalues --    2.26880   2.29595   2.32605   2.44955   2.50528
  Beta virt. eigenvalues --    2.51425   2.57761   2.64061   2.68881   2.72756
  Beta virt. eigenvalues --    2.76936   2.84204   2.92678   2.97204   3.05397
  Beta virt. eigenvalues --    3.07388   3.12952   3.17628   3.18932   3.24460
  Beta virt. eigenvalues --    3.28942   3.30444   3.30673   3.32615   3.47725
  Beta virt. eigenvalues --    3.47759   3.47784   3.56869   3.57979   3.65144
  Beta virt. eigenvalues --    3.74654   3.88066   4.07751   4.08108   4.40382
  Beta virt. eigenvalues --    4.46606   8.80727   9.09158   9.53682  20.56700
  Beta virt. eigenvalues --   21.88500  21.96450
          Condensed to atoms (all electrons):
               1          2          3          4          5          6
     1  C    5.160483   0.491903  -0.095538   0.404992   0.416615   0.002331
     2  S    0.491903  14.979023   0.491911  -0.038394  -0.049289  -0.049294
     3  C   -0.095538   0.491911   5.160416   0.002833   0.002333   0.416621
     4  H    0.404992  -0.038394   0.002833   0.509888  -0.021668  -0.000113
     5  H    0.416615  -0.049289   0.002333  -0.021668   0.514050   0.003369
     6  H    0.002331  -0.049294   0.416621  -0.000113   0.003369   0.514053
     7  H    0.002834  -0.038395   0.404991  -0.000159  -0.000113  -0.021671
               7
     1  C    0.002834
     2  S   -0.038395
     3  C    0.404991
     4  H   -0.000159
     5  H   -0.000113
     6  H   -0.021671
     7  H    0.509889
          Atomic-Atomic Spin Densities.
               1          2          3          4          5          6
     1  C   -0.000000   0.000000   0.000000   0.000000   0.000000   0.000000
     2  S    0.000000   0.000000   0.000000   0.000000  -0.000000   0.000000
     3  C    0.000000   0.000000  -0.000000  -0.000000  -0.000000  -0.000000
     4  H    0.000000   0.000000  -0.000000  -0.000000   0.000000  -0.000000
     5  H    0.000000  -0.000000  -0.000000   0.000000  -0.000000   0.000000
     6  H    0.000000   0.000000  -0.000000  -0.000000   0.000000  -0.000000
     7  H   -0.000000  -0.000000   0.000000   0.000000  -0.000000   0.000000
               7
     1  C   -0.000000
     2  S   -0.000000
     3  C    0.000000
     4  H    0.000000
     5  H   -0.000000
     6  H    0.000000
     7  H    0.000000
 Mulliken charges and spin densities:
               1          2
     1  C   -0.383619  -0.000000
     2  S    0.212533   0.000000
     3  C   -0.383568  -0.000000
     4  H    0.142621  -0.000000
     5  H    0.134704  -0.000000
     6  H    0.134706   0.000000
     7  H    0.142623   0.000000
 Sum of Mulliken charges =  -0.00000  -0.00000
 Mulliken charges and spin densities with hydrogens summed into heavy atoms:
               1          2
     1  C   -0.106294  -0.000000
     2  S    0.212533   0.000000
     3  C   -0.106239  -0.000000
 Electronic spatial extent (au):  <R**2>=            871.0738
 Charge=             -0.0000 electrons
 Dipole moment (field-independent basis, Debye):
    X=             -0.1277    Y=              0.0646    Z=             -0.1702  Tot=              0.2224
 Quadrupole moment (field-independent basis, Debye-Ang):
   XX=            -25.2115   YY=            -28.5379   ZZ=            -25.2424
   XY=              0.4214   XZ=             -0.2550   YZ=             -1.7780
 Traceless Quadrupole moment (field-independent basis, Debye-Ang):
   XX=              1.1191   YY=             -2.2073   ZZ=              1.0882
   XY=              0.4214   XZ=             -0.2550   YZ=             -1.7780
 Octapole moment (field-independent basis, Debye-Ang**2):
  XXX=           -172.0349  YYY=            -21.6738  ZZZ=             26.8829  XYY=            -65.9412
  XXY=             -3.8438  XXZ=              7.4281  XZZ=            -61.2916  YZZ=             -4.0895
  YYZ=              9.9405  XYZ=             -2.9393
 Hexadecapole moment (field-independent basis, Debye-Ang**3):
 XXXX=           -946.9201 YYYY=            -69.8345 ZZZZ=           -122.8770 XXXY=            -46.6844
 XXXZ=             79.8828 YYYX=            -71.2771 YYYZ=             26.8577 ZZZX=             93.5715
 ZZZY=             17.2310 XXYY=           -194.8108 XXZZ=           -195.4817 YYZZ=            -30.8022
 XXYZ=             -0.4800 YYXZ=             33.6966 ZZXY=            -13.7035
 N-N= 1.003080120317D+02 E-N=-1.328912296658D+03  KE= 4.756041444910D+02
                          Isotropic Fermi Contact Couplings
        Atom                 a.u.       MegaHertz       Gauss      10(-4) cm-1
     1  C(13)             -0.00000      -0.00000      -0.00000      -0.00000
     2  S(33)             -0.00000      -0.00000      -0.00000      -0.00000
     3  C(13)             -0.00000      -0.00000      -0.00000      -0.00000
     4  H(1)              -0.00000      -0.00000      -0.00000      -0.00000
     5  H(1)              -0.00000      -0.00000      -0.00000      -0.00000
     6  H(1)              -0.00000      -0.00000      -0.00000      -0.00000
     7  H(1)               0.00000       0.00000       0.00000       0.00000
 --------------------------------------------------------
       Center         ----  Spin Dipole Couplings  ----
                      3XX-RR        3YY-RR        3ZZ-RR
 --------------------------------------------------------
     1   Atom        0.000000      0.000000      0.000000
     2   Atom        0.000000      0.000000      0.000000
     3   Atom        0.000000      0.000000      0.000000
     4   Atom        0.000000      0.000000      0.000000
     5   Atom        0.000000      0.000000      0.000000
     6   Atom        0.000000      0.000000      0.000000
     7   Atom        0.000000      0.000000      0.000000
 --------------------------------------------------------
                        XY            XZ            YZ
 --------------------------------------------------------
     1   Atom        0.000000      0.000000      0.000000
     2   Atom        0.000000      0.000000      0.000000
     3   Atom        0.000000      0.000000      0.000000
     4   Atom        0.000000      0.000000      0.000000
     5   Atom        0.000000      0.000000      0.000000
     6   Atom        0.000000      0.000000      0.000000
     7   Atom        0.000000      0.000000      0.000000
 --------------------------------------------------------


 ---------------------------------------------------------------------------------
              Anisotropic Spin Dipole Couplings in Principal Axis System
 ---------------------------------------------------------------------------------

       Atom             a.u.   MegaHertz   Gauss  10(-4) cm-1        Axes

              Baa     0.0000     0.000     0.000     0.000  1.0000  0.0000  0.0000
     1 C(13)  Bbb     0.0000     0.000     0.000     0.000 -0.0000  1.0000  0.0000
              Bcc     0.0000     0.000     0.000     0.000  0.0000  0.0000  1.0000
 
              Baa     0.0000     0.000     0.000     0.000  1.0000  0.0000  0.0000
     2 S(33)  Bbb     0.0000     0.000     0.000     0.000 -0.0000  1.0000  0.0000
              Bcc     0.0000     0.000     0.000     0.000  0.0000  0.0000  1.0000
 
              Baa     0.0000     0.000     0.000     0.000  1.0000  0.0000  0.0000
     3 C(13)  Bbb     0.0000     0.000     0.000     0.000 -0.0000  1.0000  0.0000
              Bcc     0.0000     0.000     0.000     0.000  0.0000  0.0000  1.0000
 
              Baa     0.0000     0.000     0.000     0.000  1.0000  0.0000  0.0000
     4 H(1)   Bbb     0.0000     0.000     0.000     0.000 -0.0000  1.0000  0.0000
              Bcc     0.0000     0.000     0.000     0.000  0.0000  0.0000  1.0000
 
              Baa     0.0000     0.000     0.000     0.000  1.0000  0.0000  0.0000
     5 H(1)   Bbb     0.0000     0.000     0.000     0.000 -0.0000  1.0000  0.0000
              Bcc     0.0000     0.000     0.000     0.000  0.0000  0.0000  1.0000
 
              Baa     0.0000     0.000     0.000     0.000  1.0000  0.0000  0.0000
     6 H(1)   Bbb     0.0000     0.000     0.000     0.000 -0.0000  1.0000  0.0000
              Bcc     0.0000     0.000     0.000     0.000  0.0000  0.0000  1.0000
 
              Baa     0.0000     0.000     0.000     0.000  1.0000  0.0000  0.0000
     7 H(1)   Bbb     0.0000     0.000     0.000     0.000 -0.0000  1.0000  0.0000
              Bcc     0.0000     0.000     0.000     0.000  0.0000  0.0000  1.0000
 

 ---------------------------------------------------------------------------------

 No NMR shielding tensors so no spin-rotation constants.
 Leave Link  601 at Tue Jan  3 09:05:30 2023, MaxMem=   536870912 cpu:               0.3 elap:               0.2
 (Enter /opt/software/gaussian/g16.c01/l801.exe)
 DoSCS=F DFT=T ScalE2(SS,OS)=  1.000000  1.000000
 Range of M.O.s used for correlation:     1   123
 NBasis=   123 NAE=    16 NBE=    16 NFC=     0 NFV=     0
 NROrb=    123 NOA=    16 NOB=    16 NVA=   107 NVB=   107
 Leave Link  801 at Tue Jan  3 09:05:30 2023, MaxMem=   536870912 cpu:               0.1 elap:               0.1
 (Enter /opt/software/gaussian/g16.c01/l914.exe)
 UHF ground state
 Doing stability rather than CIS.
 Keep R1 and R2 ints in memory in canonical form, NReq=62868128.
 FoFCou: FMM=F IPFlag=           0 FMFlag=           0 FMFlg1=           0
         NFxFlg=           0 DoJE=F BraDBF=F KetDBF=F FulRan=T
         wScrn=  0.000000 ICntrl=       600 IOpCl=  0 I1Cent=           0 NGrid=           0
         NMat0=    1 NMatS0=   7626 NMatT0=    0 NMatD0=    1 NMtDS0=    0 NMtDT0=    0
 Symmetry not used in FoFCou.
 Two-electron integral symmetry not used.
 MDV=   536870912 DFT=T DoStab=T Mixed=T DoRPA=F DoScal=F NonHer=F
 Making orbital integer symmetry assigments:
    12 initial guesses have been made.
 Convergence on wavefunction:    0.001000000000000
 Davidson Disk Diagonalization:  ConvIn= 1.00D-03 SkipCon=T Conv= 1.00D-03.
 Max sub-space:  2000 roots to seek:    12 dimension of matrix:         3424
 Iteration     1 Dimension    12 NMult     0 NNew     12
 CISAX will form    12 AO SS matrices at one time.
 NMat=    12 NSing=    12 JSym2X= 0.
 Excitation Energies [eV] at current iteration:
 Root      1 :     0.882001426151789
 Root      2 :     5.053589831034095
 Root      3 :     5.416153832873134
 Root      4 :     5.534693602645358
 Root      5 :     5.902146072635794
 Root      6 :     5.928960402570620
 Root      7 :     6.166211276583692
 Root      8 :     6.243625611017057
 Root      9 :     6.688693817042584
 Root     10 :     7.098075616475596
 Root     11 :     7.422245431724723
 Root     12 :    10.544289239457799
 Iteration     2 Dimension    24 NMult    12 NNew     12
 CISAX will form    12 AO SS matrices at one time.
 NMat=    12 NSing=    12 JSym2X= 0.
 Root      1 not converged, maximum delta is    0.069453923758496
 Excitation Energies [eV] at current iteration:
 Root      1 :     0.505055078581382   Change is   -0.376946347570407
 Root      2 :     4.756664044348122   Change is   -0.296925786685973
 Root      3 :     5.221556399041267   Change is   -0.194597433831866
 Root      4 :     5.271682537535548   Change is   -0.263011065109811
 Root      5 :     5.686790178137899   Change is   -0.215355894497896
 Root      6 :     5.763890956633693   Change is   -0.165069445936926
 Root      7 :     6.081502301555318   Change is   -0.084708975028373
 Root      8 :     6.176135138983424   Change is   -0.067490472033632
 Root      9 :     6.474685388284666   Change is   -0.214008428757917
 Root     10 :     6.813332789716587   Change is   -0.608912642008136
 Root     11 :     6.975648761946828   Change is   -0.122426854528768
 Root     12 :     8.967407338999285   Change is   -1.576881900458514
 Iteration     3 Dimension    27 NMult    24 NNew      3
 CISAX will form     3 AO SS matrices at one time.
 NMat=     3 NSing=     3 JSym2X= 0.
 Root      1 not converged, maximum delta is    0.002556734114876
 Excitation Energies [eV] at current iteration:
 Root      1 :     0.500806940565181   Change is   -0.004248138016201
 Root      2 :     4.753086833265571   Change is   -0.003577211082551
 Root      3 :     5.218835073362767   Change is   -0.002721325678500
 Iteration     4 Dimension    30 NMult    27 NNew      3
 CISAX will form     3 AO SS matrices at one time.
 NMat=     3 NSing=     3 JSym2X= 0.
 Root      1 has converged.
 Excitation Energies [eV] at current iteration:
 Root      1 :     0.500703443457834   Change is   -0.000103497107347
 Root      2 :     4.752898540899713   Change is   -0.000188292365858
 Root      3 :     5.218678998694886   Change is   -0.000156074667881
 Convergence achieved on expansion vectors.
 ***********************************************************************
 Stability analysis using <AA,BB:AA,BB> singles matrix:
 ***********************************************************************
 1PDM for each excited state written to RWF  633
 Ground to excited state transition densities written to RWF  633

 Eigenvectors of the stability matrix:
 
 Excited state symmetry could not be determined.
 Eigenvector   1:  3.000-?Sym  Eigenvalue= 0.0184005  <S**2>=2.000
     16A -> 17A        0.69619
     16B -> 17B       -0.69619
 The wavefunction is stable under the perturbations considered.
 Leave Link  914 at Tue Jan  3 09:06:23 2023, MaxMem=   536870912 cpu:             105.2 elap:              52.7
 (Enter /opt/software/gaussian/g16.c01/l508.exe)
 The wavefunction is already stable.
 Leave Link  508 at Tue Jan  3 09:06:23 2023, MaxMem=   536870912 cpu:               0.0 elap:               0.0
 (Enter /opt/software/gaussian/g16.c01/l601.exe)
 Copying SCF densities to generalized density rwf, IOpCl= 1 IROHF=0.

 **********************************************************************

            Population analysis using the SCF Density.

 **********************************************************************

 Alpha  occ. eigenvalues --  -88.91810 -10.18572 -10.18571  -7.99066  -5.95156
 Alpha  occ. eigenvalues --   -5.95109  -5.94796  -0.85131  -0.69898  -0.57404
 Alpha  occ. eigenvalues --   -0.47166  -0.46297  -0.40747  -0.36121  -0.33612
 Alpha  occ. eigenvalues --   -0.20331
 Alpha virt. eigenvalues --   -0.05730   0.04843   0.05719   0.07226   0.09340
 Alpha virt. eigenvalues --    0.10624   0.14225   0.16153   0.20941   0.21228
 Alpha virt. eigenvalues --    0.21811   0.25603   0.26165   0.26308   0.29886
 Alpha virt. eigenvalues --    0.30069   0.38580   0.39020   0.40496   0.42473
 Alpha virt. eigenvalues --    0.44835   0.45578   0.50831   0.54563   0.55606
 Alpha virt. eigenvalues --    0.63931   0.66121   0.67493   0.72661   0.75094
 Alpha virt. eigenvalues --    0.89937   0.94074   0.95531   0.97276   0.97633
 Alpha virt. eigenvalues --    1.00627   1.07201   1.08686   1.32160   1.41466
 Alpha virt. eigenvalues --    1.42960   1.43661   1.44346   1.46945   1.53397
 Alpha virt. eigenvalues --    1.53587   1.54838   1.56001   1.57043   1.62195
 Alpha virt. eigenvalues --    1.63001   1.67365   1.67839   1.71785   1.76402
 Alpha virt. eigenvalues --    1.78245   1.78817   1.87371   1.92549   1.97198
 Alpha virt. eigenvalues --    2.02431   2.04379   2.08582   2.13564   2.16627
 Alpha virt. eigenvalues --    2.26880   2.29595   2.32605   2.44955   2.50528
 Alpha virt. eigenvalues --    2.51425   2.57761   2.64061   2.68881   2.72756
 Alpha virt. eigenvalues --    2.76936   2.84204   2.92678   2.97204   3.05397
 Alpha virt. eigenvalues --    3.07388   3.12952   3.17628   3.18932   3.24460
 Alpha virt. eigenvalues --    3.28942   3.30444   3.30673   3.32615   3.47725
 Alpha virt. eigenvalues --    3.47759   3.47784   3.56869   3.57979   3.65144
 Alpha virt. eigenvalues --    3.74654   3.88066   4.07751   4.08108   4.40382
 Alpha virt. eigenvalues --    4.46606   8.80727   9.09158   9.53682  20.56700
 Alpha virt. eigenvalues --   21.88500  21.96450
  Beta  occ. eigenvalues --  -88.91810 -10.18572 -10.18571  -7.99066  -5.95156
  Beta  occ. eigenvalues --   -5.95109  -5.94796  -0.85131  -0.69898  -0.57404
  Beta  occ. eigenvalues --   -0.47166  -0.46297  -0.40747  -0.36121  -0.33612
  Beta  occ. eigenvalues --   -0.20331
  Beta virt. eigenvalues --   -0.05730   0.04843   0.05719   0.07226   0.09340
  Beta virt. eigenvalues --    0.10624   0.14225   0.16153   0.20941   0.21228
  Beta virt. eigenvalues --    0.21811   0.25603   0.26165   0.26308   0.29886
  Beta virt. eigenvalues --    0.30069   0.38580   0.39020   0.40496   0.42473
  Beta virt. eigenvalues --    0.44835   0.45578   0.50831   0.54563   0.55606
  Beta virt. eigenvalues --    0.63931   0.66121   0.67493   0.72661   0.75094
  Beta virt. eigenvalues --    0.89937   0.94074   0.95531   0.97276   0.97633
  Beta virt. eigenvalues --    1.00627   1.07201   1.08686   1.32160   1.41466
  Beta virt. eigenvalues --    1.42960   1.43661   1.44346   1.46945   1.53397
  Beta virt. eigenvalues --    1.53587   1.54838   1.56001   1.57043   1.62195
  Beta virt. eigenvalues --    1.63001   1.67365   1.67839   1.71785   1.76402
  Beta virt. eigenvalues --    1.78245   1.78817   1.87371   1.92549   1.97198
  Beta virt. eigenvalues --    2.02431   2.04379   2.08582   2.13564   2.16627
  Beta virt. eigenvalues --    2.26880   2.29595   2.32605   2.44955   2.50528
  Beta virt. eigenvalues --    2.51425   2.57761   2.64061   2.68881   2.72756
  Beta virt. eigenvalues --    2.76936   2.84204   2.92678   2.97204   3.05397
  Beta virt. eigenvalues --    3.07388   3.12952   3.17628   3.18932   3.24460
  Beta virt. eigenvalues --    3.28942   3.30444   3.30673   3.32615   3.47725
  Beta virt. eigenvalues --    3.47759   3.47784   3.56869   3.57979   3.65144
  Beta virt. eigenvalues --    3.74654   3.88066   4.07751   4.08108   4.40382
  Beta virt. eigenvalues --    4.46606   8.80727   9.09158   9.53682  20.56700
  Beta virt. eigenvalues --   21.88500  21.96450
          Condensed to atoms (all electrons):
               1          2          3          4          5          6
     1  C    5.160483   0.491903  -0.095538   0.404992   0.416615   0.002331
     2  S    0.491903  14.979023   0.491911  -0.038394  -0.049289  -0.049294
     3  C   -0.095538   0.491911   5.160416   0.002833   0.002333   0.416621
     4  H    0.404992  -0.038394   0.002833   0.509888  -0.021668  -0.000113
     5  H    0.416615  -0.049289   0.002333  -0.021668   0.514050   0.003369
     6  H    0.002331  -0.049294   0.416621  -0.000113   0.003369   0.514053
     7  H    0.002834  -0.038395   0.404991  -0.000159  -0.000113  -0.021671
               7
     1  C    0.002834
     2  S   -0.038395
     3  C    0.404991
     4  H   -0.000159
     5  H   -0.000113
     6  H   -0.021671
     7  H    0.509889
          Atomic-Atomic Spin Densities.
               1          2          3          4          5          6
     1  C   -0.000000   0.000000   0.000000   0.000000   0.000000   0.000000
     2  S    0.000000   0.000000   0.000000   0.000000  -0.000000   0.000000
     3  C    0.000000   0.000000  -0.000000  -0.000000  -0.000000  -0.000000
     4  H    0.000000   0.000000  -0.000000  -0.000000   0.000000  -0.000000
     5  H    0.000000  -0.000000  -0.000000   0.000000  -0.000000   0.000000
     6  H    0.000000   0.000000  -0.000000  -0.000000   0.000000  -0.000000
     7  H   -0.000000  -0.000000   0.000000   0.000000  -0.000000   0.000000
               7
     1  C   -0.000000
     2  S   -0.000000
     3  C    0.000000
     4  H    0.000000
     5  H   -0.000000
     6  H    0.000000
     7  H    0.000000
 Mulliken charges and spin densities:
               1          2
     1  C   -0.383619  -0.000000
     2  S    0.212533   0.000000
     3  C   -0.383568  -0.000000
     4  H    0.142621  -0.000000
     5  H    0.134704  -0.000000
     6  H    0.134706   0.000000
     7  H    0.142623   0.000000
 Sum of Mulliken charges =  -0.00000  -0.00000
 Mulliken charges and spin densities with hydrogens summed into heavy atoms:
               1          2
     1  C   -0.106294  -0.000000
     2  S    0.212533   0.000000
     3  C   -0.106239  -0.000000
 Electronic spatial extent (au):  <R**2>=            871.0738
 Charge=             -0.0000 electrons
 Dipole moment (field-independent basis, Debye):
    X=             -0.1277    Y=              0.0646    Z=             -0.1702  Tot=              0.2224
 Quadrupole moment (field-independent basis, Debye-Ang):
   XX=            -25.2115   YY=            -28.5379   ZZ=            -25.2424
   XY=              0.4214   XZ=             -0.2550   YZ=             -1.7780
 Traceless Quadrupole moment (field-independent basis, Debye-Ang):
   XX=              1.1191   YY=             -2.2073   ZZ=              1.0882
   XY=              0.4214   XZ=             -0.2550   YZ=             -1.7780
 Octapole moment (field-independent basis, Debye-Ang**2):
  XXX=           -172.0349  YYY=            -21.6738  ZZZ=             26.8829  XYY=            -65.9412
  XXY=             -3.8438  XXZ=              7.4281  XZZ=            -61.2916  YZZ=             -4.0895
  YYZ=              9.9405  XYZ=             -2.9393
 Hexadecapole moment (field-independent basis, Debye-Ang**3):
 XXXX=           -946.9201 YYYY=            -69.8345 ZZZZ=           -122.8770 XXXY=            -46.6844
 XXXZ=             79.8828 YYYX=            -71.2771 YYYZ=             26.8577 ZZZX=             93.5715
 ZZZY=             17.2310 XXYY=           -194.8108 XXZZ=           -195.4817 YYZZ=            -30.8022
 XXYZ=             -0.4800 YYXZ=             33.6966 ZZXY=            -13.7035
 N-N= 1.003080120317D+02 E-N=-1.328912296658D+03  KE= 4.756041444910D+02
                          Isotropic Fermi Contact Couplings
        Atom                 a.u.       MegaHertz       Gauss      10(-4) cm-1
     1  C(13)             -0.00000      -0.00000      -0.00000      -0.00000
     2  S(33)             -0.00000      -0.00000      -0.00000      -0.00000
     3  C(13)             -0.00000      -0.00000      -0.00000      -0.00000
     4  H(1)              -0.00000      -0.00000      -0.00000      -0.00000
     5  H(1)              -0.00000      -0.00000      -0.00000      -0.00000
     6  H(1)              -0.00000      -0.00000      -0.00000      -0.00000
     7  H(1)               0.00000       0.00000       0.00000       0.00000
 --------------------------------------------------------
       Center         ----  Spin Dipole Couplings  ----
                      3XX-RR        3YY-RR        3ZZ-RR
 --------------------------------------------------------
     1   Atom        0.000000      0.000000      0.000000
     2   Atom        0.000000      0.000000      0.000000
     3   Atom        0.000000      0.000000      0.000000
     4   Atom        0.000000      0.000000      0.000000
     5   Atom        0.000000      0.000000      0.000000
     6   Atom        0.000000      0.000000      0.000000
     7   Atom        0.000000      0.000000      0.000000
 --------------------------------------------------------
                        XY            XZ            YZ
 --------------------------------------------------------
     1   Atom        0.000000      0.000000      0.000000
     2   Atom        0.000000      0.000000      0.000000
     3   Atom        0.000000      0.000000      0.000000
     4   Atom        0.000000      0.000000      0.000000
     5   Atom        0.000000      0.000000      0.000000
     6   Atom        0.000000      0.000000      0.000000
     7   Atom        0.000000      0.000000      0.000000
 --------------------------------------------------------


 ---------------------------------------------------------------------------------
              Anisotropic Spin Dipole Couplings in Principal Axis System
 ---------------------------------------------------------------------------------

       Atom             a.u.   MegaHertz   Gauss  10(-4) cm-1        Axes

              Baa     0.0000     0.000     0.000     0.000  1.0000  0.0000  0.0000
     1 C(13)  Bbb     0.0000     0.000     0.000     0.000 -0.0000  1.0000  0.0000
              Bcc     0.0000     0.000     0.000     0.000  0.0000  0.0000  1.0000
 
              Baa     0.0000     0.000     0.000     0.000  1.0000  0.0000  0.0000
     2 S(33)  Bbb     0.0000     0.000     0.000     0.000 -0.0000  1.0000  0.0000
              Bcc     0.0000     0.000     0.000     0.000  0.0000  0.0000  1.0000
 
              Baa     0.0000     0.000     0.000     0.000  1.0000  0.0000  0.0000
     3 C(13)  Bbb     0.0000     0.000     0.000     0.000 -0.0000  1.0000  0.0000
              Bcc     0.0000     0.000     0.000     0.000  0.0000  0.0000  1.0000
 
              Baa     0.0000     0.000     0.000     0.000  1.0000  0.0000  0.0000
     4 H(1)   Bbb     0.0000     0.000     0.000     0.000 -0.0000  1.0000  0.0000
              Bcc     0.0000     0.000     0.000     0.000  0.0000  0.0000  1.0000
 
              Baa     0.0000     0.000     0.000     0.000  1.0000  0.0000  0.0000
     5 H(1)   Bbb     0.0000     0.000     0.000     0.000 -0.0000  1.0000  0.0000
              Bcc     0.0000     0.000     0.000     0.000  0.0000  0.0000  1.0000
 
              Baa     0.0000     0.000     0.000     0.000  1.0000  0.0000  0.0000
     6 H(1)   Bbb     0.0000     0.000     0.000     0.000 -0.0000  1.0000  0.0000
              Bcc     0.0000     0.000     0.000     0.000  0.0000  0.0000  1.0000
 
              Baa     0.0000     0.000     0.000     0.000  1.0000  0.0000  0.0000
     7 H(1)   Bbb     0.0000     0.000     0.000     0.000 -0.0000  1.0000  0.0000
              Bcc     0.0000     0.000     0.000     0.000  0.0000  0.0000  1.0000
 

 ---------------------------------------------------------------------------------

 No NMR shielding tensors so no spin-rotation constants.
 Leave Link  601 at Tue Jan  3 09:06:24 2023, MaxMem=   536870912 cpu:               0.3 elap:               0.2
 (Enter /opt/software/gaussian/g16.c01/l9999.exe)

 Test job not archived.
 1\1\GINC-GRA779\Stability\UB3LYP\Gen\C2H4S1\BHAVUK\03-Jan-2023\0\\#p u
 b3lyp/gen stable=opt scf=(maxcycle=900,verytightlineq,xqc) integral=gr
 id=ultrafine symmetry=None density=current iop(99/18=-1) output=wfn\\0
 003_q000_m01_k00_opt_uwb97xd_def2svpd/0003_q000_m01_k00_force_ub3lyp_d
 ef2tzvp stable-force\\0,1\C,0,0.9838325225,-0.0325586033,0.0488580178\
 S,0,2.6071301422,0.0991997065,0.0187984451\C,0,3.2273228911,0.73619797
 7,-1.3460048506\H,0,0.570421034,-0.4575297175,0.9597448627\H,0,0.34380
 72589,0.2782232167,-0.7754915598\H,0,2.615218944,1.0564841772,-2.18774
 15072\H,0,4.3104572053,0.8236432464,-1.365823405\\Version=ES64L-G16Rev
 C.01\HF=-476.7908528\S2=0.\S2-1=0.\S2A=0.\RMSD=5.284e-09\Dipole=-0.050
 2221,0.0254214,-0.0669759\Quadrupole=0.8320317,-1.6410805,0.8090488,0.
 3132827,-0.1896031,-1.3219075\PG=Unknown\\@

 Writing a WFN file to "0003_q000_m01_k00_force_ub3lyp_def2tzvp.wfn"


 A leading authority is anyone who has guessed right more than once.
 -- Frank A. Clark
 Job cpu time:       0 days  0 hours  2 minutes 10.8 seconds.
 Elapsed time:       0 days  0 hours  1 minutes  5.9 seconds.
 File lengths (MBytes):  RWF=     99 Int=      0 D2E=      0 Chk=      3 Scr=      1
 Normal termination of Gaussian 16 at Tue Jan  3 09:06:24 2023.
 Initial command:
 /opt/software/gaussian/g16.c01/l1.exe "/localscratch/bhavuk.2151377.0/Gau-9130.inp" -scrdir="/localscratch/bhavuk.2151377.0/"
 Entering Link 1 = /opt/software/gaussian/g16.c01/l1.exe PID=     28824.
  
 Copyright (c) 1988-2019, Gaussian, Inc.  All Rights Reserved.
  
 This is part of the Gaussian(R) 16 program.  It is based on
 the Gaussian(R) 09 system (copyright 2009, Gaussian, Inc.),
 the Gaussian(R) 03 system (copyright 2003, Gaussian, Inc.),
 the Gaussian(R) 98 system (copyright 1998, Gaussian, Inc.),
 the Gaussian(R) 94 system (copyright 1995, Gaussian, Inc.),
 the Gaussian 92(TM) system (copyright 1992, Gaussian, Inc.),
 the Gaussian 90(TM) system (copyright 1990, Gaussian, Inc.),
 the Gaussian 88(TM) system (copyright 1988, Gaussian, Inc.),
 the Gaussian 86(TM) system (copyright 1986, Carnegie Mellon
 University), and the Gaussian 82(TM) system (copyright 1983,
 Carnegie Mellon University). Gaussian is a federally registered
 trademark of Gaussian, Inc.
  
 This software contains proprietary and confidential information,
 including trade secrets, belonging to Gaussian, Inc.
  
 This software is provided under written license and may be
 used, copied, transmitted, or stored only in accord with that
 written license.
  
 The following legend is applicable only to US Government
 contracts under FAR:
  
                    RESTRICTED RIGHTS LEGEND
  
 Use, reproduction and disclosure by the US Government is
 subject to restrictions as set forth in subparagraphs (a)
 and (c) of the Commercial Computer Software - Restricted
 Rights clause in FAR 52.227-19.
  
 Gaussian, Inc.
 340 Quinnipiac St., Bldg. 40, Wallingford CT 06492
  
  
 ---------------------------------------------------------------
 Warning -- This program may not be used in any manner that
 competes with the business of Gaussian, Inc. or will provide
 assistance to any competitor of Gaussian, Inc.  The licensee
 of this program is prohibited from giving any competitor of
 Gaussian, Inc. access to this program.  By using this program,
 the user acknowledges that Gaussian, Inc. is engaged in the
 business of creating and licensing software in the field of
 computational chemistry and represents and warrants to the
 licensee that it is not a competitor of Gaussian, Inc. and that
 it will not use this program in any manner prohibited above.
 ---------------------------------------------------------------
  

 Cite this work as:
 Gaussian 16, Revision C.01,
 M. J. Frisch, G. W. Trucks, H. B. Schlegel, G. E. Scuseria, 
 M. A. Robb, J. R. Cheeseman, G. Scalmani, V. Barone, 
 G. A. Petersson, H. Nakatsuji, X. Li, M. Caricato, A. V. Marenich, 
 J. Bloino, B. G. Janesko, R. Gomperts, B. Mennucci, H. P. Hratchian, 
 J. V. Ortiz, A. F. Izmaylov, J. L. Sonnenberg, D. Williams-Young, 
 F. Ding, F. Lipparini, F. Egidi, J. Goings, B. Peng, A. Petrone, 
 T. Henderson, D. Ranasinghe, V. G. Zakrzewski, J. Gao, N. Rega, 
 G. Zheng, W. Liang, M. Hada, M. Ehara, K. Toyota, R. Fukuda, 
 J. Hasegawa, M. Ishida, T. Nakajima, Y. Honda, O. Kitao, H. Nakai, 
 T. Vreven, K. Throssell, J. A. Montgomery, Jr., J. E. Peralta, 
 F. Ogliaro, M. J. Bearpark, J. J. Heyd, E. N. Brothers, K. N. Kudin, 
 V. N. Staroverov, T. A. Keith, R. Kobayashi, J. Normand, 
 K. Raghavachari, A. P. Rendell, J. C. Burant, S. S. Iyengar, 
 J. Tomasi, M. Cossi, J. M. Millam, M. Klene, C. Adamo, R. Cammi, 
 J. W. Ochterski, R. L. Martin, K. Morokuma, O. Farkas, 
 J. B. Foresman, and D. J. Fox, Gaussian, Inc., Wallingford CT, 2019.
 
 ******************************************
 Gaussian 16:  ES64L-G16RevC.01  3-Jul-2019
                 3-Jan-2023 
 ******************************************
 %chk=0003_q000_m01_k00_force_ub3lyp_def2tzvp.chk
 %nprocshared=2
 Will use up to    2 processors via shared memory.
 %mem=4GB
 ----------------------------------------------------------------------
 #p ub3lyp/chkbasis force guess=read geom=check scf=(maxcycle=900,veryt
 ightlineq,xqc) integral=grid=ultrafine symmetry=None density=current p
 op=(cm5,hlygat,mbs,npa) output=wfx
 ----------------------------------------------------------------------
 1/10=7,29=2,30=1,38=1/1,3;
 2/12=2,15=3,40=1/2;
 3/5=7,6=2,11=2,14=-4,25=1,30=1,67=1,71=1,74=-5,75=-5,116=2/1,2,3;
 4/5=1/1;
 5/5=2,7=900,8=3,13=1,17=3,38=6/2,8;
 6/7=2,8=2,9=2,10=2,15=8,20=15,22=-1,27=100,28=1,40=-1,79=1/1,2,7;
 7/29=1,30=1/1,2,3,16;
 1/10=7,30=1/3;
 99/6=200/99;
 Leave Link    1 at Tue Jan  3 09:06:24 2023, MaxMem=   536870912 cpu:               0.2 elap:               0.1
 (Enter /opt/software/gaussian/g16.c01/l101.exe)
 ----------------------------------------------------------------------
 0003_q000_m01_k00_opt_uwb97xd_def2svpd/0003_q000_m01_k00_force_ub3lyp_
 def2tzvp stable-force
 ----------------------------------------------------------------------
 Structure from the checkpoint file:  "0003_q000_m01_k00_force_ub3lyp_def2tzvp.chk"
 Charge =  0 Multiplicity = 1
 Z-Matrix found in chk file.
 C,0,0.9838325225,-0.0325586033,0.0488580178
 S,0,2.6071301422,0.0991997065,0.0187984451
 C,0,3.2273228911,0.736197977,-1.3460048506
 H,0,0.570421034,-0.4575297175,0.9597448627
 H,0,0.3438072589,0.2782232167,-0.7754915598
 H,0,2.615218944,1.0564841772,-2.1877415072
 H,0,4.3104572053,0.8236432464,-1.365823405
 Recover connectivity data from disk.
 ITRead=  0  0  0  0  0  0  0
 MicOpt= -1 -1 -1 -1 -1 -1 -1
 NAtoms=      7 NQM=        7 NQMF=       0 NMMI=      0 NMMIF=      0
                NMic=       0 NMicF=      0.
                    Isotopes and Nuclear Properties:
 (Nuclear quadrupole moments (NQMom) in fm**2, nuclear magnetic moments (NMagM)
  in nuclear magnetons)

  Atom         1           2           3           4           5           6           7
 IAtWgt=          12          32          12           1           1           1           1
 AtmWgt=  12.0000000  31.9720718  12.0000000   1.0078250   1.0078250   1.0078250   1.0078250
 NucSpn=           0           0           0           1           1           1           1
 AtZEff=   3.6000000  13.6000000   3.6000000   1.0000000   1.0000000   1.0000000   1.0000000
 NQMom=    0.0000000   0.0000000   0.0000000   0.0000000   0.0000000   0.0000000   0.0000000
 NMagM=    0.0000000   0.0000000   0.0000000   2.7928460   2.7928460   2.7928460   2.7928460
 AtZNuc=   6.0000000  16.0000000   6.0000000   1.0000000   1.0000000   1.0000000   1.0000000
 Leave Link  101 at Tue Jan  3 09:06:24 2023, MaxMem=   536870912 cpu:               0.4 elap:               0.2
 (Enter /opt/software/gaussian/g16.c01/l103.exe)

 GradGradGradGradGradGradGradGradGradGradGradGradGradGradGradGradGradGrad
 Berny optimization.
 Initialization pass.
 Trust Radius=3.00D-01 FncErr=1.00D-07 GrdErr=1.00D-07 EigMax=2.50D+02 EigMin=1.00D-04
 Number of steps in this run=      2 maximum allowed number of steps=      2.
 GradGradGradGradGradGradGradGradGradGradGradGradGradGradGradGradGradGrad

 Leave Link  103 at Tue Jan  3 09:06:24 2023, MaxMem=   536870912 cpu:               0.1 elap:               0.0
 (Enter /opt/software/gaussian/g16.c01/l202.exe)
                          Input orientation:                          
 ---------------------------------------------------------------------
 Center     Atomic      Atomic             Coordinates (Angstroms)
 Number     Number       Type             X           Y           Z
 ---------------------------------------------------------------------
      1          6           0        0.983833   -0.032559    0.048858
      2         16           0        2.607130    0.099200    0.018798
      3          6           0        3.227323    0.736198   -1.346005
      4          1           0        0.570421   -0.457530    0.959745
      5          1           0        0.343807    0.278223   -0.775492
      6          1           0        2.615219    1.056484   -2.187742
      7          1           0        4.310457    0.823643   -1.365823
 ---------------------------------------------------------------------
                    Distance matrix (angstroms):
                    1          2          3          4          5
     1  C    0.000000
     2  S    1.628913   0.000000
     3  C    2.751341   1.628832   0.000000
     4  H    1.086841   2.311604   3.714915   0.000000
     5  H    1.088931   2.405323   2.974876   1.898350   0.000000
     6  H    2.974864   2.405260   1.088933   4.047234   2.785579
     7  H    3.714948   2.311562   1.086839   4.586670   4.047257
                    6          7
     6  H    0.000000
     7  H    1.898314   0.000000
 Symmetry turned off by external request.
 Stoichiometry    C2H4S
 Rotational constants (GHZ):          32.8865896           8.4327606           6.7117401
 Leave Link  202 at Tue Jan  3 09:06:24 2023, MaxMem=   536870912 cpu:               0.0 elap:               0.0
 (Enter /opt/software/gaussian/g16.c01/l301.exe)
 Basis read from chk: "0003_q000_m01_k00_force_ub3lyp_def2tzvp.chk" (5D, 7F)
 No pseudopotential information found on chk file.
   123 basis functions,   203 primitive gaussians,   138 cartesian basis functions
    16 alpha electrons       16 beta electrons
       nuclear repulsion energy       100.3080120317 Hartrees.
 IExCor=  402 DFT=T Ex+Corr=B3LYP ExCW=0 ScaHFX=  0.200000
 ScaDFX=  0.800000  0.720000  1.000000  0.810000 ScalE2=  1.000000  1.000000
 IRadAn=      5 IRanWt=     -1 IRanGd=            0 ICorTp=0 IEmpDi=  4
 NAtoms=    7 NActive=    7 NUniq=    7 SFac= 1.00D+00 NAtFMM=   60 NAOKFM=F Big=F
 Integral buffers will be    131072 words long.
 Raffenetti 2 integral format.
 Two-electron integral symmetry is turned off.
 No density basis found on file  20724.
 Leave Link  301 at Tue Jan  3 09:06:24 2023, MaxMem=   536870912 cpu:               0.1 elap:               0.1
 (Enter /opt/software/gaussian/g16.c01/l302.exe)
 NPDir=0 NMtPBC=     1 NCelOv=     1 NCel=       1 NClECP=     1 NCelD=      1
         NCelK=      1 NCelE2=     1 NClLst=     1 CellRange=     0.0.
 One-electron integrals computed using PRISM.
 NBasis=   123 RedAO= T EigKep=  1.22D-03  NBF=   123
 NBsUse=   123 1.00D-06 EigRej= -1.00D+00 NBFU=   123
 Precomputing XC quadrature grid using
 IXCGrd= 4 IRadAn=           5 IRanWt=          -1 IRanGd=           0 AccXCQ= 0.00D+00.
 Generated NRdTot=       0 NPtTot=           0 NUsed=           0 NTot=          32
 NSgBfM=   138   137   137   138   138 MxSgAt=     7 MxSgA2=     7.
 Leave Link  302 at Tue Jan  3 09:06:24 2023, MaxMem=   536870912 cpu:               0.4 elap:               0.2
 (Enter /opt/software/gaussian/g16.c01/l303.exe)
 DipDrv:  MaxL=1.
 Leave Link  303 at Tue Jan  3 09:06:24 2023, MaxMem=   536870912 cpu:               0.1 elap:               0.0
 (Enter /opt/software/gaussian/g16.c01/l401.exe)
 Initial guess from the checkpoint file:  "0003_q000_m01_k00_force_ub3lyp_def2tzvp.chk"
 B after Tr=     0.000000    0.000000    0.000000
         Rot=    1.000000    0.000000    0.000000    0.000000 Ang=   0.00 deg.
 Guess basis will be translated and rotated to current coordinates.
 JPrj=2 DoOrth=T DoCkMO=T.
 Initial guess <Sx>= 0.0000 <Sy>= 0.0000 <Sz>= 0.0000 <S**2>=-0.0000 S=-0.0000
 Leave Link  401 at Tue Jan  3 09:06:25 2023, MaxMem=   536870912 cpu:               0.2 elap:               0.1
 (Enter /opt/software/gaussian/g16.c01/l502.exe)
 Keep R1 and R2 ints in memory in canonical form, NReq=60178995.
 FoFCou: FMM=F IPFlag=           0 FMFlag=           0 FMFlg1=           0
         NFxFlg=           0 DoJE=F BraDBF=F KetDBF=F FulRan=T
         wScrn=  0.000000 ICntrl=       600 IOpCl=  0 I1Cent=           0 NGrid=           0
         NMat0=    1 NMatS0=   7626 NMatT0=    0 NMatD0=    1 NMtDS0=    0 NMtDT0=    0
 Symmetry not used in FoFCou.
 Two-electron integral symmetry not used.
 UHF open shell SCF:
 Using DIIS extrapolation, IDIIS=  1040.
 NGot=   536870912 LenX=   478667274 LenY=   478647789
 Requested convergence on RMS density matrix=1.00D-08 within 128 cycles.
 Requested convergence on MAX density matrix=1.00D-06.
 Requested convergence on             energy=1.00D-06.
 No special actions if energy rises.

 Cycle   1  Pass 1  IDiag  1:
 E= -476.790852838984    
 DIIS: error= 8.29D-09 at cycle   1 NSaved=   1.
 NSaved= 1 IEnMin= 1 EnMin= -476.790852838984     IErMin= 1 ErrMin= 8.29D-09
 ErrMax= 8.29D-09  0.00D+00 EMaxC= 1.00D-01 BMatC= 1.64D-14 BMatP= 1.64D-14
 IDIUse=1 WtCom= 1.00D+00 WtEn= 0.00D+00
 Coeff-Com:  0.100D+01
 Coeff:      0.100D+01
 Gap=     0.146 Goal=   None    Shift=    0.000
 Gap=     0.146 Goal=   None    Shift=    0.000
 RMSDP=1.03D-09 MaxDP=4.36D-08              OVMax= 6.78D-08

 SCF Done:  E(UB3LYP) =  -476.790852839     A.U. after    1 cycles
            NFock=  1  Conv=0.10D-08     -V/T= 2.0025
 <Sx>= 0.0000 <Sy>= 0.0000 <Sz>= 0.0000 <S**2>=-0.0000 S=-0.0000
 <L.S>=  0.00000000000    
 KE= 4.756041452552D+02 PE=-1.328912297422D+03 EE= 2.762092872959D+02
 Annihilation of the first spin contaminant:
 S**2 before annihilation    -0.0000,   after    -0.0000
 Leave Link  502 at Tue Jan  3 09:06:27 2023, MaxMem=   536870912 cpu:               5.0 elap:               2.5
 (Enter /opt/software/gaussian/g16.c01/l508.exe)
 QCSCF skips out because SCF is already converged.
 Leave Link  508 at Tue Jan  3 09:06:27 2023, MaxMem=   536870912 cpu:               0.0 elap:               0.0
 (Enter /opt/software/gaussian/g16.c01/l601.exe)
 Copying SCF densities to generalized density rwf, IOpCl= 1 IROHF=0.

 **********************************************************************

            Population analysis using the SCF Density.

 **********************************************************************

 Alpha  occ. eigenvalues --  -88.91810 -10.18572 -10.18571  -7.99066  -5.95156
 Alpha  occ. eigenvalues --   -5.95109  -5.94796  -0.85131  -0.69898  -0.57404
 Alpha  occ. eigenvalues --   -0.47166  -0.46297  -0.40747  -0.36121  -0.33612
 Alpha  occ. eigenvalues --   -0.20331
 Alpha virt. eigenvalues --   -0.05730   0.04843   0.05719   0.07226   0.09340
 Alpha virt. eigenvalues --    0.10624   0.14225   0.16153   0.20941   0.21228
 Alpha virt. eigenvalues --    0.21811   0.25603   0.26165   0.26308   0.29886
 Alpha virt. eigenvalues --    0.30069   0.38580   0.39020   0.40496   0.42473
 Alpha virt. eigenvalues --    0.44835   0.45578   0.50831   0.54563   0.55606
 Alpha virt. eigenvalues --    0.63931   0.66121   0.67493   0.72661   0.75094
 Alpha virt. eigenvalues --    0.89937   0.94074   0.95531   0.97276   0.97633
 Alpha virt. eigenvalues --    1.00627   1.07201   1.08686   1.32160   1.41466
 Alpha virt. eigenvalues --    1.42960   1.43661   1.44346   1.46945   1.53397
 Alpha virt. eigenvalues --    1.53587   1.54838   1.56001   1.57043   1.62195
 Alpha virt. eigenvalues --    1.63001   1.67365   1.67839   1.71785   1.76402
 Alpha virt. eigenvalues --    1.78245   1.78817   1.87371   1.92549   1.97198
 Alpha virt. eigenvalues --    2.02431   2.04379   2.08582   2.13564   2.16627
 Alpha virt. eigenvalues --    2.26880   2.29595   2.32605   2.44955   2.50528
 Alpha virt. eigenvalues --    2.51425   2.57761   2.64061   2.68881   2.72756
 Alpha virt. eigenvalues --    2.76936   2.84204   2.92678   2.97204   3.05397
 Alpha virt. eigenvalues --    3.07388   3.12952   3.17628   3.18932   3.24460
 Alpha virt. eigenvalues --    3.28942   3.30444   3.30673   3.32615   3.47725
 Alpha virt. eigenvalues --    3.47759   3.47784   3.56869   3.57979   3.65144
 Alpha virt. eigenvalues --    3.74654   3.88066   4.07751   4.08108   4.40382
 Alpha virt. eigenvalues --    4.46606   8.80727   9.09158   9.53682  20.56700
 Alpha virt. eigenvalues --   21.88500  21.96450
  Beta  occ. eigenvalues --  -88.91810 -10.18572 -10.18571  -7.99066  -5.95156
  Beta  occ. eigenvalues --   -5.95109  -5.94796  -0.85131  -0.69898  -0.57404
  Beta  occ. eigenvalues --   -0.47166  -0.46297  -0.40747  -0.36121  -0.33612
  Beta  occ. eigenvalues --   -0.20331
  Beta virt. eigenvalues --   -0.05730   0.04843   0.05719   0.07226   0.09340
  Beta virt. eigenvalues --    0.10624   0.14225   0.16153   0.20941   0.21228
  Beta virt. eigenvalues --    0.21811   0.25603   0.26165   0.26308   0.29886
  Beta virt. eigenvalues --    0.30069   0.38580   0.39020   0.40496   0.42473
  Beta virt. eigenvalues --    0.44835   0.45578   0.50831   0.54563   0.55606
  Beta virt. eigenvalues --    0.63931   0.66121   0.67493   0.72661   0.75094
  Beta virt. eigenvalues --    0.89937   0.94074   0.95531   0.97276   0.97633
  Beta virt. eigenvalues --    1.00627   1.07201   1.08686   1.32160   1.41466
  Beta virt. eigenvalues --    1.42960   1.43661   1.44346   1.46945   1.53397
  Beta virt. eigenvalues --    1.53587   1.54838   1.56001   1.57043   1.62195
  Beta virt. eigenvalues --    1.63001   1.67365   1.67839   1.71785   1.76402
  Beta virt. eigenvalues --    1.78245   1.78817   1.87371   1.92549   1.97198
  Beta virt. eigenvalues --    2.02431   2.04379   2.08582   2.13564   2.16627
  Beta virt. eigenvalues --    2.26880   2.29595   2.32605   2.44955   2.50528
  Beta virt. eigenvalues --    2.51425   2.57761   2.64061   2.68881   2.72756
  Beta virt. eigenvalues --    2.76936   2.84204   2.92678   2.97204   3.05397
  Beta virt. eigenvalues --    3.07388   3.12952   3.17628   3.18932   3.24460
  Beta virt. eigenvalues --    3.28942   3.30444   3.30673   3.32615   3.47725
  Beta virt. eigenvalues --    3.47759   3.47784   3.56869   3.57979   3.65144
  Beta virt. eigenvalues --    3.74654   3.88066   4.07751   4.08108   4.40382
  Beta virt. eigenvalues --    4.46606   8.80727   9.09158   9.53682  20.56700
  Beta virt. eigenvalues --   21.88500  21.96450
          Condensed to atoms (all electrons):
               1          2          3          4          5          6
     1  C    5.160483   0.491903  -0.095538   0.404992   0.416615   0.002331
     2  S    0.491903  14.979024   0.491911  -0.038394  -0.049289  -0.049294
     3  C   -0.095538   0.491911   5.160416   0.002833   0.002333   0.416621
     4  H    0.404992  -0.038394   0.002833   0.509888  -0.021668  -0.000113
     5  H    0.416615  -0.049289   0.002333  -0.021668   0.514050   0.003369
     6  H    0.002331  -0.049294   0.416621  -0.000113   0.003369   0.514052
     7  H    0.002834  -0.038395   0.404991  -0.000159  -0.000113  -0.021671
               7
     1  C    0.002834
     2  S   -0.038395
     3  C    0.404991
     4  H   -0.000159
     5  H   -0.000113
     6  H   -0.021671
     7  H    0.509889
          Atomic-Atomic Spin Densities.
               1          2          3          4          5          6
     1  C   -0.000000  -0.000000   0.000000   0.000000   0.000000   0.000000
     2  S   -0.000000   0.000000   0.000000  -0.000000  -0.000000   0.000000
     3  C    0.000000   0.000000  -0.000000  -0.000000  -0.000000  -0.000000
     4  H    0.000000  -0.000000  -0.000000  -0.000000   0.000000   0.000000
     5  H    0.000000  -0.000000  -0.000000   0.000000  -0.000000  -0.000000
     6  H    0.000000   0.000000  -0.000000   0.000000  -0.000000   0.000000
     7  H    0.000000   0.000000  -0.000000   0.000000   0.000000   0.000000
               7
     1  C    0.000000
     2  S    0.000000
     3  C   -0.000000
     4  H    0.000000
     5  H    0.000000
     6  H    0.000000
     7  H   -0.000000
 Mulliken charges and spin densities:
               1          2
     1  C   -0.383619  -0.000000
     2  S    0.212533   0.000000
     3  C   -0.383568   0.000000
     4  H    0.142621  -0.000000
     5  H    0.134704  -0.000000
     6  H    0.134706   0.000000
     7  H    0.142623  -0.000000
 Sum of Mulliken charges =  -0.00000   0.00000
 Mulliken charges and spin densities with hydrogens summed into heavy atoms:
               1          2
     1  C   -0.106294  -0.000000
     2  S    0.212533   0.000000
     3  C   -0.106239   0.000000
 Electronic spatial extent (au):  <R**2>=            871.0737
 Charge=             -0.0000 electrons
 Dipole moment (field-independent basis, Debye):
    X=             -0.1277    Y=              0.0646    Z=             -0.1702  Tot=              0.2224
 Quadrupole moment (field-independent basis, Debye-Ang):
   XX=            -25.2115   YY=            -28.5379   ZZ=            -25.2424
   XY=              0.4214   XZ=             -0.2550   YZ=             -1.7780
 Traceless Quadrupole moment (field-independent basis, Debye-Ang):
   XX=              1.1191   YY=             -2.2073   ZZ=              1.0882
   XY=              0.4214   XZ=             -0.2550   YZ=             -1.7780
 Octapole moment (field-independent basis, Debye-Ang**2):
  XXX=           -172.0349  YYY=            -21.6738  ZZZ=             26.8829  XYY=            -65.9412
  XXY=             -3.8438  XXZ=              7.4281  XZZ=            -61.2916  YZZ=             -4.0895
  YYZ=              9.9405  XYZ=             -2.9393
 Hexadecapole moment (field-independent basis, Debye-Ang**3):
 XXXX=           -946.9199 YYYY=            -69.8345 ZZZZ=           -122.8770 XXXY=            -46.6844
 XXXZ=             79.8827 YYYX=            -71.2771 YYYZ=             26.8577 ZZZX=             93.5715
 ZZZY=             17.2310 XXYY=           -194.8108 XXZZ=           -195.4816 YYZZ=            -30.8022
 XXYZ=             -0.4800 YYXZ=             33.6966 ZZXY=            -13.7035
 N-N= 1.003080120317D+02 E-N=-1.328912299549D+03  KE= 4.756041452552D+02
 There are a total of      154038 grid points.
 ElSum from          density=       31.9999997790
 ElSum from atomic densities=       32.0000007239
 Hirshfeld populations at iteration   1 (CA, CB, DipXYZ):
               1          2          3          4          5
     1  C    3.080749   3.080749  -0.054899   0.005882  -0.022717
     2  S    7.918816   7.918816  -0.001230   0.000633  -0.001641
     3  C    3.080743   3.080743  -0.003346   0.023473  -0.054800
     4  H    0.480711   0.480711  -0.073934  -0.066741   0.141525
     5  H    0.479137   0.479137  -0.100486   0.047135  -0.125600
     6  H    0.479135   0.479135  -0.092181   0.049967  -0.130765
     7  H    0.480708   0.480708   0.171810   0.017403  -0.011305
       Tot  16.000000  16.000000  -0.154266   0.077753  -0.205303

 Dip from Atomic Chgs              0.104045  -0.052338   0.138323
         Total Dipole             -0.050222   0.025415  -0.066980

 Hirshfeld charges, spin densities, dipoles, and CM5 charges using IRadAn=      5:
              Q-H        S-H        Dx         Dy         Dz        Q-CM5   
     1  C   -0.161498  -0.000000  -0.054899   0.005882  -0.022717  -0.240349
     2  S    0.162368   0.000000  -0.001230   0.000633  -0.001641   0.105762
     3  C   -0.161486   0.000000  -0.003346   0.023473  -0.054800  -0.240334
     4  H    0.038578  -0.000000  -0.073934  -0.066741   0.141525   0.092699
     5  H    0.041725  -0.000000  -0.100486   0.047135  -0.125600   0.094756
     6  H    0.041730   0.000000  -0.092181   0.049967  -0.130765   0.094761
     7  H    0.038584   0.000000   0.171810   0.017403  -0.011305   0.092706
       Tot   0.000000   0.000000  -0.154266   0.077753  -0.205303   0.000000
 Hirshfeld charges and spin densities with hydrogens summed into heavy atoms:
              Q-H        S-H       Q-CM5   
     1  C   -0.081195  -0.000000  -0.052895
     2  S    0.162368   0.000000   0.105762
     3  C   -0.081172   0.000000  -0.052867
 
 EQQ=-0.801676787034E-29 EQD=-0.403689321232E-15 EDD= 0.166915910415E-02
 EQQ+QD+DD= 0.166915910415E-02
 
 GSVD:  LWork=       -1008 too small for GESVD, short by        4340 words or        4340 for optimal perf.
          MBS Condensed to atoms (all electrons):
               1          2          3          4          5          6
     1  C    5.110939   0.474313  -0.018316   0.382386   0.376558  -0.002021
     2  S    0.474313  14.996525   0.474344  -0.023216  -0.017197  -0.017198
     3  C   -0.018316   0.474344   5.110870   0.000738  -0.002020   0.376556
     4  H    0.382386  -0.023216   0.000738   0.525927  -0.018845  -0.000001
     5  H    0.376558  -0.017197  -0.002020  -0.018845   0.536440   0.001343
     6  H   -0.002021  -0.017198   0.376556  -0.000001   0.001343   0.536444
     7  H    0.000738  -0.023217   0.382386  -0.000022  -0.000001  -0.018846
               7
     1  C    0.000738
     2  S   -0.023217
     3  C    0.382386
     4  H   -0.000022
     5  H   -0.000001
     6  H   -0.018846
     7  H    0.525928
          MBS Atomic-Atomic Spin Densities.
               1          2          3          4          5          6
     1  C   -0.000000   0.000000  -0.000000  -0.000000  -0.000000  -0.000000
     2  S    0.000000  -0.000000  -0.000000   0.000000   0.000000  -0.000000
     3  C   -0.000000  -0.000000   0.000000  -0.000000  -0.000000  -0.000000
     4  H   -0.000000   0.000000  -0.000000  -0.000000   0.000000  -0.000000
     5  H   -0.000000   0.000000  -0.000000   0.000000  -0.000000  -0.000000
     6  H   -0.000000  -0.000000  -0.000000  -0.000000  -0.000000  -0.000000
     7  H   -0.000000   0.000000  -0.000000   0.000000  -0.000000  -0.000000
               7
     1  C   -0.000000
[...]
    12    C    1  pz     Val( 2p)     0.62841      -0.12291
    13    C    1  pz     Ryd( 3p)     0.00129       0.71686
    14    C    1  pz     Ryd( 4p)     0.00004       1.77169
    15    C    1  dxy    Ryd( 3d)     0.00123       1.19042
    16    C    1  dxy    Ryd( 4d)     0.00003       2.82989
    17    C    1  dxz    Ryd( 3d)     0.00056       1.37961
    18    C    1  dxz    Ryd( 4d)     0.00008       2.99136
    19    C    1  dyz    Ryd( 3d)     0.00065       1.11377
    20    C    1  dyz    Ryd( 4d)     0.00002       2.83712
    21    C    1  dx2y2  Ryd( 3d)     0.00168       1.44254
    22    C    1  dx2y2  Ryd( 4d)     0.00002       2.95853
    23    C    1  dz2    Ryd( 3d)     0.00129       1.22898
    24    C    1  dz2    Ryd( 4d)     0.00001       2.86525
    25    C    1  f(0)   Ryd( 4f)     0.00003       3.14331
    26    C    1  f(C1)  Ryd( 4f)     0.00008       3.63257
    27    C    1  f(S1)  Ryd( 4f)     0.00010       3.20554
    28    C    1  f(C2)  Ryd( 4f)     0.00011       3.21930
    29    C    1  f(S2)  Ryd( 4f)     0.00008       3.23623
    30    C    1  f(C3)  Ryd( 4f)     0.00009       3.37259
    31    C    1  f(S3)  Ryd( 4f)     0.00011       3.21743
 
    32    S    2  S      Cor( 1S)     1.00000     -87.63224
    33    S    2  S      Cor( 2S)     0.99955      -9.00133
    34    S    2  S      Val( 3S)     0.76044      -0.69290
    35    S    2  S      Ryd( 4S)     0.00630       1.01122
    36    S    2  S      Ryd( 5S)     0.00000      19.18894
    37    S    2  px     Cor( 2p)     0.99986      -5.93813
    38    S    2  px     Val( 3p)     0.54292      -0.17930
    39    S    2  px     Ryd( 4p)     0.00261       0.75798
    40    S    2  px     Ryd( 5p)     0.00004       2.00773
    41    S    2  px     Ryd( 6p)     0.00000       8.45261
    42    S    2  py     Cor( 2p)     0.99988      -5.94281
    43    S    2  py     Val( 3p)     0.62869      -0.23920
    44    S    2  py     Ryd( 4p)     0.00060       0.55976
    45    S    2  py     Ryd( 5p)     0.00001       1.70573
    46    S    2  py     Ryd( 6p)     0.00000       8.71463
    47    S    2  pz     Cor( 2p)     0.99989      -5.93916
    48    S    2  pz     Val( 3p)     0.64395      -0.21576
    49    S    2  pz     Ryd( 4p)     0.00203       0.66796
    50    S    2  pz     Ryd( 5p)     0.00003       1.90930
    51    S    2  pz     Ryd( 6p)     0.00000       8.58998
    52    S    2  dxy    Ryd( 3d)     0.00946       0.64572
    53    S    2  dxy    Ryd( 4d)     0.00002       1.54792
    54    S    2  dxz    Ryd( 3d)     0.00411       0.79652
    55    S    2  dxz    Ryd( 4d)     0.00006       1.79733
    56    S    2  dyz    Ryd( 3d)     0.00488       0.68185
    57    S    2  dyz    Ryd( 4d)     0.00003       1.65421
    58    S    2  dx2y2  Ryd( 3d)     0.00617       0.83072
    59    S    2  dx2y2  Ryd( 4d)     0.00006       1.77431
    60    S    2  dz2    Ryd( 3d)     0.00611       0.79575
    61    S    2  dz2    Ryd( 4d)     0.00008       1.83987
    62    S    2  f(0)   Ryd( 4f)     0.00008       2.23211
    63    S    2  f(C1)  Ryd( 4f)     0.00018       2.24916
    64    S    2  f(S1)  Ryd( 4f)     0.00014       2.09331
    65    S    2  f(C2)  Ryd( 4f)     0.00006       2.24832
    66    S    2  f(S2)  Ryd( 4f)     0.00008       2.08138
    67    S    2  f(C3)  Ryd( 4f)     0.00020       2.17434
    68    S    2  f(S3)  Ryd( 4f)     0.00009       2.19874
 
    69    C    3  S      Cor( 1S)     0.99977     -10.07511
    70    C    3  S      Val( 2S)     0.58433      -0.37085
    71    C    3  S      Ryd( 3S)     0.00135       0.66546
    72    C    3  S      Ryd( 4S)     0.00012       1.94508
    73    C    3  S      Ryd( 5S)     0.00000      20.92333
    74    C    3  px     Val( 2p)     0.60543      -0.12459
    75    C    3  px     Ryd( 3p)     0.00122       0.74401
    76    C    3  px     Ryd( 4p)     0.00003       1.95348
    77    C    3  py     Val( 2p)     0.64566      -0.16734
    78    C    3  py     Ryd( 3p)     0.00378       0.36719
    79    C    3  py     Ryd( 4p)     0.00004       1.52405
    80    C    3  pz     Val( 2p)     0.56432      -0.15599
    81    C    3  pz     Ryd( 3p)     0.00227       0.53763
    82    C    3  pz     Ryd( 4p)     0.00018       1.94520
    83    C    3  dxy    Ryd( 3d)     0.00030       1.05348
    84    C    3  dxy    Ryd( 4d)     0.00002       2.73533
    85    C    3  dxz    Ryd( 3d)     0.00129       1.38506
    86    C    3  dxz    Ryd( 4d)     0.00004       2.95840
    87    C    3  dyz    Ryd( 3d)     0.00141       1.29542
    88    C    3  dyz    Ryd( 4d)     0.00003       2.89380
    89    C    3  dx2y2  Ryd( 3d)     0.00102       1.26396
    90    C    3  dx2y2  Ryd( 4d)     0.00002       2.96948
    91    C    3  dz2    Ryd( 3d)     0.00140       1.35743
    92    C    3  dz2    Ryd( 4d)     0.00004       2.92507
    93    C    3  f(0)   Ryd( 4f)     0.00006       3.25187
    94    C    3  f(C1)  Ryd( 4f)     0.00009       3.65348
    95    C    3  f(S1)  Ryd( 4f)     0.00011       3.32409
    96    C    3  f(C2)  Ryd( 4f)     0.00010       3.25014
    97    C    3  f(S2)  Ryd( 4f)     0.00006       3.26574
    98    C    3  f(C3)  Ryd( 4f)     0.00011       3.25722
    99    C    3  f(S3)  Ryd( 4f)     0.00006       3.02473
 
   100    H    4  S      Val( 1S)     0.38429       0.01087
   101    H    4  S      Ryd( 3S)     0.00016       1.55291
   102    H    4  S      Ryd( 2S)     0.00006       0.78740
   103    H    4  px     Ryd( 2p)     0.00005       2.42200
   104    H    4  py     Ryd( 2p)     0.00010       2.18135
   105    H    4  pz     Ryd( 2p)     0.00012       2.67184
 
   106    H    5  S      Val( 1S)     0.39030       0.00887
   107    H    5  S      Ryd( 2S)     0.00053       1.03684
   108    H    5  S      Ryd( 3S)     0.00009       1.32364
   109    H    5  px     Ryd( 2p)     0.00009       2.55288
   110    H    5  py     Ryd( 2p)     0.00011       2.13359
   111    H    5  pz     Ryd( 2p)     0.00013       2.58620
 
   112    H    6  S      Val( 1S)     0.39030       0.00886
   113    H    6  S      Ryd( 2S)     0.00053       1.03682
   114    H    6  S      Ryd( 3S)     0.00009       1.32369
   115    H    6  px     Ryd( 2p)     0.00010       2.45044
   116    H    6  py     Ryd( 2p)     0.00011       2.15123
   117    H    6  pz     Ryd( 2p)     0.00012       2.67102
 
   118    H    7  S      Val( 1S)     0.38428       0.01087
   119    H    7  S      Ryd( 3S)     0.00016       1.55300
   120    H    7  S      Ryd( 2S)     0.00006       0.78733
   121    H    7  px     Ryd( 2p)     0.00014       2.91653
   122    H    7  py     Ryd( 2p)     0.00008       2.09603
   123    H    7  pz     Ryd( 2p)     0.00005       2.26265

 WARNING:  Population inversion found on atom  H    4
           Population inversion found on atom  H    7


 Summary of Natural Population Analysis:                  
                                                          
                                       Natural Population 
                Natural  -----------------------------------------------
    Atom  No    Charge         Core      Valence    Rydberg      Total
 -----------------------------------------------------------------------
      C    1   -0.41465      0.99977     2.39973    0.01515     3.41465
      S    2    0.38137      4.99919     2.57600    0.04344     7.61863
      C    3   -0.41466      0.99977     2.39973    0.01515     3.41466
      H    4    0.11521      0.00000     0.38429    0.00050     0.38479
      H    5    0.10875      0.00000     0.39030    0.00095     0.39125
      H    6    0.10876      0.00000     0.39030    0.00095     0.39124
      H    7    0.11521      0.00000     0.38428    0.00050     0.38479
 =======================================================================
   * Total *    0.00000      6.99874     8.92463    0.07663    16.00000

                                 Natural Population      
 --------------------------------------------------------
   Core                       6.99874 ( 99.9820% of   7)
   Valence                    8.92463 ( 99.1625% of   9)
   Natural Minimal Basis     15.92337 ( 99.5210% of  16)
   Natural Rydberg Basis      0.07663 (  0.4790% of  16)
 --------------------------------------------------------

    Atom  No          Natural Electron Configuration
 ----------------------------------------------------------------------------
      C    1      [core]2S( 0.58)2p( 1.82)3p( 0.01)3d( 0.01)
      S    2      [core]3S( 0.76)3p( 1.82)4S( 0.01)3d( 0.03)4p( 0.01)
      C    3      [core]2S( 0.58)2p( 1.82)3p( 0.01)3d( 0.01)
      H    4            1S( 0.38)
      H    5            1S( 0.39)
      H    6            1S( 0.39)
      H    7            1S( 0.38)


 NBO analysis skipped by request.
 Leave Link  607 at Tue Jan  3 09:06:30 2023, MaxMem=   536870912 cpu:               3.6 elap:               1.8
 (Enter /opt/software/gaussian/g16.c01/l701.exe)
 ... and contract with generalized density number  0.
 Compute integral first derivatives.
 Leave Link  701 at Tue Jan  3 09:06:31 2023, MaxMem=   536870912 cpu:               0.3 elap:               0.2
 (Enter /opt/software/gaussian/g16.c01/l702.exe)
 L702 exits ... SP integral derivatives will be done elsewhere.
 Leave Link  702 at Tue Jan  3 09:06:31 2023, MaxMem=   536870912 cpu:               0.1 elap:               0.0
 (Enter /opt/software/gaussian/g16.c01/l703.exe)
 Integral derivatives from FoFJK, PRISM(SPDF).
 Compute integral first derivatives, UseDBF=F ICtDFT=           0.
 Calling FoFJK, ICntrl=      2127 FMM=F ISym2X=0 I1Cent= 0 IOpClX= 1 NMat=1 NMatS=1 NMatT=0.
 FoFJK:  IHMeth= 1 ICntrl=    2127 DoSepK=F KAlg= 0 I1Cent=           0 FoldK=F
 IRaf=         0 NMat=       1 IRICut=       1 DoRegI=T DoRafI=F ISym2E= 0 IDoP0=0 IntGTp=1.
 FoFCou: FMM=F IPFlag=           0 FMFlag=      100000 FMFlg1=         800
         NFxFlg=           0 DoJE=F BraDBF=F KetDBF=F FulRan=T
         wScrn=  0.000000 ICntrl=      2127 IOpCl=  1 I1Cent=           0 NGrid=           0
         NMat0=    1 NMatS0=      1 NMatT0=    0 NMatD0=    1 NMtDS0=    0 NMtDT0=    0
 Symmetry not used in FoFCou.
 Leave Link  703 at Tue Jan  3 09:06:36 2023, MaxMem=   536870912 cpu:              10.3 elap:               5.2
 (Enter /opt/software/gaussian/g16.c01/l716.exe)
 Dipole        =-5.02219427D-02 2.54216007D-02-6.69763283D-02
 -------------------------------------------------------------------
 Center     Atomic                   Forces (Hartrees/Bohr)
 Number     Number              X              Y              Z
 -------------------------------------------------------------------
      1        6          -0.002843241   -0.000414657    0.000505715
      2       16          -0.001749356    0.000839966   -0.002258607
      3        6           0.001563945    0.001100873   -0.002277554
      4        1           0.001893934    0.002582004   -0.005634785
      5        1           0.003116915   -0.002150653    0.005471993
      6        1           0.004475506   -0.001681548    0.004628976
      7        1          -0.006457704   -0.000275986   -0.000435736
 -------------------------------------------------------------------
 Cartesian Forces:  Max     0.006457704 RMS     0.003076522
 Z-matrix is all fixed cartesians, so copy forces.
 Force constants in Cartesian coordinates: 
                1             2             3             4             5 
      1  0.799457D+00
      2  0.386953D-01  0.202300D+00
      3  0.262318D-01 -0.197489D+00  0.573805D+00
      4 -0.458605D+00 -0.232735D-01 -0.165583D-01  0.577555D+00
      5 -0.320482D-01 -0.525335D-01  0.183029D-01  0.867656D-01  0.122175D+00
      6  0.365769D-02  0.197847D-01 -0.872720D-01 -0.110154D+00 -0.165608D+00
      7  0.122699D-02 -0.100692D-01  0.221250D-01 -0.139616D+00 -0.489763D-01
      8 -0.597775D-03  0.748286D-02  0.517705D-03 -0.577409D-01 -0.107626D+00
      9  0.278568D-03 -0.108316D-02  0.102956D-01  0.116790D+00  0.142526D+00
     10 -0.144909D+00 -0.441803D-01  0.836168D-01  0.115252D-02 -0.932375D-02
     11 -0.404522D-01 -0.846163D-01  0.105218D+00 -0.241587D-03  0.264194D-02
     12  0.750267D-01  0.104603D+00 -0.264763D+00  0.410365D-03 -0.299905D-02
     13 -0.197168D+00  0.388020D-01 -0.115426D+00 -0.916549D-03  0.691836D-02
     14  0.343779D-01 -0.722913D-01  0.735979D-01 -0.146773D-02  0.180903D-01
     15 -0.105206D+00  0.743316D-01 -0.232001D+00  0.158269D-03  0.144866D-02
     16 -0.246017D-04  0.336366D-03  0.145813D-03  0.192862D-01 -0.309494D-02
     17  0.337132D-03 -0.460942D-02 -0.199817D-02  0.528610D-02  0.146053D-01
     18  0.146171D-03 -0.199852D-02 -0.866351D-03 -0.120134D-01  0.780803D-02
     19  0.227250D-04 -0.310706D-03 -0.134690D-03  0.114404D-02 -0.240739D-03
     20 -0.312161D-03  0.426801D-02  0.185017D-02 -0.932793D-02  0.264671D-02
     21 -0.135369D-03  0.185083D-02  0.802328D-03  0.213670D-01 -0.147893D-02
                6             7             8             9            10 
      6  0.407473D+00
      7  0.965700D-01  0.667382D+00
      8  0.141042D+00  0.492959D-01  0.225135D+00
      9 -0.351317D+00 -0.206782D-01 -0.248346D+00  0.683203D+00
     10  0.213707D-01  0.228255D-04 -0.312081D-03 -0.135286D-03  0.115530D+00
     11 -0.146606D-02 -0.312069D-03  0.426675D-02  0.184962D-02  0.445604D-01
     12  0.901525D-02 -0.135235D-03  0.184900D-02  0.801534D-03 -0.864441D-01
     13 -0.191712D-01 -0.246447D-04  0.336954D-03  0.146068D-03  0.282041D-01
     14  0.324183D-04  0.336979D-03 -0.460733D-02 -0.199726D-02  0.925576D-02
     15  0.148968D-01  0.146176D-03 -0.199858D-02 -0.866379D-03 -0.184082D-01
     16  0.731953D-02 -0.179623D+00  0.329496D-01 -0.989913D-01  0.000000D+00
     17  0.921888D-02  0.373763D-01 -0.753070D-01  0.810589D-01  0.000000D+00
     18 -0.181486D-02 -0.109211D+00  0.803191D-01 -0.246533D+00  0.000000D+00
     19  0.407512D-03 -0.349368D+00 -0.239317D-01  0.258983D-02  0.000000D+00
     20 -0.300348D-02 -0.276515D-01 -0.493443D-01  0.259912D-01  0.000000D+00
     21  0.901933D-02  0.111835D-01  0.266169D-01 -0.955832D-01  0.000000D+00
               11            12            13            14            15 
     11  0.698063D-01
     12 -0.111340D+00  0.260624D+00
     13 -0.355446D-02  0.111423D-01  0.169905D+00
     14  0.790132D-02  0.788712D-02 -0.425029D-01  0.509070D-01
     15  0.573850D-02 -0.567740D-02  0.123309D+00 -0.795202D-01  0.223648D+00
     16  0.000000D+00  0.000000D+00  0.000000D+00  0.000000D+00  0.000000D+00
     17  0.000000D+00  0.000000D+00  0.000000D+00  0.000000D+00  0.000000D+00
     18  0.000000D+00  0.000000D+00  0.000000D+00  0.000000D+00  0.000000D+00
     19  0.000000D+00  0.000000D+00  0.000000D+00  0.000000D+00  0.000000D+00
     20  0.000000D+00  0.000000D+00  0.000000D+00  0.000000D+00  0.000000D+00
     21  0.000000D+00  0.000000D+00  0.000000D+00  0.000000D+00  0.000000D+00
               16            17            18            19            20 
     16  0.161831D+00
     17 -0.418445D-01  0.522901D-01
     18  0.120449D+00 -0.826089D-01  0.230340D+00
     19 -0.147004D-02 -0.115499D-02  0.629518D-03  0.349671D+00
     20  0.116534D-01  0.130211D-01 -0.351969D-02  0.256381D-01  0.294086D-01
     21 -0.289230D-01 -0.567069D-02  0.188748D-01 -0.349217D-02 -0.213182D-01
               21 
     21  0.668867D-01
 Leave Link  716 at Tue Jan  3 09:06:36 2023, MaxMem=   536870912 cpu:               0.1 elap:               0.0
 (Enter /opt/software/gaussian/g16.c01/l103.exe)

 GradGradGradGradGradGradGradGradGradGradGradGradGradGradGradGradGradGrad
 Berny optimization.
 Search for a local minimum.
 Step number   1 out of a maximum of    2
 All quantities printed in internal units (Hartrees-Bohrs-Radians)
 Second derivative matrix not updated -- first step.
 ITU=  0
     Eigenvalues ---    0.00860   0.01482   0.01804   0.07108   0.07556
     Eigenvalues ---    0.11270   0.14823   0.15345   0.17618   0.32617
     Eigenvalues ---    0.36576   0.82416   0.92900   1.11635   1.31988
 Angle between quadratic step and forces=  39.02 degrees.
 Linear search not attempted -- first point.
 B after Tr=    -0.002280    0.001164   -0.003008
         Rot=    1.000000   -0.000021   -0.000008    0.000015 Ang=  -0.00 deg.
 Variable       Old X    -DE/DX   Delta X   Delta X   Delta X     New X
                                 (Linear)    (Quad)   (Total)
    X1        1.85917  -0.00284   0.00000  -0.00105  -0.00333   1.85584
    Y1       -0.06153  -0.00041   0.00000  -0.00116  -0.00006  -0.06158
    Z1        0.09233   0.00051   0.00000   0.00265  -0.00039   0.09194
    X2        4.92676  -0.00175   0.00000  -0.00630  -0.00857   4.91819
    Y2        0.18746   0.00084   0.00000   0.00302   0.00404   0.19150
    Z2        0.03552  -0.00226   0.00000  -0.00838  -0.01146   0.02407
    X3        6.09876   0.00156   0.00000   0.00308   0.00080   6.09956
    Y3        1.39121   0.00110   0.00000   0.00023   0.00132   1.39253
    Z3       -2.54358  -0.00228   0.00000   0.00002  -0.00303  -2.54661
    X4        1.07794   0.00189   0.00000   0.01108   0.00880   1.08674
    Y4       -0.86461   0.00258   0.00000   0.00567   0.00673  -0.85788
    Z4        1.81365  -0.00563   0.00000  -0.01054  -0.01360   1.80006
    X5        0.64970   0.00312   0.00000  -0.00546  -0.00775   0.64195
    Y5        0.52577  -0.00215   0.00000  -0.01216  -0.01096   0.51481
    Z5       -1.46547   0.00547   0.00000   0.02684   0.02384  -1.44162
    X6        4.94205   0.00448   0.00000   0.02955   0.02727   4.96932
    Y6        1.99647  -0.00168   0.00000  -0.00007   0.00112   1.99758
    Z6       -4.13423   0.00463   0.00000   0.00505   0.00204  -4.13219
    X7        8.14558  -0.00646   0.00000  -0.01494  -0.01721   8.12837
    Y7        1.55646  -0.00028   0.00000  -0.00322  -0.00219   1.55427
    Z7       -2.58103  -0.00044   0.00000   0.00565   0.00259  -2.57845
         Item               Value     Threshold  Converged?
 Maximum Force            0.006458     0.000450     NO 
 RMS     Force            0.003077     0.000300     NO 
 Maximum Displacement     0.027270     0.001800     NO 
 RMS     Displacement     0.010594     0.001200     NO 
 Predicted change in Energy=-2.719843D-04
 GradGradGradGradGradGradGradGradGradGradGradGradGradGradGradGradGradGrad

 Leave Link  103 at Tue Jan  3 09:06:36 2023, MaxMem=   536870912 cpu:               0.0 elap:               0.0
 (Enter /opt/software/gaussian/g16.c01/l9999.exe)
 Unable to Open any file for archive entry.
 1\1\GINC-GRA779\Force\UB3LYP\Gen\C2H4S1\BHAVUK\03-Jan-2023\0\\#p ub3ly
 p/chkbasis force guess=read geom=check scf=(maxcycle=900,verytightline
 q,xqc) integral=grid=ultrafine symmetry=None density=current pop=(cm5,
 hlygat,mbs,npa) output=wfx\\0003_q000_m01_k00_opt_uwb97xd_def2svpd/000
 3_q000_m01_k00_force_ub3lyp_def2tzvp stable-force\\0,1\C,0.9838325225,
 -0.0325586033,0.0488580178\S,2.6071301422,0.0991997065,0.0187984451\C,
 3.2273228911,0.736197977,-1.3460048506\H,0.570421034,-0.4575297175,0.9
 597448627\H,0.3438072589,0.2782232167,-0.7754915598\H,2.615218944,1.05
 64841772,-2.1877415072\H,4.3104572053,0.8236432464,-1.365823405\\Versi
 on=ES64L-G16RevC.01\HF=-476.7908528\S2=0.\S2-1=0.\S2A=0.\RMSD=1.034e-0
 9\RMSF=3.077e-03\Dipole=-0.0502219,0.0254216,-0.0669763\Quadrupole=0.8
 320334,-1.641082,0.8090486,0.3132841,-0.189606,-1.3219084\PG=Unknown\\
 @
 The archive entry for this job was punched.

 Writing a WFNX file to "0003_q000_m01_k00_force_ub3lyp_def2tzvp.wfx"


 I FIND THAT THE THREE TRULY GREAT TIMES FOR THINKING THOUGHTS
 ARE WHEN I AM STANDING IN THE SHOWER, SITTING ON THE JOHN, OR WALKING.

                                    -- COLIN FLETCHER
 Job cpu time:       0 days  0 hours  0 minutes 23.3 seconds.
 Elapsed time:       0 days  0 hours  0 minutes 11.4 seconds.
 File lengths (MBytes):  RWF=     16 Int=      0 D2E=      0 Chk=      3 Scr=      1
 Normal termination of Gaussian 16 at Tue Jan  3 09:06:36 2023.
