 Entering Gaussian System, Link 0=g16
 Input=0003_q000_m01_k00_force_uwb97xd_def2tzvpd.com
 Output=0003_q000_m01_k00_force_uwb97xd_def2tzvpd.log
 Initial command:
 /opt/software/gaussian/g16.c01/l1.exe "/localscratch/bhavuk.2151390.0/Gau-21767.inp" -scrdir="/localscratch/bhavuk.2151390.0/"
 Entering Link 1 = /opt/software/gaussian/g16.c01/l1.exe PID=     21777.
  
 Copyright (c) 1988-2019, Gaussian, Inc.  All Rights Reserved.
  
 This is part of the Gaussian(R) 16 program.  It is based on
 the Gaussian(R) 09 system (copyright 2009, Gaussian, Inc.),
 the Gaussian(R) 03 system (copyright 2003, Gaussian, Inc.),
 the Gaussian(R) 98 system (copyright 1998, Gaussian, Inc.),
 the Gaussian(R) 94 system (copyright 1995, Gaussian, Inc.),
 the Gaussian 92(TM) system (copyright 1992, Gaussian, Inc.),
 the Gaussian 90(TM) system (copyright 1990, Gaussian, Inc.),
 the Gaussian 88(TM) system (copyright 1988, Gaussian, Inc.),
 the Gaussian 86(TM) system (copyright 1986, Carnegie Mellon
 University), and the Gaussian 82(TM) system (copyright 1983,
 Carnegie Mellon University). Gaussian is a federally registered
 trademark of Gaussian, Inc.
  
 This software contains proprietary and confidential information,
 including trade secrets, belonging to Gaussian, Inc.
  
 This software is provided under written license and may be
 used, copied, transmitted, or stored only in accord with that
 written license.
  
 The following legend is applicable only to US Government
 contracts under FAR:
  
                    RESTRICTED RIGHTS LEGEND
  
 Use, reproduction and disclosure by the US Government is
 subject to restrictions as set forth in subparagraphs (a)
 and (c) of the Commercial Computer Software - Restricted
 Rights clause in FAR 52.227-19.
  
 Gaussian, Inc.
 340 Quinnipiac St., Bldg. 40, Wallingford CT 06492
  
  
 ---------------------------------------------------------------
 Warning -- This program may not be used in any manner that
 competes with the business of Gaussian, Inc. or will provide
 assistance to any competitor of Gaussian, Inc.  The licensee
 of this program is prohibited from giving any competitor of
 Gaussian, Inc. access to this program.  By using this program,
 the user acknowledges that Gaussian, Inc. is engaged in the
 business of creating and licensing software in the field of
 computational chemistry and represents and warrants to the
 licensee that it is not a competitor of Gaussian, Inc. and that
 it will not use this program in any manner prohibited above.
 ---------------------------------------------------------------
  

 Cite this work as:
 Gaussian 16, Revision C.01,
 M. J. Frisch, G. W. Trucks, H. B. Schlegel, G. E. Scuseria, 
 M. A. Robb, J. R. Cheeseman, G. Scalmani, V. Barone, 
 G. A. Petersson, H. Nakatsuji, X. Li, M. Caricato, A. V. Marenich, 
 J. Bloino, B. G. Janesko, R. Gomperts, B. Mennucci, H. P. Hratchian, 
 J. V. Ortiz, A. F. Izmaylov, J. L. Sonnenberg, D. Williams-Young, 
 F. Ding, F. Lipparini, F. Egidi, J. Goings, B. Peng, A. Petrone, 
 T. Henderson, D. Ranasinghe, V. G. Zakrzewski, J. Gao, N. Rega, 
 G. Zheng, W. Liang, M. Hada, M. Ehara, K. Toyota, R. Fukuda, 
 J. Hasegawa, M. Ishida, T. Nakajima, Y. Honda, O. Kitao, H. Nakai, 
 T. Vreven, K. Throssell, J. A. Montgomery, Jr., J. E. Peralta, 
 F. Ogliaro, M. J. Bearpark, J. J. Heyd, E. N. Brothers, K. N. Kudin, 
 V. N. Staroverov, T. A. Keith, R. Kobayashi, J. Normand, 
 K. Raghavachari, A. P. Rendell, J. C. Burant, S. S. Iyengar, 
 J. Tomasi, M. Cossi, J. M. Millam, M. Klene, C. Adamo, R. Cammi, 
 J. W. Ochterski, R. L. Martin, K. Morokuma, O. Farkas, 
 J. B. Foresman, and D. J. Fox, Gaussian, Inc., Wallingford CT, 2019.
 
 ******************************************
 Gaussian 16:  ES64L-G16RevC.01  3-Jul-2019
                 3-Jan-2023 
 ******************************************
 %chk=0003_q000_m01_k00_force_uwb97xd_def2tzvpd.chk
 %nprocshared=2
 Will use up to    2 processors via shared memory.
 %mem=4GB
 ----------------------------------------------------------------------
 #p uwb97xd/gen stable=opt scf=(maxcycle=900,verytightlineq,xqc) integr
 al=grid=ultrafine symmetry=None density=current iop(99/18=-1) output=w
 fn
 ----------------------------------------------------------------------
 1/38=1,172=1/1;
 2/12=2,15=3,17=6,18=5,40=1/2;
 3/5=7,11=2,25=1,30=1,74=-58,75=-5,116=2/1,2,3;
 4//1;
 5/5=2,7=900,8=3,13=1,17=3,38=5/2,8;
 6/7=2,8=2,9=2,10=2,22=-1,28=1/1;
 8/6=1,10=90,11=11/1;
 9/8=-3,42=1,46=1/14;
 5/5=2,7=900,8=3,17=43,38=5/8(-2);
 6/7=2,8=2,9=2,10=2,22=-1,28=1/1;
 99/5=1,6=100,9=1,18=-1/99;
 Leave Link    1 at Tue Jan  3 09:05:58 2023, MaxMem=   536870912 cpu:               0.1 elap:               0.0
 (Enter /opt/software/gaussian/g16.c01/l101.exe)
 ----------------------------------------------------------------------
 0003_q000_m01_k00_opt_uwb97xd_def2svpd/0003_q000_m01_k00_force_uwb97xd
 _def2tzvpd stable-force
 ----------------------------------------------------------------------
 Symbolic Z-matrix:
 Charge =  0 Multiplicity = 1
 C                     0.98383  -0.03256   0.04886 
 S                     2.60713   0.0992    0.0188 
 C                     3.22732   0.7362   -1.346 
 H                     0.57042  -0.45753   0.95974 
 H                     0.34381   0.27822  -0.77549 
 H                     2.61522   1.05648  -2.18774 
 H                     4.31046   0.82364  -1.36582 
 
 ITRead=  0  0  0  0  0  0  0
 MicOpt= -1 -1 -1 -1 -1 -1 -1
 NAtoms=      7 NQM=        7 NQMF=       0 NMMI=      0 NMMIF=      0
                NMic=       0 NMicF=      0.
                    Isotopes and Nuclear Properties:
 (Nuclear quadrupole moments (NQMom) in fm**2, nuclear magnetic moments (NMagM)
  in nuclear magnetons)

  Atom         1           2           3           4           5           6           7
 IAtWgt=          12          32          12           1           1           1           1
 AtmWgt=  12.0000000  31.9720718  12.0000000   1.0078250   1.0078250   1.0078250   1.0078250
 NucSpn=           0           0           0           1           1           1           1
 AtZEff=  -0.0000000  -0.0000000  -0.0000000  -0.0000000  -0.0000000  -0.0000000  -0.0000000
 NQMom=    0.0000000   0.0000000   0.0000000   0.0000000   0.0000000   0.0000000   0.0000000
 NMagM=    0.0000000   0.0000000   0.0000000   2.7928460   2.7928460   2.7928460   2.7928460
 AtZNuc=   6.0000000  16.0000000   6.0000000   1.0000000   1.0000000   1.0000000   1.0000000
 Leave Link  101 at Tue Jan  3 09:05:59 2023, MaxMem=   536870912 cpu:               0.4 elap:               0.2
 (Enter /opt/software/gaussian/g16.c01/l202.exe)
                          Input orientation:                          
 ---------------------------------------------------------------------
 Center     Atomic      Atomic             Coordinates (Angstroms)
 Number     Number       Type             X           Y           Z
 ---------------------------------------------------------------------
      1          6           0        0.983833   -0.032559    0.048858
      2         16           0        2.607130    0.099200    0.018798
      3          6           0        3.227323    0.736198   -1.346005
      4          1           0        0.570421   -0.457530    0.959745
      5          1           0        0.343807    0.278223   -0.775492
      6          1           0        2.615219    1.056484   -2.187742
      7          1           0        4.310457    0.823643   -1.365823
 ---------------------------------------------------------------------
                    Distance matrix (angstroms):
                    1          2          3          4          5
     1  C    0.000000
     2  S    1.628913   0.000000
     3  C    2.751341   1.628832   0.000000
     4  H    1.086841   2.311604   3.714915   0.000000
     5  H    1.088931   2.405323   2.974876   1.898350   0.000000
     6  H    2.974864   2.405260   1.088933   4.047234   2.785579
     7  H    3.714948   2.311562   1.086839   4.586670   4.047257
                    6          7
     6  H    0.000000
     7  H    1.898314   0.000000
 Symmetry turned off by external request.
 Stoichiometry    C2H4S
 Rotational constants (GHZ):          32.8865896           8.4327606           6.7117401
 Leave Link  202 at Tue Jan  3 09:05:59 2023, MaxMem=   536870912 cpu:               0.0 elap:               0.0
 (Enter /opt/software/gaussian/g16.c01/l301.exe)
 General basis read from cards:  (5D, 7F)
 Centers:       4      5      6      7
 S 3 1.00
     Exponent=  3.4061341000D+01 Coefficients=  6.0251978000D-03
     Exponent=  5.1235746000D+00 Coefficients=  4.5021094000D-02
     Exponent=  1.1646626000D+00 Coefficients=  2.0189726000D-01
 S 1 1.00
     Exponent=  3.2723041000D-01 Coefficients=  1.0000000000D+00
 S 1 1.00
     Exponent=  1.0307241000D-01 Coefficients=  1.0000000000D+00
 P 1 1.00
     Exponent=  8.0000000000D-01 Coefficients=  1.0000000000D+00
 P 1 1.00
     Exponent=  9.5774129632D-02 Coefficients=  1.0000000000D+00
 ****
 Centers:       1      3
 S 6 1.00
     Exponent=  1.3575349682D+04 Coefficients=  2.2245814352D-04
     Exponent=  2.0352333680D+03 Coefficients=  1.7232738252D-03
     Exponent=  4.6322562359D+02 Coefficients=  8.9255715314D-03
     Exponent=  1.3120019598D+02 Coefficients=  3.5727984502D-02
     Exponent=  4.2853015891D+01 Coefficients=  1.1076259931D-01
     Exponent=  1.5584185766D+01 Coefficients=  2.4295627626D-01
 S 2 1.00
     Exponent=  6.2067138508D+00 Coefficients=  4.1440263448D-01
     Exponent=  2.5764896527D+00 Coefficients=  2.3744968655D-01
 S 1 1.00
     Exponent=  5.7696339419D-01 Coefficients=  1.0000000000D+00
 S 1 1.00
     Exponent=  2.2972831358D-01 Coefficients=  1.0000000000D+00
 S 1 1.00
     Exponent=  9.5164440028D-02 Coefficients=  1.0000000000D+00
 S 1 1.00
     Exponent=  4.8475401370D-02 Coefficients=  1.0000000000D+00
 P 4 1.00
     Exponent=  3.4697232244D+01 Coefficients=  5.3333657805D-03
     Exponent=  7.9582622826D+00 Coefficients=  3.5864109092D-02
     Exponent=  2.3780826883D+00 Coefficients=  1.4215873329D-01
     Exponent=  8.1433208183D-01 Coefficients=  3.4270471845D-01
 P 1 1.00
     Exponent=  2.8887547253D-01 Coefficients=  4.6445822433D-01
 P 1 1.00
     Exponent=  1.0056823671D-01 Coefficients=  2.4955789874D-01
 D 1 1.00
     Exponent=  1.0970000000D+00 Coefficients=  1.0000000000D+00
 D 1 1.00
     Exponent=  3.1800000000D-01 Coefficients=  1.0000000000D+00
 D 1 1.00
     Exponent=  9.0985336424D-02 Coefficients=  1.0000000000D+00
 F 1 1.00
     Exponent=  7.6100000000D-01 Coefficients=  1.0000000000D+00
 ****
 Centers:       2
 S 7 1.00
     Exponent=  6.0700928104D+04 Coefficients=  5.4695944225D-04
     Exponent=  9.1026106854D+03 Coefficients=  4.2297224557D-03
     Exponent=  2.0714166009D+03 Coefficients=  2.1747824159D-02
     Exponent=  5.8602476821D+02 Coefficients=  8.5100053589D-02
     Exponent=  1.9055395021D+02 Coefficients=  2.4799128459D-01
     Exponent=  6.7630384260D+01 Coefficients=  4.6703640406D-01
     Exponent=  2.5127306905D+01 Coefficients=  3.6434587550D-01
 S 3 1.00
     Exponent=  1.1257463010D+02 Coefficients=  2.1670040240D-02
     Exponent=  3.4795554217D+01 Coefficients=  9.3602301760D-02
     Exponent=  6.5115556215D+00 Coefficients= -2.6068001422D-01
 S 2 1.00
     Exponent=  3.2399032261D+00 Coefficients=  1.2842089435D+00
     Exponent=  1.5477160881D+00 Coefficients=  6.6036416584D-01
 S 1 1.00
     Exponent=  4.0541030112D-01 Coefficients=  1.0000000000D+00
 S 1 1.00
     Exponent=  1.4550651059D-01 Coefficients=  1.0000000000D+00
 S 1 1.00
     Exponent=  5.0178839540D-02 Coefficients=  1.0000000000D+00
 P 5 1.00
     Exponent=  5.6436716027D+02 Coefficients=  2.4796796317D-03
     Exponent=  1.3342624379D+02 Coefficients=  1.9677930250D-02
     Exponent=  4.2468271189D+01 Coefficients=  8.9980008258D-02
     Exponent=  1.5616527580D+01 Coefficients=  2.5705880575D-01
     Exponent=  6.1093988469D+00 Coefficients=  4.3515167292D-01
 P 1 1.00
     Exponent=  2.4404160198D+00 Coefficients=  3.4883240595D-01
 P 1 1.00
     Exponent=  8.3882201296D-01 Coefficients=  1.0000000000D+00
 P 1 1.00
     Exponent=  3.1288746900D-01 Coefficients=  1.0000000000D+00
 P 1 1.00
     Exponent=  1.0770109004D-01 Coefficients=  1.0000000000D+00
 P 1 1.00
     Exponent=  3.0359833649D-02 Coefficients=  1.0000000000D+00
 D 2 1.00
     Exponent=  3.7560000000D+00 Coefficients=  2.0000000000D-01
     Exponent=  8.1200000000D-01 Coefficients=  1.0000000000D+00
 D 1 1.00
     Exponent=  2.7300000000D-01 Coefficients=  1.0000000000D+00
 D 1 1.00
     Exponent=  8.1547024970D-02 Coefficients=  1.0000000000D+00
 F 1 1.00
     Exponent=  5.5700000000D-01 Coefficients=  1.0000000000D+00
 ****
 Ernie: Thresh=  0.10000D-02 Tol=  0.10000D-05 Strict=F.
   156 basis functions,   239 primitive gaussians,   174 cartesian basis functions
    16 alpha electrons       16 beta electrons
       nuclear repulsion energy       100.3080120317 Hartrees.
 IExCor= 4639 DFT=T Ex+Corr=wB97XD ExCW=0 ScaHFX=  1.000000
 ScaDFX=  1.000000  1.000000  1.000000  1.000000 ScalE2=  1.000000  1.000000
 IRadAn=      5 IRanWt=     -1 IRanGd=            0 ICorTp=0 IEmpDi=121
 HFx  wShort=  0.000000 wLong=  0.200000 cFull=  0.222036 cShort=  0.000000 cLong=  0.777964
 DFx  wShort=  0.000000 wLong=  0.200000 cFull=  0.000000 cShort=  0.000000 cLong=  1.000000
 NAtoms=    7 NActive=    7 NUniq=    7 SFac= 1.00D+00 NAtFMM=   60 NAOKFM=F Big=F
 Integral buffers will be    131072 words long.
 Raffenetti 2 integral format.
 Two-electron integral symmetry is turned off.
 R6Disp:  Grimme-D2 Dispersion energy=       -0.0011997330 Hartrees.
 Nuclear repulsion after empirical dispersion term =      100.3068122987 Hartrees.
 Leave Link  301 at Tue Jan  3 09:05:59 2023, MaxMem=   536870912 cpu:               0.2 elap:               0.1
 (Enter /opt/software/gaussian/g16.c01/l302.exe)
 NPDir=0 NMtPBC=     1 NCelOv=     1 NCel=       1 NClECP=     1 NCelD=      1
         NCelK=      1 NCelE2=     1 NClLst=     1 CellRange=     0.0.
 One-electron integrals computed using PRISM.
 NBasis=   156 RedAO= T EigKep=  4.53D-05  NBF=   156
 NBsUse=   156 1.00D-06 EigRej= -1.00D+00 NBFU=   156
 Precomputing XC quadrature grid using
 IXCGrd= 4 IRadAn=           5 IRanWt=          -1 IRanGd=           0 AccXCQ= 0.00D+00.
 Generated NRdTot=       0 NPtTot=           0 NUsed=           0 NTot=          32
 NSgBfM=   174   173   173   174   174 MxSgAt=     7 MxSgA2=     7.
 Leave Link  302 at Tue Jan  3 09:05:59 2023, MaxMem=   536870912 cpu:               0.4 elap:               0.2
 (Enter /opt/software/gaussian/g16.c01/l303.exe)
 DipDrv:  MaxL=1.
 Leave Link  303 at Tue Jan  3 09:05:59 2023, MaxMem=   536870912 cpu:               0.1 elap:               0.1
 (Enter /opt/software/gaussian/g16.c01/l401.exe)
 ExpMin= 3.04D-02 ExpMax= 6.07D+04 ExpMxC= 2.07D+03 IAcc=3 IRadAn=         5 AccDes= 0.00D+00
 Harris functional with IExCor= 4639 and IRadAn=       5 diagonalized for initial guess.
 HarFok:  IExCor= 4639 AccDes= 0.00D+00 IRadAn=         5 IDoV= 1 UseB2=F ITyADJ=14
 ICtDFT=  3500011 ScaDFX=  1.000000  1.000000  1.000000  1.000000
 FoFCou: FMM=F IPFlag=           0 FMFlag=      100000 FMFlg1=           0
         NFxFlg=           0 DoJE=T BraDBF=F KetDBF=T FulRan=T
         wScrn=  0.000000 ICntrl=       500 IOpCl=  0 I1Cent=   200000004 NGrid=           0
         NMat0=    1 NMatS0=      1 NMatT0=    0 NMatD0=    1 NMtDS0=    0 NMtDT0=    0
 Symmetry not used in FoFCou.
 Harris En= -465.959069506228    
 JPrj=0 DoOrth=F DoCkMO=F.
 Initial guess <Sx>= 0.0000 <Sy>= 0.0000 <Sz>= 0.0000 <S**2>=-0.0000 S=-0.0000
 Leave Link  401 at Tue Jan  3 09:06:00 2023, MaxMem=   536870912 cpu:               2.0 elap:               1.0
 (Enter /opt/software/gaussian/g16.c01/l502.exe)
 Keep R1 and R2 ints in memory in canonical form, NReq=304568618.
 FoFCou: FMM=F IPFlag=           0 FMFlag=           0 FMFlg1=           0
         NFxFlg=           0 DoJE=F BraDBF=F KetDBF=F FulRan=T
         wScrn=  0.000000 ICntrl=       600 IOpCl=  0 I1Cent=           0 NGrid=           0
         NMat0=    1 NMatS0=  12246 NMatT0=    0 NMatD0=    1 NMtDS0=    0 NMtDT0=    0
 Symmetry not used in FoFCou.
 Two-electron integral symmetry not used.
 UHF open shell SCF:
 Using DIIS extrapolation, IDIIS=  1040.
 NGot=   536870912 LenX=   236854392 LenY=   236823675
 Requested convergence on RMS density matrix=1.00D-08 within 128 cycles.
 Requested convergence on MAX density matrix=1.00D-06.
 Requested convergence on             energy=1.00D-06.
 No special actions if energy rises.

 Cycle   1  Pass 1  IDiag  1:
 E= -476.531980167869    
 DIIS: error= 6.47D-02 at cycle   1 NSaved=   1.
 NSaved= 1 IEnMin= 1 EnMin= -476.531980167869     IErMin= 1 ErrMin= 6.47D-02
 ErrMax= 6.47D-02  0.00D+00 EMaxC= 1.00D-01 BMatC= 2.95D+00 BMatP= 2.95D+00
 IDIUse=3 WtCom= 3.53D-01 WtEn= 6.47D-01
 Coeff-Com:  0.100D+01
 Coeff-En:   0.100D+01
 Coeff:      0.100D+01
 Gap=     0.203 Goal=   None    Shift=    0.000
 Gap=     0.203 Goal=   None    Shift=    0.000
 GapD=    0.203 DampG=1.000 DampE=0.500 DampFc=0.5000 IDamp=-1.
 Damping current iteration by 5.00D-01
 RMSDP=5.50D-03 MaxDP=2.90D-01              OVMax= 2.97D-01

 Cycle   2  Pass 1  IDiag  1:
 E= -476.634158259623     Delta-E=       -0.102178091753 Rises=F Damp=T
 DIIS: error= 2.44D-02 at cycle   2 NSaved=   2.
 NSaved= 2 IEnMin= 2 EnMin= -476.634158259623     IErMin= 2 ErrMin= 2.44D-02
 ErrMax= 2.44D-02  0.00D+00 EMaxC= 1.00D-01 BMatC= 3.05D-01 BMatP= 2.95D+00
 IDIUse=3 WtCom= 7.56D-01 WtEn= 2.44D-01
 Coeff-Com: -0.302D+00 0.130D+01
 Coeff-En:   0.000D+00 0.100D+01
 Coeff:     -0.229D+00 0.123D+01
 Gap=     0.293 Goal=   None    Shift=    0.000
 Gap=     0.293 Goal=   None    Shift=    0.000
 RMSDP=1.63D-03 MaxDP=4.36D-02 DE=-1.02D-01 OVMax= 1.69D-01

 Cycle   3  Pass 1  IDiag  1:
 E= -476.726163634537     Delta-E=       -0.092005374915 Rises=F Damp=F
 DIIS: error= 8.59D-03 at cycle   3 NSaved=   3.
 NSaved= 3 IEnMin= 3 EnMin= -476.726163634537     IErMin= 3 ErrMin= 8.59D-03
 ErrMax= 8.59D-03  0.00D+00 EMaxC= 1.00D-01 BMatC= 3.56D-02 BMatP= 3.05D-01
 IDIUse=3 WtCom= 9.14D-01 WtEn= 8.59D-02
 Coeff-Com: -0.139D+00 0.414D+00 0.725D+00
 Coeff-En:   0.000D+00 0.000D+00 0.100D+01
 Coeff:     -0.127D+00 0.378D+00 0.749D+00
 Gap=     0.279 Goal=   None    Shift=    0.000
 Gap=     0.279 Goal=   None    Shift=    0.000
 RMSDP=5.25D-04 MaxDP=2.55D-02 DE=-9.20D-02 OVMax= 4.91D-02

 Cycle   4  Pass 1  IDiag  1:
 E= -476.734704286867     Delta-E=       -0.008540652330 Rises=F Damp=F
 DIIS: error= 2.34D-03 at cycle   4 NSaved=   4.
 NSaved= 4 IEnMin= 4 EnMin= -476.734704286867     IErMin= 4 ErrMin= 2.34D-03
 ErrMax= 2.34D-03  0.00D+00 EMaxC= 1.00D-01 BMatC= 2.44D-03 BMatP= 3.56D-02
 IDIUse=3 WtCom= 9.77D-01 WtEn= 2.34D-02
 Coeff-Com: -0.952D-02 0.262D-01 0.230D+00 0.753D+00
 Coeff-En:   0.000D+00 0.000D+00 0.000D+00 0.100D+01
 Coeff:     -0.930D-02 0.256D-01 0.225D+00 0.759D+00
 Gap=     0.284 Goal=   None    Shift=    0.000
 Gap=     0.284 Goal=   None    Shift=    0.000
 RMSDP=1.36D-04 MaxDP=3.95D-03 DE=-8.54D-03 OVMax= 6.26D-03

 Cycle   5  Pass 1  IDiag  1:
 E= -476.735299034628     Delta-E=       -0.000594747761 Rises=F Damp=F
 DIIS: error= 3.16D-04 at cycle   5 NSaved=   5.
 NSaved= 5 IEnMin= 5 EnMin= -476.735299034628     IErMin= 5 ErrMin= 3.16D-04
 ErrMax= 3.16D-04  0.00D+00 EMaxC= 1.00D-01 BMatC= 4.09D-05 BMatP= 2.44D-03
 IDIUse=3 WtCom= 9.97D-01 WtEn= 3.16D-03
 Coeff-Com:  0.460D-02-0.114D-01 0.204D-01 0.150D+00 0.837D+00
 Coeff-En:   0.000D+00 0.000D+00 0.000D+00 0.000D+00 0.100D+01
 Coeff:      0.458D-02-0.114D-01 0.203D-01 0.149D+00 0.837D+00
 Gap=     0.284 Goal=   None    Shift=    0.000
 Gap=     0.284 Goal=   None    Shift=    0.000
 RMSDP=4.12D-05 MaxDP=1.68D-03 DE=-5.95D-04 OVMax= 1.26D-03

 Cycle   6  Pass 1  IDiag  1:
 E= -476.735313885514     Delta-E=       -0.000014850885 Rises=F Damp=F
 DIIS: error= 1.13D-04 at cycle   6 NSaved=   6.
 NSaved= 6 IEnMin= 6 EnMin= -476.735313885514     IErMin= 6 ErrMin= 1.13D-04
 ErrMax= 1.13D-04  0.00D+00 EMaxC= 1.00D-01 BMatC= 3.32D-06 BMatP= 4.09D-05
 IDIUse=3 WtCom= 9.99D-01 WtEn= 1.13D-03
 Coeff-Com:  0.143D-02-0.394D-02-0.243D-01-0.840D-01 0.902D-01 0.102D+01
 Coeff-En:   0.000D+00 0.000D+00 0.000D+00 0.000D+00 0.000D+00 0.100D+01
 Coeff:      0.143D-02-0.394D-02-0.242D-01-0.839D-01 0.901D-01 0.102D+01
 Gap=     0.285 Goal=   None    Shift=    0.000
 Gap=     0.285 Goal=   None    Shift=    0.000
 RMSDP=1.86D-05 MaxDP=3.59D-04 DE=-1.49D-05 OVMax= 9.46D-04

 Cycle   7  Pass 1  IDiag  1:
 E= -476.735315800047     Delta-E=       -0.000001914533 Rises=F Damp=F
 DIIS: error= 1.47D-05 at cycle   7 NSaved=   7.
 NSaved= 7 IEnMin= 7 EnMin= -476.735315800047     IErMin= 7 ErrMin= 1.47D-05
 ErrMax= 1.47D-05  0.00D+00 EMaxC= 1.00D-01 BMatC= 8.90D-08 BMatP= 3.32D-06
 IDIUse=1 WtCom= 1.00D+00 WtEn= 0.00D+00
 Coeff-Com: -0.193D-03 0.530D-03 0.203D-02 0.120D-02-0.274D-01-0.716D-01
 Coeff-Com:  0.110D+01
 Coeff:     -0.193D-03 0.530D-03 0.203D-02 0.120D-02-0.274D-01-0.716D-01
 Coeff:      0.110D+01
 Gap=     0.284 Goal=   None    Shift=    0.000
 Gap=     0.284 Goal=   None    Shift=    0.000
 RMSDP=2.41D-06 MaxDP=7.38D-05 DE=-1.91D-06 OVMax= 1.43D-04

 Cycle   8  Pass 1  IDiag  1:
 E= -476.735315849210     Delta-E=       -0.000000049164 Rises=F Damp=F
 DIIS: error= 4.30D-06 at cycle   8 NSaved=   8.
 NSaved= 8 IEnMin= 8 EnMin= -476.735315849210     IErMin= 8 ErrMin= 4.30D-06
 ErrMax= 4.30D-06  0.00D+00 EMaxC= 1.00D-01 BMatC= 9.08D-09 BMatP= 8.90D-08
 IDIUse=1 WtCom= 1.00D+00 WtEn= 0.00D+00
 Coeff-Com: -0.103D-03 0.300D-03 0.154D-02 0.344D-02-0.120D-01-0.597D-01
 Coeff-Com:  0.248D+00 0.819D+00
 Coeff:     -0.103D-03 0.300D-03 0.154D-02 0.344D-02-0.120D-01-0.597D-01
 Coeff:      0.248D+00 0.819D+00
 Gap=     0.284 Goal=   None    Shift=    0.000
 Gap=     0.284 Goal=   None    Shift=    0.000
 RMSDP=4.70D-07 MaxDP=1.37D-05 DE=-4.92D-08 OVMax= 3.46D-05

 Cycle   9  Pass 1  IDiag  1:
 E= -476.735315851934     Delta-E=       -0.000000002723 Rises=F Damp=F
 DIIS: error= 4.25D-06 at cycle   9 NSaved=   9.
 NSaved= 9 IEnMin= 9 EnMin= -476.735315851934     IErMin= 9 ErrMin= 4.25D-06
 ErrMax= 4.25D-06  0.00D+00 EMaxC= 1.00D-01 BMatC= 4.02D-09 BMatP= 9.08D-09
 IDIUse=1 WtCom= 1.00D+00 WtEn= 0.00D+00
 Coeff-Com: -0.278D-04 0.872D-04 0.541D-03 0.155D-02-0.310D-02-0.214D-01
 Coeff-Com: -0.925D-02 0.448D+00 0.583D+00
 Coeff:     -0.278D-04 0.872D-04 0.541D-03 0.155D-02-0.310D-02-0.214D-01
 Coeff:     -0.925D-02 0.448D+00 0.583D+00
 Gap=     0.284 Goal=   None    Shift=    0.000
 Gap=     0.284 Goal=   None    Shift=    0.000
 RMSDP=2.00D-07 MaxDP=4.63D-06 DE=-2.72D-09 OVMax= 2.00D-05

 Cycle  10  Pass 1  IDiag  1:
 E= -476.735315853090     Delta-E=       -0.000000001156 Rises=F Damp=F
 DIIS: error= 8.53D-07 at cycle  10 NSaved=  10.
 NSaved=10 IEnMin=10 EnMin= -476.735315853090     IErMin=10 ErrMin= 8.53D-07
 ErrMax= 8.53D-07  0.00D+00 EMaxC= 1.00D-01 BMatC= 2.28D-10 BMatP= 4.02D-09
 IDIUse=1 WtCom= 1.00D+00 WtEn= 0.00D+00
 Coeff-Com:  0.107D-04-0.298D-04-0.109D-03-0.140D-03 0.127D-02 0.455D-02
 Coeff-Com: -0.520D-01 0.256D-02 0.201D+00 0.843D+00
 Coeff:      0.107D-04-0.298D-04-0.109D-03-0.140D-03 0.127D-02 0.455D-02
 Coeff:     -0.520D-01 0.256D-02 0.201D+00 0.843D+00
 Gap=     0.284 Goal=   None    Shift=    0.000
 Gap=     0.284 Goal=   None    Shift=    0.000
 RMSDP=9.60D-08 MaxDP=1.87D-06 DE=-1.16D-09 OVMax= 4.90D-06

 Cycle  11  Pass 1  IDiag  1:
 E= -476.735315853172     Delta-E=       -0.000000000083 Rises=F Damp=F
 DIIS: error= 1.00D-07 at cycle  11 NSaved=  11.
 NSaved=11 IEnMin=11 EnMin= -476.735315853172     IErMin=11 ErrMin= 1.00D-07
 ErrMax= 1.00D-07  0.00D+00 EMaxC= 1.00D-01 BMatC= 2.59D-12 BMatP= 2.28D-10
 IDIUse=1 WtCom= 1.00D+00 WtEn= 0.00D+00
 Coeff-Com: -0.522D-06 0.896D-06-0.747D-05-0.518D-04 0.284D-04 0.476D-03
 Coeff-Com:  0.624D-02-0.232D-01-0.444D-01-0.654D-01 0.113D+01
 Coeff:     -0.522D-06 0.896D-06-0.747D-05-0.518D-04 0.284D-04 0.476D-03
 Coeff:      0.624D-02-0.232D-01-0.444D-01-0.654D-01 0.113D+01
 Gap=     0.284 Goal=   None    Shift=    0.000
 Gap=     0.284 Goal=   None    Shift=    0.000
 RMSDP=2.42D-08 MaxDP=4.48D-07 DE=-8.27D-11 OVMax= 9.40D-07

 Cycle  12  Pass 1  IDiag  1:
 E= -476.735315853174     Delta-E=       -0.000000000002 Rises=F Damp=F
 DIIS: error= 2.22D-08 at cycle  12 NSaved=  12.
 NSaved=12 IEnMin=12 EnMin= -476.735315853174     IErMin=12 ErrMin= 2.22D-08
 ErrMax= 2.22D-08  0.00D+00 EMaxC= 1.00D-01 BMatC= 6.94D-14 BMatP= 2.59D-12
 IDIUse=1 WtCom= 1.00D+00 WtEn= 0.00D+00
 Coeff-Com: -0.242D-06 0.772D-06 0.414D-05 0.902D-05-0.606D-04-0.201D-03
 Coeff-Com:  0.113D-02 0.222D-02-0.244D-02-0.223D-01-0.114D+00 0.114D+01
 Coeff:     -0.242D-06 0.772D-06 0.414D-05 0.902D-05-0.606D-04-0.201D-03
 Coeff:      0.113D-02 0.222D-02-0.244D-02-0.223D-01-0.114D+00 0.114D+01
 Gap=     0.284 Goal=   None    Shift=    0.000
 Gap=     0.284 Goal=   None    Shift=    0.000
 RMSDP=2.88D-09 MaxDP=5.95D-08 DE=-1.71D-12 OVMax= 1.78D-07

 SCF Done:  E(UwB97XD) =  -476.735315853     A.U. after   12 cycles
            NFock= 12  Conv=0.29D-08     -V/T= 2.0025
 <Sx>= 0.0000 <Sy>= 0.0000 <Sz>= 0.0000 <S**2>=-0.0000 S=-0.0000
 <L.S>=  0.00000000000    
 KE= 4.755459143888D+02 PE=-1.328854565723D+03 EE= 2.762665231827D+02
 Annihilation of the first spin contaminant:
 S**2 before annihilation    -0.0000,   after     0.0000
 Leave Link  502 at Tue Jan  3 09:06:26 2023, MaxMem=   536870912 cpu:              49.6 elap:              25.7
 (Enter /opt/software/gaussian/g16.c01/l508.exe)
 QCSCF skips out because SCF is already converged.
 Leave Link  508 at Tue Jan  3 09:06:26 2023, MaxMem=   536870912 cpu:               0.0 elap:               0.0
 (Enter /opt/software/gaussian/g16.c01/l601.exe)
 Copying SCF densities to generalized density rwf, IOpCl= 1 IROHF=0.

 **********************************************************************

            Population analysis using the SCF Density.

 **********************************************************************

 Alpha  occ. eigenvalues --  -89.08699 -10.29854 -10.29852  -8.11553  -6.06175
 Alpha  occ. eigenvalues --   -6.06132  -6.05799  -0.95027  -0.79465  -0.66473
 Alpha  occ. eigenvalues --   -0.55785  -0.54653  -0.48711  -0.44642  -0.41570
 Alpha  occ. eigenvalues --   -0.27434
 Alpha virt. eigenvalues --    0.01015   0.06203   0.06672   0.07620   0.08651
 Alpha virt. eigenvalues --    0.12016   0.12915   0.13726   0.14461   0.16811
 Alpha virt. eigenvalues --    0.18810   0.20429   0.20570   0.22008   0.23105
 Alpha virt. eigenvalues --    0.23866   0.26138   0.26228   0.26897   0.26933
 Alpha virt. eigenvalues --    0.29244   0.31091   0.32115   0.33319   0.35540
 Alpha virt. eigenvalues --    0.36054   0.36293   0.36544   0.36780   0.39421
 Alpha virt. eigenvalues --    0.40156   0.42061   0.42734   0.43061   0.44705
 Alpha virt. eigenvalues --    0.45104   0.45641   0.46892   0.49069   0.51606
 Alpha virt. eigenvalues --    0.52410   0.54867   0.56902   0.57721   0.58668
 Alpha virt. eigenvalues --    0.59766   0.60243   0.61919   0.65836   0.69058
 Alpha virt. eigenvalues --    0.69270   0.71903   0.75615   0.77108   0.77179
 Alpha virt. eigenvalues --    0.78181   0.80059   0.83227   0.89577   0.91616
 Alpha virt. eigenvalues --    0.92505   0.99215   1.04036   1.06328   1.06919
 Alpha virt. eigenvalues --    1.15853   1.19330   1.20308   1.23339   1.27960
 Alpha virt. eigenvalues --    1.31747   1.62700   1.64433   1.65701   1.67418
 Alpha virt. eigenvalues --    1.70087   1.70835   1.71491   1.74867   1.78919
 Alpha virt. eigenvalues --    1.81084   1.85694   1.91837   1.92740   1.93871
 Alpha virt. eigenvalues --    1.95545   1.95618   1.97032   2.02573   2.03739
 Alpha virt. eigenvalues --    2.08412   2.16101   2.18353   2.20368   2.21498
 Alpha virt. eigenvalues --    2.28056   2.28735   2.30482   2.48388   2.49376
 Alpha virt. eigenvalues --    2.57980   2.60818   2.65973   2.73854   2.77010
 Alpha virt. eigenvalues --    2.81539   2.86809   2.89014   2.92197   2.99861
 Alpha virt. eigenvalues --    3.15323   3.19640   3.20085   3.22483   3.25770
 Alpha virt. eigenvalues --    3.28678   3.29866   3.40419   3.40989   3.46594
 Alpha virt. eigenvalues --    3.49637   3.50158   3.57412   3.57889   3.64169
 Alpha virt. eigenvalues --    3.72426   3.78020   3.80120   3.96321   4.01973
 Alpha virt. eigenvalues --    4.29566   4.31542   4.69193   4.70649   9.04796
 Alpha virt. eigenvalues --    9.34006   9.68880  20.82865  22.32730  22.37395
  Beta  occ. eigenvalues --  -89.08699 -10.29854 -10.29852  -8.11553  -6.06175
  Beta  occ. eigenvalues --   -6.06132  -6.05799  -0.95027  -0.79465  -0.66473
  Beta  occ. eigenvalues --   -0.55785  -0.54653  -0.48711  -0.44642  -0.41570
  Beta  occ. eigenvalues --   -0.27434
  Beta virt. eigenvalues --    0.01015   0.06203   0.06672   0.07620   0.08651
  Beta virt. eigenvalues --    0.12016   0.12915   0.13726   0.14461   0.16811
  Beta virt. eigenvalues --    0.18810   0.20429   0.20570   0.22008   0.23105
  Beta virt. eigenvalues --    0.23866   0.26138   0.26228   0.26897   0.26933
  Beta virt. eigenvalues --    0.29244   0.31091   0.32115   0.33319   0.35540
  Beta virt. eigenvalues --    0.36054   0.36293   0.36544   0.36780   0.39421
  Beta virt. eigenvalues --    0.40156   0.42061   0.42734   0.43061   0.44705
  Beta virt. eigenvalues --    0.45104   0.45641   0.46892   0.49069   0.51606
  Beta virt. eigenvalues --    0.52410   0.54867   0.56902   0.57721   0.58668
  Beta virt. eigenvalues --    0.59766   0.60243   0.61919   0.65836   0.69058
  Beta virt. eigenvalues --    0.69270   0.71903   0.75615   0.77108   0.77179
  Beta virt. eigenvalues --    0.78181   0.80059   0.83227   0.89577   0.91616
  Beta virt. eigenvalues --    0.92505   0.99215   1.04036   1.06328   1.06919
  Beta virt. eigenvalues --    1.15853   1.19330   1.20308   1.23339   1.27960
  Beta virt. eigenvalues --    1.31747   1.62700   1.64433   1.65701   1.67418
  Beta virt. eigenvalues --    1.70087   1.70835   1.71491   1.74867   1.78919
  Beta virt. eigenvalues --    1.81084   1.85694   1.91837   1.92740   1.93871
  Beta virt. eigenvalues --    1.95545   1.95618   1.97032   2.02573   2.03739
  Beta virt. eigenvalues --    2.08412   2.16101   2.18353   2.20368   2.21498
  Beta virt. eigenvalues --    2.28056   2.28735   2.30482   2.48388   2.49376
  Beta virt. eigenvalues --    2.57980   2.60818   2.65973   2.73854   2.77010
  Beta virt. eigenvalues --    2.81539   2.86809   2.89014   2.92197   2.99861
  Beta virt. eigenvalues --    3.15323   3.19640   3.20085   3.22483   3.25770
  Beta virt. eigenvalues --    3.28678   3.29866   3.40419   3.40989   3.46594
  Beta virt. eigenvalues --    3.49637   3.50158   3.57412   3.57889   3.64169
  Beta virt. eigenvalues --    3.72426   3.78020   3.80120   3.96321   4.01973
  Beta virt. eigenvalues --    4.29566   4.31542   4.69193   4.70649   9.04796
  Beta virt. eigenvalues --    9.34006   9.68880  20.82865  22.32730  22.37395
          Condensed to atoms (all electrons):
               1          2          3          4          5          6
     1  C    5.686428   0.324321  -0.049821   0.364129   0.363272   0.001003
     2  S    0.324321  15.290271   0.324293  -0.025846  -0.004238  -0.004249
     3  C   -0.049821   0.324293   5.686398   0.000911   0.000999   0.363267
     4  H    0.364129  -0.025846   0.000911   0.330805   0.005689  -0.000189
     5  H    0.363272  -0.004238   0.000999   0.005689   0.329053   0.000553
     6  H    0.001003  -0.004249   0.363267  -0.000189   0.000553   0.329055
     7  H    0.000912  -0.025858   0.364131  -0.000189  -0.000190   0.005690
               7
     1  C    0.000912
     2  S   -0.025858
     3  C    0.364131
     4  H   -0.000189
     5  H   -0.000190
     6  H    0.005690
     7  H    0.330810
          Atomic-Atomic Spin Densities.
               1          2          3          4          5          6
     1  C    0.000000   0.000000   0.000000   0.000000   0.000000   0.000000
     2  S    0.000000   0.000000   0.000000   0.000000   0.000000   0.000000
     3  C    0.000000   0.000000   0.000000   0.000000   0.000000   0.000000
     4  H    0.000000   0.000000   0.000000   0.000000   0.000000   0.000000
     5  H    0.000000   0.000000   0.000000   0.000000   0.000000   0.000000
     6  H    0.000000   0.000000   0.000000   0.000000   0.000000   0.000000
     7  H    0.000000   0.000000   0.000000   0.000000   0.000000   0.000000
               7
     1  C    0.000000
     2  S    0.000000
     3  C    0.000000
     4  H    0.000000
     5  H    0.000000
     6  H    0.000000
     7  H    0.000000
 Mulliken charges and spin densities:
               1          2
     1  C   -0.690244   0.000000
     2  S    0.121305   0.000000
     3  C   -0.690178   0.000000
     4  H    0.324690   0.000000
     5  H    0.304861   0.000000
     6  H    0.304871   0.000000
     7  H    0.324694   0.000000
 Sum of Mulliken charges =  -0.00000   0.00000
 Mulliken charges and spin densities with hydrogens summed into heavy atoms:
               1          2
     1  C   -0.060693   0.000000
     2  S    0.121305   0.000000
     3  C   -0.060613   0.000000
 Electronic spatial extent (au):  <R**2>=            870.7692
 Charge=             -0.0000 electrons
 Dipole moment (field-independent basis, Debye):
    X=             -0.1853    Y=              0.0937    Z=             -0.2470  Tot=              0.3227
 Quadrupole moment (field-independent basis, Debye-Ang):
   XX=            -25.2000   YY=            -28.4203   ZZ=            -24.9619
   XY=              0.5012   XZ=             -0.4383   YZ=             -1.8754
 Traceless Quadrupole moment (field-independent basis, Debye-Ang):
   XX=              0.9941   YY=             -2.2262   ZZ=              1.2322
   XY=              0.5012   XZ=             -0.4383   YZ=             -1.8754
 Octapole moment (field-independent basis, Debye-Ang**2):
  XXX=           -171.5757  YYY=            -21.3488  ZZZ=             26.0666  XYY=            -65.7912
  XXY=             -3.5270  XXZ=              6.7708  XZZ=            -60.5971  YZZ=             -3.9184
  YYZ=              9.6521  XYZ=             -3.2535
 Hexadecapole moment (field-independent basis, Debye-Ang**3):
 XXXX=           -943.2731 YYYY=            -69.0787 ZZZZ=           -120.5087 XXXY=            -45.1551
 XXXZ=             76.9263 YYYX=            -70.4209 YYYZ=             26.4083 ZZZX=             91.2390
 ZZZY=             16.5457 XXYY=           -194.3151 XXZZ=           -192.8783 YYZZ=            -30.2416
 XXYZ=             -1.7213 YYXZ=             32.8858 ZZXY=            -13.1090
 N-N= 1.003068122987D+02 E-N=-1.328854564931D+03  KE= 4.755459143888D+02
                          Isotropic Fermi Contact Couplings
        Atom                 a.u.       MegaHertz       Gauss      10(-4) cm-1
     1  C(13)              0.00000       0.00000       0.00000       0.00000
     2  S(33)              0.00000       0.00000       0.00000       0.00000
     3  C(13)              0.00000       0.00000       0.00000       0.00000
     4  H(1)               0.00000       0.00000       0.00000       0.00000
     5  H(1)               0.00000       0.00000       0.00000       0.00000
     6  H(1)               0.00000       0.00000       0.00000       0.00000
     7  H(1)               0.00000       0.00000       0.00000       0.00000
 --------------------------------------------------------
       Center         ----  Spin Dipole Couplings  ----
                      3XX-RR        3YY-RR        3ZZ-RR
 --------------------------------------------------------
     1   Atom        0.000000      0.000000      0.000000
     2   Atom        0.000000      0.000000      0.000000
     3   Atom        0.000000      0.000000      0.000000
     4   Atom        0.000000      0.000000      0.000000
     5   Atom        0.000000      0.000000      0.000000
     6   Atom        0.000000      0.000000      0.000000
     7   Atom        0.000000      0.000000      0.000000
 --------------------------------------------------------
                        XY            XZ            YZ
 --------------------------------------------------------
     1   Atom        0.000000      0.000000      0.000000
     2   Atom        0.000000      0.000000      0.000000
     3   Atom        0.000000      0.000000      0.000000
     4   Atom        0.000000      0.000000      0.000000
     5   Atom        0.000000      0.000000      0.000000
     6   Atom        0.000000      0.000000      0.000000
     7   Atom        0.000000      0.000000      0.000000
 --------------------------------------------------------


 ---------------------------------------------------------------------------------
              Anisotropic Spin Dipole Couplings in Principal Axis System
 ---------------------------------------------------------------------------------

       Atom             a.u.   MegaHertz   Gauss  10(-4) cm-1        Axes

              Baa     0.0000     0.000     0.000     0.000  1.0000  0.0000  0.0000
     1 C(13)  Bbb     0.0000     0.000     0.000     0.000 -0.0000  1.0000  0.0000
              Bcc     0.0000     0.000     0.000     0.000  0.0000  0.0000  1.0000
 
              Baa     0.0000     0.000     0.000     0.000  1.0000  0.0000  0.0000
     2 S(33)  Bbb     0.0000     0.000     0.000     0.000 -0.0000  1.0000  0.0000
              Bcc     0.0000     0.000     0.000     0.000  0.0000  0.0000  1.0000
 
              Baa     0.0000     0.000     0.000     0.000  1.0000  0.0000  0.0000
     3 C(13)  Bbb     0.0000     0.000     0.000     0.000 -0.0000  1.0000  0.0000
              Bcc     0.0000     0.000     0.000     0.000  0.0000  0.0000  1.0000
 
              Baa     0.0000     0.000     0.000     0.000  1.0000  0.0000  0.0000
     4 H(1)   Bbb     0.0000     0.000     0.000     0.000 -0.0000  1.0000  0.0000
              Bcc     0.0000     0.000     0.000     0.000  0.0000  0.0000  1.0000
 
              Baa     0.0000     0.000     0.000     0.000  1.0000  0.0000  0.0000
     5 H(1)   Bbb     0.0000     0.000     0.000     0.000 -0.0000  1.0000  0.0000
              Bcc     0.0000     0.000     0.000     0.000  0.0000  0.0000  1.0000
 
              Baa     0.0000     0.000     0.000     0.000  1.0000  0.0000  0.0000
     6 H(1)   Bbb     0.0000     0.000     0.000     0.000 -0.0000  1.0000  0.0000
              Bcc     0.0000     0.000     0.000     0.000  0.0000  0.0000  1.0000
 
              Baa     0.0000     0.000     0.000     0.000  1.0000  0.0000  0.0000
     7 H(1)   Bbb     0.0000     0.000     0.000     0.000 -0.0000  1.0000  0.0000
              Bcc     0.0000     0.000     0.000     0.000  0.0000  0.0000  1.0000
 

 ---------------------------------------------------------------------------------

 No NMR shielding tensors so no spin-rotation constants.
 Leave Link  601 at Tue Jan  3 09:06:26 2023, MaxMem=   536870912 cpu:               0.3 elap:               0.2
 (Enter /opt/software/gaussian/g16.c01/l801.exe)
 DoSCS=F DFT=T ScalE2(SS,OS)=  1.000000  1.000000
 Range of M.O.s used for correlation:     1   156
 NBasis=   156 NAE=    16 NBE=    16 NFC=     0 NFV=     0
 NROrb=    156 NOA=    16 NOB=    16 NVA=   140 NVB=   140

 **** Warning!!: The largest alpha MO coefficient is  0.39684729D+02


 **** Warning!!: The largest beta MO coefficient is  0.39684729D+02

 Leave Link  801 at Tue Jan  3 09:06:26 2023, MaxMem=   536870912 cpu:               0.1 elap:               0.1
 (Enter /opt/software/gaussian/g16.c01/l914.exe)
 UHF ground state
 Doing stability rather than CIS.
 Keep R1 and R2 ints in memory in canonical form, NReq=308293764.
 FoFCou: FMM=F IPFlag=           0 FMFlag=           0 FMFlg1=           0
         NFxFlg=           0 DoJE=F BraDBF=F KetDBF=F FulRan=T
         wScrn=  0.000000 ICntrl=       600 IOpCl=  0 I1Cent=           0 NGrid=           0
         NMat0=    1 NMatS0=  12246 NMatT0=    0 NMatD0=    1 NMtDS0=    0 NMtDT0=    0
 Symmetry not used in FoFCou.
 Two-electron integral symmetry not used.
 MDV=   536870912 DFT=T DoStab=T Mixed=T DoRPA=F DoScal=F NonHer=F
 Making orbital integer symmetry assigments:
    12 initial guesses have been made.
 Convergence on wavefunction:    0.001000000000000
 Davidson Disk Diagonalization:  ConvIn= 1.00D-03 SkipCon=T Conv= 1.00D-03.
 Max sub-space:  2000 roots to seek:    12 dimension of matrix:         4480
 Iteration     1 Dimension    12 NMult     0 NNew     12
 CISAX will form    12 AO SS matrices at one time.
 NMat=    12 NSing=    12 JSym2X= 0.
 New state      1 was old state      2
 Excitation Energies [eV] at current iteration:
 Root      1 :     0.768008247143062
 Root      2 :     5.364096286130052
 Root      3 :     5.422721562092057
 Root      4 :     5.511184222436182
 Root      5 :     5.728430489064000
 Root      6 :     5.883106535863948
 Root      7 :     5.918743743804924
 Root      8 :     5.994109180725331
 Root      9 :     6.075452435676665
 Root     10 :     6.976400659189713
 Root     11 :     7.126130751155953
 Root     12 :     9.900969299773760
 Iteration     2 Dimension    24 NMult    12 NNew     12
 CISAX will form    12 AO SS matrices at one time.
 NMat=    12 NSing=    12 JSym2X= 0.
 Root      1 not converged, maximum delta is    0.074176646944360
 Excitation Energies [eV] at current iteration:
 Root      1 :     0.267744813863863   Change is   -0.500263433279198
 Root      2 :     5.041092739015177   Change is   -4.859876560758583
 Root      3 :     5.047688333894109   Change is   -0.463495888542073
 Root      4 :     5.075889792270558   Change is   -0.288206493859494
 Root      5 :     5.216368976906109   Change is   -0.206352585185948
 Root      6 :     5.522748884433520   Change is   -0.205681604630480
 Root      7 :     5.699677514367706   Change is   -0.183429021496241
 Root      8 :     5.754668699942675   Change is   -0.164075043862249
 Root      9 :     5.991084340397850   Change is   -0.084368095278815
 Root     10 :     6.211155096630981   Change is    0.217045915905650
 Root     11 :     6.519114722316690   Change is   -0.457285936873023
 Root     12 :     6.894886635047797   Change is   -0.231244116108157
 Iteration     3 Dimension    27 NMult    24 NNew      3
 CISAX will form     3 AO SS matrices at one time.
 NMat=     3 NSing=     3 JSym2X= 0.
 Root      1 not converged, maximum delta is    0.007988225719811
 Excitation Energies [eV] at current iteration:
 Root      1 :     0.259640522555137   Change is   -0.008104291308727
 Root      2 :     4.882905300233145   Change is   -0.164783033660964
 Root      3 :     4.955203403116878   Change is   -0.085889335898299
 Iteration     4 Dimension    30 NMult    27 NNew      3
 CISAX will form     3 AO SS matrices at one time.
 NMat=     3 NSing=     3 JSym2X= 0.
 Root      1 has converged.
 Excitation Energies [eV] at current iteration:
 Root      1 :     0.259379910688042   Change is   -0.000260611867095
 Root      2 :     4.771977626157441   Change is   -0.110927674075704
 Root      3 :     4.947506604812300   Change is   -0.007696798304578
 Convergence achieved on expansion vectors.
 ***********************************************************************
 Stability analysis using <AA,BB:AA,BB> singles matrix:
 ***********************************************************************
 1PDM for each excited state written to RWF  633
 Ground to excited state transition densities written to RWF  633

 Eigenvectors of the stability matrix:
 
 Excited state symmetry could not be determined.
 Eigenvector   1:  3.000-?Sym  Eigenvalue= 0.0095320  <S**2>=2.000
     16A -> 17A        0.68812
     16B -> 17B       -0.68812
 The wavefunction is stable under the perturbations considered.
 Leave Link  914 at Tue Jan  3 09:08:06 2023, MaxMem=   536870912 cpu:             200.0 elap:             100.1
 (Enter /opt/software/gaussian/g16.c01/l508.exe)
 The wavefunction is already stable.
 Leave Link  508 at Tue Jan  3 09:08:07 2023, MaxMem=   536870912 cpu:               0.0 elap:               0.0
 (Enter /opt/software/gaussian/g16.c01/l601.exe)
 Copying SCF densities to generalized density rwf, IOpCl= 1 IROHF=0.

 **********************************************************************

            Population analysis using the SCF Density.

 **********************************************************************

 Alpha  occ. eigenvalues --  -89.08699 -10.29854 -10.29852  -8.11553  -6.06175
 Alpha  occ. eigenvalues --   -6.06132  -6.05799  -0.95027  -0.79465  -0.66473
 Alpha  occ. eigenvalues --   -0.55785  -0.54653  -0.48711  -0.44642  -0.41570
 Alpha  occ. eigenvalues --   -0.27434
 Alpha virt. eigenvalues --    0.01015   0.06203   0.06672   0.07620   0.08651
 Alpha virt. eigenvalues --    0.12016   0.12915   0.13726   0.14461   0.16811
 Alpha virt. eigenvalues --    0.18810   0.20429   0.20570   0.22008   0.23105
 Alpha virt. eigenvalues --    0.23866   0.26138   0.26228   0.26897   0.26933
 Alpha virt. eigenvalues --    0.29244   0.31091   0.32115   0.33319   0.35540
 Alpha virt. eigenvalues --    0.36054   0.36293   0.36544   0.36780   0.39421
 Alpha virt. eigenvalues --    0.40156   0.42061   0.42734   0.43061   0.44705
 Alpha virt. eigenvalues --    0.45104   0.45641   0.46892   0.49069   0.51606
 Alpha virt. eigenvalues --    0.52410   0.54867   0.56902   0.57721   0.58668
 Alpha virt. eigenvalues --    0.59766   0.60243   0.61919   0.65836   0.69058
 Alpha virt. eigenvalues --    0.69270   0.71903   0.75615   0.77108   0.77179
 Alpha virt. eigenvalues --    0.78181   0.80059   0.83227   0.89577   0.91616
 Alpha virt. eigenvalues --    0.92505   0.99215   1.04036   1.06328   1.06919
 Alpha virt. eigenvalues --    1.15853   1.19330   1.20308   1.23339   1.27960
 Alpha virt. eigenvalues --    1.31747   1.62700   1.64433   1.65701   1.67418
 Alpha virt. eigenvalues --    1.70087   1.70835   1.71491   1.74867   1.78919
 Alpha virt. eigenvalues --    1.81084   1.85694   1.91837   1.92740   1.93871
 Alpha virt. eigenvalues --    1.95545   1.95618   1.97032   2.02573   2.03739
 Alpha virt. eigenvalues --    2.08412   2.16101   2.18353   2.20368   2.21498
 Alpha virt. eigenvalues --    2.28056   2.28735   2.30482   2.48388   2.49376
 Alpha virt. eigenvalues --    2.57980   2.60818   2.65973   2.73854   2.77010
 Alpha virt. eigenvalues --    2.81539   2.86809   2.89014   2.92197   2.99861
 Alpha virt. eigenvalues --    3.15323   3.19640   3.20085   3.22483   3.25770
 Alpha virt. eigenvalues --    3.28678   3.29866   3.40419   3.40989   3.46594
 Alpha virt. eigenvalues --    3.49637   3.50158   3.57412   3.57889   3.64169
 Alpha virt. eigenvalues --    3.72426   3.78020   3.80120   3.96321   4.01973
 Alpha virt. eigenvalues --    4.29566   4.31542   4.69193   4.70649   9.04796
 Alpha virt. eigenvalues --    9.34006   9.68880  20.82865  22.32730  22.37395
  Beta  occ. eigenvalues --  -89.08699 -10.29854 -10.29852  -8.11553  -6.06175
  Beta  occ. eigenvalues --   -6.06132  -6.05799  -0.95027  -0.79465  -0.66473
  Beta  occ. eigenvalues --   -0.55785  -0.54653  -0.48711  -0.44642  -0.41570
  Beta  occ. eigenvalues --   -0.27434
  Beta virt. eigenvalues --    0.01015   0.06203   0.06672   0.07620   0.08651
  Beta virt. eigenvalues --    0.12016   0.12915   0.13726   0.14461   0.16811
  Beta virt. eigenvalues --    0.18810   0.20429   0.20570   0.22008   0.23105
  Beta virt. eigenvalues --    0.23866   0.26138   0.26228   0.26897   0.26933
  Beta virt. eigenvalues --    0.29244   0.31091   0.32115   0.33319   0.35540
  Beta virt. eigenvalues --    0.36054   0.36293   0.36544   0.36780   0.39421
  Beta virt. eigenvalues --    0.40156   0.42061   0.42734   0.43061   0.44705
  Beta virt. eigenvalues --    0.45104   0.45641   0.46892   0.49069   0.51606
  Beta virt. eigenvalues --    0.52410   0.54867   0.56902   0.57721   0.58668
  Beta virt. eigenvalues --    0.59766   0.60243   0.61919   0.65836   0.69058
  Beta virt. eigenvalues --    0.69270   0.71903   0.75615   0.77108   0.77179
  Beta virt. eigenvalues --    0.78181   0.80059   0.83227   0.89577   0.91616
  Beta virt. eigenvalues --    0.92505   0.99215   1.04036   1.06328   1.06919
  Beta virt. eigenvalues --    1.15853   1.19330   1.20308   1.23339   1.27960
  Beta virt. eigenvalues --    1.31747   1.62700   1.64433   1.65701   1.67418
  Beta virt. eigenvalues --    1.70087   1.70835   1.71491   1.74867   1.78919
  Beta virt. eigenvalues --    1.81084   1.85694   1.91837   1.92740   1.93871
  Beta virt. eigenvalues --    1.95545   1.95618   1.97032   2.02573   2.03739
  Beta virt. eigenvalues --    2.08412   2.16101   2.18353   2.20368   2.21498
  Beta virt. eigenvalues --    2.28056   2.28735   2.30482   2.48388   2.49376
  Beta virt. eigenvalues --    2.57980   2.60818   2.65973   2.73854   2.77010
  Beta virt. eigenvalues --    2.81539   2.86809   2.89014   2.92197   2.99861
  Beta virt. eigenvalues --    3.15323   3.19640   3.20085   3.22483   3.25770
  Beta virt. eigenvalues --    3.28678   3.29866   3.40419   3.40989   3.46594
  Beta virt. eigenvalues --    3.49637   3.50158   3.57412   3.57889   3.64169
  Beta virt. eigenvalues --    3.72426   3.78020   3.80120   3.96321   4.01973
  Beta virt. eigenvalues --    4.29566   4.31542   4.69193   4.70649   9.04796
  Beta virt. eigenvalues --    9.34006   9.68880  20.82865  22.32730  22.37395
          Condensed to atoms (all electrons):
               1          2          3          4          5          6
     1  C    5.686428   0.324321  -0.049821   0.364129   0.363272   0.001003
     2  S    0.324321  15.290271   0.324293  -0.025846  -0.004238  -0.004249
     3  C   -0.049821   0.324293   5.686398   0.000911   0.000999   0.363267
     4  H    0.364129  -0.025846   0.000911   0.330805   0.005689  -0.000189
     5  H    0.363272  -0.004238   0.000999   0.005689   0.329053   0.000553
     6  H    0.001003  -0.004249   0.363267  -0.000189   0.000553   0.329055
     7  H    0.000912  -0.025858   0.364131  -0.000189  -0.000190   0.005690
               7
     1  C    0.000912
     2  S   -0.025858
     3  C    0.364131
     4  H   -0.000189
     5  H   -0.000190
     6  H    0.005690
     7  H    0.330810
          Atomic-Atomic Spin Densities.
               1          2          3          4          5          6
     1  C    0.000000   0.000000   0.000000   0.000000   0.000000   0.000000
     2  S    0.000000   0.000000   0.000000   0.000000   0.000000   0.000000
     3  C    0.000000   0.000000   0.000000   0.000000   0.000000   0.000000
     4  H    0.000000   0.000000   0.000000   0.000000   0.000000   0.000000
     5  H    0.000000   0.000000   0.000000   0.000000   0.000000   0.000000
     6  H    0.000000   0.000000   0.000000   0.000000   0.000000   0.000000
     7  H    0.000000   0.000000   0.000000   0.000000   0.000000   0.000000
               7
     1  C    0.000000
     2  S    0.000000
     3  C    0.000000
     4  H    0.000000
     5  H    0.000000
     6  H    0.000000
     7  H    0.000000
 Mulliken charges and spin densities:
               1          2
     1  C   -0.690244   0.000000
     2  S    0.121305   0.000000
     3  C   -0.690178   0.000000
     4  H    0.324690   0.000000
     5  H    0.304861   0.000000
     6  H    0.304871   0.000000
     7  H    0.324694   0.000000
 Sum of Mulliken charges =  -0.00000   0.00000
 Mulliken charges and spin densities with hydrogens summed into heavy atoms:
               1          2
     1  C   -0.060693   0.000000
     2  S    0.121305   0.000000
     3  C   -0.060613   0.000000
 Electronic spatial extent (au):  <R**2>=            870.7692
 Charge=             -0.0000 electrons
 Dipole moment (field-independent basis, Debye):
    X=             -0.1853    Y=              0.0937    Z=             -0.2470  Tot=              0.3227
 Quadrupole moment (field-independent basis, Debye-Ang):
   XX=            -25.2000   YY=            -28.4203   ZZ=            -24.9619
   XY=              0.5012   XZ=             -0.4383   YZ=             -1.8754
 Traceless Quadrupole moment (field-independent basis, Debye-Ang):
   XX=              0.9941   YY=             -2.2262   ZZ=              1.2322
   XY=              0.5012   XZ=             -0.4383   YZ=             -1.8754
 Octapole moment (field-independent basis, Debye-Ang**2):
  XXX=           -171.5757  YYY=            -21.3488  ZZZ=             26.0666  XYY=            -65.7912
  XXY=             -3.5270  XXZ=              6.7708  XZZ=            -60.5971  YZZ=             -3.9184
  YYZ=              9.6521  XYZ=             -3.2535
 Hexadecapole moment (field-independent basis, Debye-Ang**3):
 XXXX=           -943.2731 YYYY=            -69.0787 ZZZZ=           -120.5087 XXXY=            -45.1551
 XXXZ=             76.9263 YYYX=            -70.4209 YYYZ=             26.4083 ZZZX=             91.2390
 ZZZY=             16.5457 XXYY=           -194.3151 XXZZ=           -192.8783 YYZZ=            -30.2416
 XXYZ=             -1.7213 YYXZ=             32.8858 ZZXY=            -13.1090
 N-N= 1.003068122987D+02 E-N=-1.328854564931D+03  KE= 4.755459143888D+02
                          Isotropic Fermi Contact Couplings
        Atom                 a.u.       MegaHertz       Gauss      10(-4) cm-1
     1  C(13)              0.00000       0.00000       0.00000       0.00000
     2  S(33)              0.00000       0.00000       0.00000       0.00000
     3  C(13)              0.00000       0.00000       0.00000       0.00000
     4  H(1)               0.00000       0.00000       0.00000       0.00000
     5  H(1)               0.00000       0.00000       0.00000       0.00000
     6  H(1)               0.00000       0.00000       0.00000       0.00000
     7  H(1)               0.00000       0.00000       0.00000       0.00000
 --------------------------------------------------------
       Center         ----  Spin Dipole Couplings  ----
                      3XX-RR        3YY-RR        3ZZ-RR
 --------------------------------------------------------
     1   Atom        0.000000      0.000000      0.000000
     2   Atom        0.000000      0.000000      0.000000
     3   Atom        0.000000      0.000000      0.000000
     4   Atom        0.000000      0.000000      0.000000
     5   Atom        0.000000      0.000000      0.000000
     6   Atom        0.000000      0.000000      0.000000
     7   Atom        0.000000      0.000000      0.000000
 --------------------------------------------------------
                        XY            XZ            YZ
 --------------------------------------------------------
     1   Atom        0.000000      0.000000      0.000000
     2   Atom        0.000000      0.000000      0.000000
     3   Atom        0.000000      0.000000      0.000000
     4   Atom        0.000000      0.000000      0.000000
     5   Atom        0.000000      0.000000      0.000000
     6   Atom        0.000000      0.000000      0.000000
     7   Atom        0.000000      0.000000      0.000000
 --------------------------------------------------------


 ---------------------------------------------------------------------------------
              Anisotropic Spin Dipole Couplings in Principal Axis System
 ---------------------------------------------------------------------------------

       Atom             a.u.   MegaHertz   Gauss  10(-4) cm-1        Axes

              Baa     0.0000     0.000     0.000     0.000  1.0000  0.0000  0.0000
     1 C(13)  Bbb     0.0000     0.000     0.000     0.000 -0.0000  1.0000  0.0000
              Bcc     0.0000     0.000     0.000     0.000  0.0000  0.0000  1.0000
 
              Baa     0.0000     0.000     0.000     0.000  1.0000  0.0000  0.0000
     2 S(33)  Bbb     0.0000     0.000     0.000     0.000 -0.0000  1.0000  0.0000
              Bcc     0.0000     0.000     0.000     0.000  0.0000  0.0000  1.0000
 
              Baa     0.0000     0.000     0.000     0.000  1.0000  0.0000  0.0000
     3 C(13)  Bbb     0.0000     0.000     0.000     0.000 -0.0000  1.0000  0.0000
              Bcc     0.0000     0.000     0.000     0.000  0.0000  0.0000  1.0000
 
              Baa     0.0000     0.000     0.000     0.000  1.0000  0.0000  0.0000
     4 H(1)   Bbb     0.0000     0.000     0.000     0.000 -0.0000  1.0000  0.0000
              Bcc     0.0000     0.000     0.000     0.000  0.0000  0.0000  1.0000
 
              Baa     0.0000     0.000     0.000     0.000  1.0000  0.0000  0.0000
     5 H(1)   Bbb     0.0000     0.000     0.000     0.000 -0.0000  1.0000  0.0000
              Bcc     0.0000     0.000     0.000     0.000  0.0000  0.0000  1.0000
 
              Baa     0.0000     0.000     0.000     0.000  1.0000  0.0000  0.0000
     6 H(1)   Bbb     0.0000     0.000     0.000     0.000 -0.0000  1.0000  0.0000
              Bcc     0.0000     0.000     0.000     0.000  0.0000  0.0000  1.0000
 
              Baa     0.0000     0.000     0.000     0.000  1.0000  0.0000  0.0000
     7 H(1)   Bbb     0.0000     0.000     0.000     0.000 -0.0000  1.0000  0.0000
              Bcc     0.0000     0.000     0.000     0.000  0.0000  0.0000  1.0000
 

 ---------------------------------------------------------------------------------

 No NMR shielding tensors so no spin-rotation constants.
 Leave Link  601 at Tue Jan  3 09:08:07 2023, MaxMem=   536870912 cpu:               0.3 elap:               0.2
 (Enter /opt/software/gaussian/g16.c01/l9999.exe)

 Test job not archived.
 1\1\GINC-GRA738\Stability\UwB97XD\Gen\C2H4S1\BHAVUK\03-Jan-2023\0\\#p 
 uwb97xd/gen stable=opt scf=(maxcycle=900,verytightlineq,xqc) integral=
 grid=ultrafine symmetry=None density=current iop(99/18=-1) output=wfn\
 \0003_q000_m01_k00_opt_uwb97xd_def2svpd/0003_q000_m01_k00_force_uwb97x
 d_def2tzvpd stable-force\\0,1\C,0,0.9838325225,-0.0325586033,0.0488580
 178\S,0,2.6071301422,0.0991997065,0.0187984451\C,0,3.2273228911,0.7361
 97977,-1.3460048506\H,0,0.570421034,-0.4575297175,0.9597448627\H,0,0.3
 438072589,0.2782232167,-0.7754915598\H,0,2.615218944,1.0564841772,-2.1
 877415072\H,0,4.3104572053,0.8236432464,-1.365823405\\Version=ES64L-G1
 6RevC.01\HF=-476.7353159\S2=0.\S2-1=0.\S2A=0.\RMSD=2.882e-09\Dipole=-0
 .072902,0.0368484,-0.0971789\Quadrupole=0.7390646,-1.6551514,0.9160868
 ,0.3726182,-0.3258668,-1.3943362\PG=Unknown\\@

 Writing a WFN file to "0003_q000_m01_k00_force_uwb97xd_def2tzvpd.wfn"


 ERWIN WITH HIS PSI CAN DO
 CALCULATIONS QUITE A FEW.
 BUT ONE THING HAS NOT BEEN SEEN
 JUST WHAT DOES PSI REALLY MEAN.
 -- WALTER HUCKEL, TRANS. BY FELIX BLOCH
 Job cpu time:       0 days  0 hours  4 minutes 14.3 seconds.
 Elapsed time:       0 days  0 hours  2 minutes  8.1 seconds.
 File lengths (MBytes):  RWF=    121 Int=      0 D2E=      0 Chk=      5 Scr=      1
 Normal termination of Gaussian 16 at Tue Jan  3 09:08:07 2023.
 Initial command:
 /opt/software/gaussian/g16.c01/l1.exe "/localscratch/bhavuk.2151390.0/Gau-21767.inp" -scrdir="/localscratch/bhavuk.2151390.0/"
 Entering Link 1 = /opt/software/gaussian/g16.c01/l1.exe PID=     26839.
  
 Copyright (c) 1988-2019, Gaussian, Inc.  All Rights Reserved.
  
 This is part of the Gaussian(R) 16 program.  It is based on
 the Gaussian(R) 09 system (copyright 2009, Gaussian, Inc.),
 the Gaussian(R) 03 system (copyright 2003, Gaussian, Inc.),
 the Gaussian(R) 98 system (copyright 1998, Gaussian, Inc.),
 the Gaussian(R) 94 system (copyright 1995, Gaussian, Inc.),
 the Gaussian 92(TM) system (copyright 1992, Gaussian, Inc.),
 the Gaussian 90(TM) system (copyright 1990, Gaussian, Inc.),
 the Gaussian 88(TM) system (copyright 1988, Gaussian, Inc.),
 the Gaussian 86(TM) system (copyright 1986, Carnegie Mellon
 University), and the Gaussian 82(TM) system (copyright 1983,
 Carnegie Mellon University). Gaussian is a federally registered
 trademark of Gaussian, Inc.
  
 This software contains proprietary and confidential information,
 including trade secrets, belonging to Gaussian, Inc.
  
 This software is provided under written license and may be
 used, copied, transmitted, or stored only in accord with that
 written license.
  
 The following legend is applicable only to US Government
 contracts under FAR:
  
                    RESTRICTED RIGHTS LEGEND
  
 Use, reproduction and disclosure by the US Government is
 subject to restrictions as set forth in subparagraphs (a)
 and (c) of the Commercial Computer Software - Restricted
 Rights clause in FAR 52.227-19.
  
 Gaussian, Inc.
 340 Quinnipiac St., Bldg. 40, Wallingford CT 06492
  
  
 ---------------------------------------------------------------
 Warning -- This program may not be used in any manner that
 competes with the business of Gaussian, Inc. or will provide
 assistance to any competitor of Gaussian, Inc.  The licensee
 of this program is prohibited from giving any competitor of
 Gaussian, Inc. access to this program.  By using this program,
 the user acknowledges that Gaussian, Inc. is engaged in the
 business of creating and licensing software in the field of
 computational chemistry and represents and warrants to the
 licensee that it is not a competitor of Gaussian, Inc. and that
 it will not use this program in any manner prohibited above.
 ---------------------------------------------------------------
  

 Cite this work as:
 Gaussian 16, Revision C.01,
 M. J. Frisch, G. W. Trucks, H. B. Schlegel, G. E. Scuseria, 
 M. A. Robb, J. R. Cheeseman, G. Scalmani, V. Barone, 
 G. A. Petersson, H. Nakatsuji, X. Li, M. Caricato, A. V. Marenich, 
 J. Bloino, B. G. Janesko, R. Gomperts, B. Mennucci, H. P. Hratchian, 
 J. V. Ortiz, A. F. Izmaylov, J. L. Sonnenberg, D. Williams-Young, 
 F. Ding, F. Lipparini, F. Egidi, J. Goings, B. Peng, A. Petrone, 
 T. Henderson, D. Ranasinghe, V. G. Zakrzewski, J. Gao, N. Rega, 
 G. Zheng, W. Liang, M. Hada, M. Ehara, K. Toyota, R. Fukuda, 
 J. Hasegawa, M. Ishida, T. Nakajima, Y. Honda, O. Kitao, H. Nakai, 
 T. Vreven, K. Throssell, J. A. Montgomery, Jr., J. E. Peralta, 
 F. Ogliaro, M. J. Bearpark, J. J. Heyd, E. N. Brothers, K. N. Kudin, 
 V. N. Staroverov, T. A. Keith, R. Kobayashi, J. Normand, 
 K. Raghavachari, A. P. Rendell, J. C. Burant, S. S. Iyengar, 
 J. Tomasi, M. Cossi, J. M. Millam, M. Klene, C. Adamo, R. Cammi, 
 J. W. Ochterski, R. L. Martin, K. Morokuma, O. Farkas, 
 J. B. Foresman, and D. J. Fox, Gaussian, Inc., Wallingford CT, 2019.
 
 ******************************************
 Gaussian 16:  ES64L-G16RevC.01  3-Jul-2019
                 3-Jan-2023 
 ******************************************
 %chk=0003_q000_m01_k00_force_uwb97xd_def2tzvpd.chk
 %nprocshared=2
 Will use up to    2 processors via shared memory.
 %mem=4GB
 ----------------------------------------------------------------------
 #p uwb97xd/chkbasis force guess=read geom=check scf=(maxcycle=900,very
 tightlineq,xqc) integral=grid=ultrafine symmetry=None density=current 
 pop=(cm5,hlygat,mbs,npa) output=wfx
 ----------------------------------------------------------------------
 1/10=7,29=2,30=1,38=1/1,3;
 2/12=2,15=3,40=1/2;
 3/5=7,6=2,11=2,14=-4,25=1,30=1,67=1,71=1,74=-58,75=-5,116=2/1,2,3;
 4/5=1/1;
 5/5=2,7=900,8=3,13=1,17=3,38=6/2,8;
 6/7=2,8=2,9=2,10=2,15=8,20=15,22=-1,27=100,28=1,40=-1,79=1/1,2,7;
 7/29=1,30=1/1,2,3,16;
 1/10=7,30=1/3;
 99/6=200/99;
 Leave Link    1 at Tue Jan  3 09:08:07 2023, MaxMem=   536870912 cpu:               0.1 elap:               0.1
 (Enter /opt/software/gaussian/g16.c01/l101.exe)
 ----------------------------------------------------------------------
 0003_q000_m01_k00_opt_uwb97xd_def2svpd/0003_q000_m01_k00_force_uwb97xd
 _def2tzvpd stable-force
 ----------------------------------------------------------------------
 Structure from the checkpoint file:  "0003_q000_m01_k00_force_uwb97xd_def2tzvpd.chk"
 Charge =  0 Multiplicity = 1
 Z-Matrix found in chk file.
 C,0,0.9838325225,-0.0325586033,0.0488580178
 S,0,2.6071301422,0.0991997065,0.0187984451
 C,0,3.2273228911,0.736197977,-1.3460048506
 H,0,0.570421034,-0.4575297175,0.9597448627
 H,0,0.3438072589,0.2782232167,-0.7754915598
 H,0,2.615218944,1.0564841772,-2.1877415072
 H,0,4.3104572053,0.8236432464,-1.365823405
 Recover connectivity data from disk.
 ITRead=  0  0  0  0  0  0  0
 MicOpt= -1 -1 -1 -1 -1 -1 -1
 NAtoms=      7 NQM=        7 NQMF=       0 NMMI=      0 NMMIF=      0
                NMic=       0 NMicF=      0.
                    Isotopes and Nuclear Properties:
 (Nuclear quadrupole moments (NQMom) in fm**2, nuclear magnetic moments (NMagM)
  in nuclear magnetons)

  Atom         1           2           3           4           5           6           7
 IAtWgt=          12          32          12           1           1           1           1
 AtmWgt=  12.0000000  31.9720718  12.0000000   1.0078250   1.0078250   1.0078250   1.0078250
 NucSpn=           0           0           0           1           1           1           1
 AtZEff=   3.6000000  13.6000000   3.6000000   1.0000000   1.0000000   1.0000000   1.0000000
 NQMom=    0.0000000   0.0000000   0.0000000   0.0000000   0.0000000   0.0000000   0.0000000
 NMagM=    0.0000000   0.0000000   0.0000000   2.7928460   2.7928460   2.7928460   2.7928460
 AtZNuc=   6.0000000  16.0000000   6.0000000   1.0000000   1.0000000   1.0000000   1.0000000
 Leave Link  101 at Tue Jan  3 09:08:07 2023, MaxMem=   536870912 cpu:               0.2 elap:               0.1
 (Enter /opt/software/gaussian/g16.c01/l103.exe)

 GradGradGradGradGradGradGradGradGradGradGradGradGradGradGradGradGradGrad
 Berny optimization.
 Initialization pass.
 Trust Radius=3.00D-01 FncErr=1.00D-07 GrdErr=1.00D-07 EigMax=2.50D+02 EigMin=1.00D-04
 Number of steps in this run=      2 maximum allowed number of steps=      2.
 GradGradGradGradGradGradGradGradGradGradGradGradGradGradGradGradGradGrad

 Leave Link  103 at Tue Jan  3 09:08:07 2023, MaxMem=   536870912 cpu:               0.1 elap:               0.0
 (Enter /opt/software/gaussian/g16.c01/l202.exe)
                          Input orientation:                          
 ---------------------------------------------------------------------
 Center     Atomic      Atomic             Coordinates (Angstroms)
 Number     Number       Type             X           Y           Z
 ---------------------------------------------------------------------
      1          6           0        0.983833   -0.032559    0.048858
      2         16           0        2.607130    0.099200    0.018798
      3          6           0        3.227323    0.736198   -1.346005
      4          1           0        0.570421   -0.457530    0.959745
      5          1           0        0.343807    0.278223   -0.775492
      6          1           0        2.615219    1.056484   -2.187742
      7          1           0        4.310457    0.823643   -1.365823
 ---------------------------------------------------------------------
                    Distance matrix (angstroms):
                    1          2          3          4          5
     1  C    0.000000
     2  S    1.628913   0.000000
     3  C    2.751341   1.628832   0.000000
     4  H    1.086841   2.311604   3.714915   0.000000
     5  H    1.088931   2.405323   2.974876   1.898350   0.000000
     6  H    2.974864   2.405260   1.088933   4.047234   2.785579
     7  H    3.714948   2.311562   1.086839   4.586670   4.047257
                    6          7
     6  H    0.000000
     7  H    1.898314   0.000000
 Symmetry turned off by external request.
 Stoichiometry    C2H4S
 Rotational constants (GHZ):          32.8865896           8.4327606           6.7117401
 Leave Link  202 at Tue Jan  3 09:08:07 2023, MaxMem=   536870912 cpu:               0.0 elap:               0.0
 (Enter /opt/software/gaussian/g16.c01/l301.exe)
 Basis read from chk: "0003_q000_m01_k00_force_uwb97xd_def2tzvpd.chk" (5D, 7F)
 No pseudopotential information found on chk file.
   156 basis functions,   239 primitive gaussians,   174 cartesian basis functions
    16 alpha electrons       16 beta electrons
       nuclear repulsion energy       100.3080120317 Hartrees.
 IExCor= 4639 DFT=T Ex+Corr=wB97XD ExCW=0 ScaHFX=  1.000000
 ScaDFX=  1.000000  1.000000  1.000000  1.000000 ScalE2=  1.000000  1.000000
 IRadAn=      5 IRanWt=     -1 IRanGd=            0 ICorTp=0 IEmpDi=121
 HFx  wShort=  0.000000 wLong=  0.200000 cFull=  0.222036 cShort=  0.000000 cLong=  0.777964
 DFx  wShort=  0.000000 wLong=  0.200000 cFull=  0.000000 cShort=  0.000000 cLong=  1.000000
 NAtoms=    7 NActive=    7 NUniq=    7 SFac= 1.00D+00 NAtFMM=   60 NAOKFM=F Big=F
 Integral buffers will be    131072 words long.
 Raffenetti 2 integral format.
 Two-electron integral symmetry is turned off.
 R6Disp:  Grimme-D2 Dispersion energy=       -0.0011997330 Hartrees.
 Nuclear repulsion after empirical dispersion term =      100.3068122987 Hartrees.
 No density basis found on file  20724.
 Leave Link  301 at Tue Jan  3 09:08:07 2023, MaxMem=   536870912 cpu:               0.1 elap:               0.1
 (Enter /opt/software/gaussian/g16.c01/l302.exe)
 NPDir=0 NMtPBC=     1 NCelOv=     1 NCel=       1 NClECP=     1 NCelD=      1
         NCelK=      1 NCelE2=     1 NClLst=     1 CellRange=     0.0.
 One-electron integrals computed using PRISM.
 NBasis=   156 RedAO= T EigKep=  4.53D-05  NBF=   156
 NBsUse=   156 1.00D-06 EigRej= -1.00D+00 NBFU=   156
 Precomputing XC quadrature grid using
 IXCGrd= 4 IRadAn=           5 IRanWt=          -1 IRanGd=           0 AccXCQ= 0.00D+00.
 Generated NRdTot=       0 NPtTot=           0 NUsed=           0 NTot=          32
 NSgBfM=   174   173   173   174   174 MxSgAt=     7 MxSgA2=     7.
 Leave Link  302 at Tue Jan  3 09:08:08 2023, MaxMem=   536870912 cpu:               0.3 elap:               0.2
 (Enter /opt/software/gaussian/g16.c01/l303.exe)
 DipDrv:  MaxL=1.
 Leave Link  303 at Tue Jan  3 09:08:08 2023, MaxMem=   536870912 cpu:               0.1 elap:               0.1
 (Enter /opt/software/gaussian/g16.c01/l401.exe)
 Initial guess from the checkpoint file:  "0003_q000_m01_k00_force_uwb97xd_def2tzvpd.chk"
 B after Tr=     0.000000    0.000000    0.000000
         Rot=    1.000000    0.000000    0.000000    0.000000 Ang=   0.00 deg.
 Guess basis will be translated and rotated to current coordinates.
 JPrj=2 DoOrth=T DoCkMO=T.
 Initial guess <Sx>= 0.0000 <Sy>= 0.0000 <Sz>= 0.0000 <S**2>=-0.0000 S=-0.0000
 Leave Link  401 at Tue Jan  3 09:08:08 2023, MaxMem=   536870912 cpu:               0.3 elap:               0.1
 (Enter /opt/software/gaussian/g16.c01/l502.exe)
 Keep R1 and R2 ints in memory in canonical form, NReq=304568618.
 FoFCou: FMM=F IPFlag=           0 FMFlag=           0 FMFlg1=           0
         NFxFlg=           0 DoJE=F BraDBF=F KetDBF=F FulRan=T
         wScrn=  0.000000 ICntrl=       600 IOpCl=  0 I1Cent=           0 NGrid=           0
         NMat0=    1 NMatS0=  12246 NMatT0=    0 NMatD0=    1 NMtDS0=    0 NMtDT0=    0
 Symmetry not used in FoFCou.
 Two-electron integral symmetry not used.
 UHF open shell SCF:
 Using DIIS extrapolation, IDIIS=  1040.
 NGot=   536870912 LenX=   236854392 LenY=   236823675
 Requested convergence on RMS density matrix=1.00D-08 within 128 cycles.
 Requested convergence on MAX density matrix=1.00D-06.
 Requested convergence on             energy=1.00D-06.
 No special actions if energy rises.

 Cycle   1  Pass 1  IDiag  1:
 E= -476.735315853174    
 DIIS: error= 4.64D-09 at cycle   1 NSaved=   1.
 NSaved= 1 IEnMin= 1 EnMin= -476.735315853174     IErMin= 1 ErrMin= 4.64D-09
 ErrMax= 4.64D-09  0.00D+00 EMaxC= 1.00D-01 BMatC= 2.31D-15 BMatP= 2.31D-15
 IDIUse=1 WtCom= 1.00D+00 WtEn= 0.00D+00
 Coeff-Com:  0.100D+01
 Coeff:      0.100D+01
 Gap=     0.284 Goal=   None    Shift=    0.000
 Gap=     0.284 Goal=   None    Shift=    0.000
 RMSDP=4.70D-10 MaxDP=1.52D-08              OVMax= 2.23D-08

 SCF Done:  E(UwB97XD) =  -476.735315853     A.U. after    1 cycles
            NFock=  1  Conv=0.47D-09     -V/T= 2.0025
 <Sx>= 0.0000 <Sy>= 0.0000 <Sz>= 0.0000 <S**2>=-0.0000 S=-0.0000
 <L.S>=  0.00000000000    
 KE= 4.755459144984D+02 PE=-1.328854565041D+03 EE= 2.762665223905D+02
 Annihilation of the first spin contaminant:
 S**2 before annihilation    -0.0000,   after    -0.0000
 Leave Link  502 at Tue Jan  3 09:08:15 2023, MaxMem=   536870912 cpu:              15.3 elap:               7.7
 (Enter /opt/software/gaussian/g16.c01/l508.exe)
 QCSCF skips out because SCF is already converged.
 Leave Link  508 at Tue Jan  3 09:08:16 2023, MaxMem=   536870912 cpu:               0.0 elap:               0.0
 (Enter /opt/software/gaussian/g16.c01/l601.exe)
 Copying SCF densities to generalized density rwf, IOpCl= 1 IROHF=0.

 **********************************************************************

            Population analysis using the SCF Density.

 **********************************************************************

 Alpha  occ. eigenvalues --  -89.08699 -10.29854 -10.29852  -8.11553  -6.06175
 Alpha  occ. eigenvalues --   -6.06132  -6.05799  -0.95027  -0.79465  -0.66473
 Alpha  occ. eigenvalues --   -0.55785  -0.54653  -0.48711  -0.44642  -0.41570
 Alpha  occ. eigenvalues --   -0.27434
 Alpha virt. eigenvalues --    0.01015   0.06203   0.06672   0.07620   0.08651
 Alpha virt. eigenvalues --    0.12016   0.12915   0.13726   0.14461   0.16811
 Alpha virt. eigenvalues --    0.18810   0.20429   0.20570   0.22008   0.23105
 Alpha virt. eigenvalues --    0.23866   0.26138   0.26228   0.26897   0.26933
 Alpha virt. eigenvalues --    0.29244   0.31091   0.32115   0.33319   0.35540
 Alpha virt. eigenvalues --    0.36054   0.36293   0.36544   0.36780   0.39421
 Alpha virt. eigenvalues --    0.40156   0.42061   0.42734   0.43061   0.44705
 Alpha virt. eigenvalues --    0.45104   0.45641   0.46892   0.49069   0.51606
 Alpha virt. eigenvalues --    0.52410   0.54867   0.56902   0.57721   0.58668
 Alpha virt. eigenvalues --    0.59766   0.60243   0.61919   0.65836   0.69058
 Alpha virt. eigenvalues --    0.69270   0.71903   0.75615   0.77108   0.77179
 Alpha virt. eigenvalues --    0.78181   0.80059   0.83227   0.89577   0.91616
 Alpha virt. eigenvalues --    0.92505   0.99215   1.04036   1.06328   1.06919
 Alpha virt. eigenvalues --    1.15853   1.19330   1.20308   1.23339   1.27960
 Alpha virt. eigenvalues --    1.31747   1.62700   1.64433   1.65701   1.67418
 Alpha virt. eigenvalues --    1.70087   1.70835   1.71491   1.74867   1.78919
 Alpha virt. eigenvalues --    1.81084   1.85694   1.91837   1.92740   1.93871
 Alpha virt. eigenvalues --    1.95545   1.95618   1.97032   2.02573   2.03739
 Alpha virt. eigenvalues --    2.08412   2.16101   2.18353   2.20368   2.21498
 Alpha virt. eigenvalues --    2.28056   2.28735   2.30482   2.48388   2.49376
 Alpha virt. eigenvalues --    2.57980   2.60818   2.65973   2.73854   2.77010
 Alpha virt. eigenvalues --    2.81539   2.86809   2.89014   2.92197   2.99861
 Alpha virt. eigenvalues --    3.15323   3.19640   3.20085   3.22483   3.25770
 Alpha virt. eigenvalues --    3.28678   3.29866   3.40419   3.40989   3.46594
 Alpha virt. eigenvalues --    3.49637   3.50158   3.57412   3.57889   3.64169
 Alpha virt. eigenvalues --    3.72426   3.78020   3.80120   3.96321   4.01973
 Alpha virt. eigenvalues --    4.29566   4.31542   4.69193   4.70649   9.04796
 Alpha virt. eigenvalues --    9.34006   9.68880  20.82865  22.32730  22.37395
  Beta  occ. eigenvalues --  -89.08699 -10.29854 -10.29852  -8.11553  -6.06175
  Beta  occ. eigenvalues --   -6.06132  -6.05799  -0.95027  -0.79465  -0.66473
  Beta  occ. eigenvalues --   -0.55785  -0.54653  -0.48711  -0.44642  -0.41570
  Beta  occ. eigenvalues --   -0.27434
  Beta virt. eigenvalues --    0.01015   0.06203   0.06672   0.07620   0.08651
  Beta virt. eigenvalues --    0.12016   0.12915   0.13726   0.14461   0.16811
  Beta virt. eigenvalues --    0.18810   0.20429   0.20570   0.22008   0.23105
  Beta virt. eigenvalues --    0.23866   0.26138   0.26228   0.26897   0.26933
  Beta virt. eigenvalues --    0.29244   0.31091   0.32115   0.33319   0.35540
  Beta virt. eigenvalues --    0.36054   0.36293   0.36544   0.36780   0.39421
  Beta virt. eigenvalues --    0.40156   0.42061   0.42734   0.43061   0.44705
  Beta virt. eigenvalues --    0.45104   0.45641   0.46892   0.49069   0.51606
  Beta virt. eigenvalues --    0.52410   0.54867   0.56902   0.57721   0.58668
  Beta virt. eigenvalues --    0.59766   0.60243   0.61919   0.65836   0.69058
  Beta virt. eigenvalues --    0.69270   0.71903   0.75615   0.77108   0.77179
  Beta virt. eigenvalues --    0.78181   0.80059   0.83227   0.89577   0.91616
  Beta virt. eigenvalues --    0.92505   0.99215   1.04036   1.06328   1.06919
  Beta virt. eigenvalues --    1.15853   1.19330   1.20308   1.23339   1.27960
  Beta virt. eigenvalues --    1.31747   1.62700   1.64433   1.65701   1.67418
  Beta virt. eigenvalues --    1.70087   1.70835   1.71491   1.74867   1.78919
  Beta virt. eigenvalues --    1.81084   1.85694   1.91837   1.92740   1.93871
  Beta virt. eigenvalues --    1.95545   1.95618   1.97032   2.02573   2.03739
  Beta virt. eigenvalues --    2.08412   2.16101   2.18353   2.20368   2.21498
  Beta virt. eigenvalues --    2.28056   2.28735   2.30482   2.48388   2.49376
  Beta virt. eigenvalues --    2.57980   2.60818   2.65973   2.73854   2.77010
  Beta virt. eigenvalues --    2.81539   2.86809   2.89014   2.92197   2.99861
  Beta virt. eigenvalues --    3.15323   3.19640   3.20085   3.22483   3.25770
  Beta virt. eigenvalues --    3.28678   3.29866   3.40419   3.40989   3.46594
  Beta virt. eigenvalues --    3.49637   3.50158   3.57412   3.57889   3.64169
  Beta virt. eigenvalues --    3.72426   3.78020   3.80120   3.96321   4.01973
  Beta virt. eigenvalues --    4.29566   4.31542   4.69193   4.70649   9.04796
  Beta virt. eigenvalues --    9.34006   9.68880  20.82865  22.32730  22.37395
          Condensed to atoms (all electrons):
               1          2          3          4          5          6
     1  C    5.686428   0.324321  -0.049821   0.364129   0.363272   0.001003
     2  S    0.324321  15.290271   0.324293  -0.025846  -0.004238  -0.004249
     3  C   -0.049821   0.324293   5.686398   0.000911   0.000999   0.363267
     4  H    0.364129  -0.025846   0.000911   0.330805   0.005689  -0.000189
     5  H    0.363272  -0.004238   0.000999   0.005689   0.329053   0.000553
     6  H    0.001003  -0.004249   0.363267  -0.000189   0.000553   0.329055
     7  H    0.000912  -0.025858   0.364131  -0.000189  -0.000190   0.005690
               7
     1  C    0.000912
     2  S   -0.025858
     3  C    0.364131
     4  H   -0.000189
     5  H   -0.000190
     6  H    0.005690
     7  H    0.330810
          Atomic-Atomic Spin Densities.
               1          2          3          4          5          6
     1  C    0.000000   0.000000   0.000000   0.000000   0.000000   0.000000
     2  S    0.000000   0.000000   0.000000   0.000000   0.000000   0.000000
     3  C    0.000000   0.000000   0.000000   0.000000   0.000000   0.000000
     4  H    0.000000   0.000000   0.000000   0.000000   0.000000   0.000000
     5  H    0.000000   0.000000   0.000000   0.000000   0.000000   0.000000
     6  H    0.000000   0.000000   0.000000   0.000000   0.000000   0.000000
     7  H    0.000000   0.000000   0.000000   0.000000   0.000000   0.000000
               7
     1  C    0.000000
     2  S    0.000000
     3  C    0.000000
     4  H    0.000000
     5  H    0.000000
     6  H    0.000000
     7  H    0.000000
 Mulliken charges and spin densities:
               1          2
     1  C   -0.690244   0.000000
     2  S    0.121305   0.000000
     3  C   -0.690178   0.000000
     4  H    0.324690   0.000000
     5  H    0.304861   0.000000
     6  H    0.304871   0.000000
     7  H    0.324694   0.000000
 Sum of Mulliken charges =  -0.00000   0.00000
 Mulliken charges and spin densities with hydrogens summed into heavy atoms:
               1          2
     1  C   -0.060693   0.000000
     2  S    0.121305   0.000000
     3  C   -0.060613   0.000000
[...]
    48    S    2  px     Ryd( 6p)     0.00001       2.25486
    49    S    2  px     Ryd( 7p)     0.00000       8.10851
    50    S    2  py     Cor( 2p)     0.99988      -6.05301
    51    S    2  py     Val( 3p)     0.61935      -0.26143
    52    S    2  py     Ryd( 5p)     0.00051       0.73912
    53    S    2  py     Ryd( 4p)     0.00000       0.61189
    54    S    2  py     Ryd( 6p)     0.00000       2.01587
    55    S    2  py     Ryd( 7p)     0.00000       8.47247
    56    S    2  pz     Cor( 2p)     0.99989      -6.04922
    57    S    2  pz     Val( 3p)     0.64461      -0.24227
    58    S    2  pz     Ryd( 5p)     0.00182       0.89474
    59    S    2  pz     Ryd( 4p)     0.00003       0.67275
    60    S    2  pz     Ryd( 6p)     0.00001       2.19567
    61    S    2  pz     Ryd( 7p)     0.00000       8.26913
    62    S    2  dxy    Ryd( 4d)     0.01223       0.69754
    63    S    2  dxy    Ryd( 3d)     0.00009       0.52654
    64    S    2  dxy    Ryd( 5d)     0.00001       1.72648
    65    S    2  dxz    Ryd( 4d)     0.00484       0.88321
    66    S    2  dxz    Ryd( 3d)     0.00016       0.67019
    67    S    2  dxz    Ryd( 5d)     0.00002       1.97942
    68    S    2  dyz    Ryd( 4d)     0.00573       0.73177
    69    S    2  dyz    Ryd( 3d)     0.00009       0.56946
    70    S    2  dyz    Ryd( 5d)     0.00001       1.84039
    71    S    2  dx2y2  Ryd( 4d)     0.00710       0.90616
    72    S    2  dx2y2  Ryd( 3d)     0.00008       0.69086
    73    S    2  dx2y2  Ryd( 5d)     0.00002       1.98503
    74    S    2  dz2    Ryd( 4d)     0.00703       0.88102
    75    S    2  dz2    Ryd( 3d)     0.00008       0.60524
    76    S    2  dz2    Ryd( 5d)     0.00002       2.03359
    77    S    2  f(0)   Ryd( 4f)     0.00012       2.35281
    78    S    2  f(C1)  Ryd( 4f)     0.00016       2.39802
    79    S    2  f(S1)  Ryd( 4f)     0.00016       2.25312
    80    S    2  f(C2)  Ryd( 4f)     0.00008       2.37167
    81    S    2  f(S2)  Ryd( 4f)     0.00010       2.20675
    82    S    2  f(C3)  Ryd( 4f)     0.00021       2.34416
    83    S    2  f(S3)  Ryd( 4f)     0.00014       2.31120
 
    84    C    3  S      Cor( 1S)     0.99979     -10.18704
    85    C    3  S      Val( 2S)     0.58335      -0.39190
    86    C    3  S      Ryd( 3S)     0.00114       0.96011
    87    C    3  S      Ryd( 5S)     0.00011       1.65241
    88    C    3  S      Ryd( 4S)     0.00006       1.38652
    89    C    3  S      Ryd( 6S)     0.00000      21.21793
    90    C    3  px     Val( 2p)     0.60740      -0.14295
    91    C    3  px     Ryd( 3p)     0.00089       1.06413
    92    C    3  px     Ryd( 4p)     0.00002       1.79233
    93    C    3  py     Val( 2p)     0.64793      -0.19099
    94    C    3  py     Ryd( 3p)     0.00248       0.87284
    95    C    3  py     Ryd( 4p)     0.00002       1.15868
    96    C    3  pz     Val( 2p)     0.56626      -0.16766
    97    C    3  pz     Ryd( 3p)     0.00175       1.09561
    98    C    3  pz     Ryd( 4p)     0.00008       1.38187
    99    C    3  dxy    Ryd( 4d)     0.00036       1.06822
   100    C    3  dxy    Ryd( 3d)     0.00002       0.72750
   101    C    3  dxy    Ryd( 5d)     0.00001       3.00969
   102    C    3  dxz    Ryd( 4d)     0.00166       1.37582
   103    C    3  dxz    Ryd( 3d)     0.00004       0.89525
   104    C    3  dxz    Ryd( 5d)     0.00003       3.14965
   105    C    3  dyz    Ryd( 4d)     0.00164       1.24762
   106    C    3  dyz    Ryd( 3d)     0.00011       0.67262
   107    C    3  dyz    Ryd( 5d)     0.00004       3.10330
   108    C    3  dx2y2  Ryd( 4d)     0.00126       1.19064
   109    C    3  dx2y2  Ryd( 3d)     0.00007       0.88610
   110    C    3  dx2y2  Ryd( 5d)     0.00003       3.18586
   111    C    3  dz2    Ryd( 4d)     0.00176       1.32632
   112    C    3  dz2    Ryd( 3d)     0.00006       0.73181
   113    C    3  dz2    Ryd( 5d)     0.00004       3.12338
   114    C    3  f(0)   Ryd( 4f)     0.00004       3.35646
   115    C    3  f(C1)  Ryd( 4f)     0.00007       3.73315
   116    C    3  f(S1)  Ryd( 4f)     0.00007       3.48254
   117    C    3  f(C2)  Ryd( 4f)     0.00006       3.35729
   118    C    3  f(S2)  Ryd( 4f)     0.00005       3.38304
   119    C    3  f(C3)  Ryd( 4f)     0.00010       3.34711
   120    C    3  f(S3)  Ryd( 4f)     0.00002       3.14331
 
   121    H    4  S      Val( 1S)     0.38141       0.03639
   122    H    4  S      Ryd( 2S)     0.00021       1.33476
   123    H    4  S      Ryd( 3S)     0.00003       1.46644
   124    H    4  px     Ryd( 2p)     0.00017       0.61240
   125    H    4  px     Ryd( 3p)     0.00002       2.38433
   126    H    4  py     Ryd( 2p)     0.00115       0.48954
   127    H    4  py     Ryd( 3p)     0.00005       2.25126
   128    H    4  pz     Ryd( 2p)     0.00055       0.60053
   129    H    4  pz     Ryd( 3p)     0.00008       2.75829
 
   130    H    5  S      Val( 1S)     0.38725       0.03210
   131    H    5  S      Ryd( 3S)     0.00046       1.48646
   132    H    5  S      Ryd( 2S)     0.00003       1.26318
   133    H    5  px     Ryd( 2p)     0.00021       0.63710
   134    H    5  px     Ryd( 3p)     0.00004       2.56569
   135    H    5  py     Ryd( 2p)     0.00056       0.49726
   136    H    5  py     Ryd( 3p)     0.00004       2.22683
   137    H    5  pz     Ryd( 2p)     0.00046       0.65261
   138    H    5  pz     Ryd( 3p)     0.00006       2.66564
 
   139    H    6  S      Val( 1S)     0.38725       0.03210
   140    H    6  S      Ryd( 3S)     0.00046       1.48654
   141    H    6  S      Ryd( 2S)     0.00003       1.26317
   142    H    6  px     Ryd( 2p)     0.00030       0.66995
   143    H    6  px     Ryd( 3p)     0.00003       2.47724
   144    H    6  py     Ryd( 2p)     0.00055       0.49157
   145    H    6  py     Ryd( 3p)     0.00004       2.24205
   146    H    6  pz     Ryd( 2p)     0.00038       0.62541
   147    H    6  pz     Ryd( 3p)     0.00006       2.73886
 
   148    H    7  S      Val( 1S)     0.38141       0.03638
   149    H    7  S      Ryd( 2S)     0.00021       1.33479
   150    H    7  S      Ryd( 3S)     0.00003       1.46645
   151    H    7  px     Ryd( 2p)     0.00047       0.66232
   152    H    7  px     Ryd( 3p)     0.00010       3.03315
   153    H    7  py     Ryd( 2p)     0.00110       0.48091
   154    H    7  py     Ryd( 3p)     0.00003       2.13930
   155    H    7  pz     Ryd( 2p)     0.00031       0.55921
   156    H    7  pz     Ryd( 3p)     0.00001       2.22143

 WARNING:  Population inversion found on atom  C    1
           Population inversion found on atom  S    2
           Population inversion found on atom  C    3
           Population inversion found on atom  H    5
           Population inversion found on atom  H    6


 Summary of Natural Population Analysis:                  
                                                          
                                       Natural Population 
                Natural  -----------------------------------------------
    Atom  No    Charge         Core      Valence    Rydberg      Total
 -----------------------------------------------------------------------
      C    1   -0.41883      0.99979     2.40494    0.01410     3.41883
      S    2    0.38322      4.99920     2.56770    0.04988     7.61678
      C    3   -0.41884      0.99979     2.40494    0.01411     3.41884
      H    4    0.11633      0.00000     0.38141    0.00226     0.38367
      H    5    0.11090      0.00000     0.38725    0.00185     0.38910
      H    6    0.11090      0.00000     0.38725    0.00185     0.38910
      H    7    0.11633      0.00000     0.38141    0.00226     0.38367
 =======================================================================
   * Total *    0.00000      6.99877     8.91490    0.08632    16.00000

                                 Natural Population      
 --------------------------------------------------------
   Core                       6.99877 ( 99.9825% of   7)
   Valence                    8.91490 ( 99.0545% of   9)
   Natural Minimal Basis     15.91368 ( 99.4605% of  16)
   Natural Rydberg Basis      0.08632 (  0.5395% of  16)
 --------------------------------------------------------

    Atom  No          Natural Electron Configuration
 ----------------------------------------------------------------------------
      C    1      [core]2S( 0.58)2p( 1.82)3p( 0.01)4d( 0.01)
      S    2      [core]3S( 0.76)3p( 1.81)4S( 0.01)4d( 0.04)
      C    3      [core]2S( 0.58)2p( 1.82)3p( 0.01)4d( 0.01)
      H    4            1S( 0.38)
      H    5            1S( 0.39)
      H    6            1S( 0.39)
      H    7            1S( 0.38)


 NBO analysis skipped by request.
 Leave Link  607 at Tue Jan  3 09:08:18 2023, MaxMem=   536870912 cpu:               3.6 elap:               1.8
 (Enter /opt/software/gaussian/g16.c01/l701.exe)
 ... and contract with generalized density number  0.
 Compute integral first derivatives.
 R6Disp: Adding Grimme-D2 dispersion energy 1st derivatives to the gradient.
 Leave Link  701 at Tue Jan  3 09:08:19 2023, MaxMem=   536870912 cpu:               0.4 elap:               0.2
 (Enter /opt/software/gaussian/g16.c01/l702.exe)
 L702 exits ... SP integral derivatives will be done elsewhere.
 Leave Link  702 at Tue Jan  3 09:08:19 2023, MaxMem=   536870912 cpu:               0.1 elap:               0.1
 (Enter /opt/software/gaussian/g16.c01/l703.exe)
 Integral derivatives from FoFJK, PRISM(SPDF).
 Compute integral first derivatives, UseDBF=F ICtDFT=           0.
 Calling FoFJK, ICntrl=      2127 FMM=F ISym2X=0 I1Cent= 0 IOpClX= 1 NMat=1 NMatS=1 NMatT=0.
 FoFJK:  IHMeth= 1 ICntrl=    2127 DoSepK=T KAlg= 0 I1Cent=           0 FoldK=F
 IRaf=         1 NMat=       1 IRICut=       1 DoRegI=T DoRafI=F ISym2E= 0 IDoP0=0 IntGTp=1.
 FoFCou: FMM=F IPFlag=           0 FMFlag=      100000 FMFlg1=         800
         NFxFlg=           0 DoJE=F BraDBF=F KetDBF=F FulRan=T
         wScrn=  0.000000 ICntrl=      2527 IOpCl=  0 I1Cent=           0 NGrid=           0
         NMat0=    1 NMatS0=      1 NMatT0=    0 NMatD0=    1 NMtDS0=    0 NMtDT0=    0
 Symmetry not used in FoFCou.
 Leave Link  703 at Tue Jan  3 09:08:35 2023, MaxMem=   536870912 cpu:              31.1 elap:              15.5
 (Enter /opt/software/gaussian/g16.c01/l716.exe)
 Dipole        =-7.29019898D-02 3.68484088D-02-9.71788915D-02
 -------------------------------------------------------------------
 Center     Atomic                   Forces (Hartrees/Bohr)
 Number     Number              X              Y              Z
 -------------------------------------------------------------------
      1        6           0.005370867    0.000496487   -0.000235938
      2       16          -0.006813013    0.003423074   -0.009044901
      3        6          -0.002186917   -0.002086734    0.004452475
      4        1           0.002364284    0.002451209   -0.005252155
      5        1           0.003672094   -0.001923569    0.005039717
      6        1           0.003832984   -0.001866574    0.004940479
      7        1          -0.006240298   -0.000493893    0.000100324
 -------------------------------------------------------------------
 Cartesian Forces:  Max     0.009044901 RMS     0.004149589
 Z-matrix is all fixed cartesians, so copy forces.
 Force constants in Cartesian coordinates: 
                1             2             3             4             5 
      1  0.799457D+00
      2  0.386953D-01  0.202300D+00
      3  0.262318D-01 -0.197489D+00  0.573805D+00
      4 -0.458605D+00 -0.232735D-01 -0.165583D-01  0.577555D+00
      5 -0.320482D-01 -0.525335D-01  0.183029D-01  0.867656D-01  0.122175D+00
      6  0.365769D-02  0.197847D-01 -0.872720D-01 -0.110154D+00 -0.165608D+00
      7  0.122699D-02 -0.100692D-01  0.221250D-01 -0.139616D+00 -0.489763D-01
      8 -0.597775D-03  0.748286D-02  0.517705D-03 -0.577409D-01 -0.107626D+00
      9  0.278568D-03 -0.108316D-02  0.102956D-01  0.116790D+00  0.142526D+00
     10 -0.144909D+00 -0.441803D-01  0.836168D-01  0.115252D-02 -0.932375D-02
     11 -0.404522D-01 -0.846163D-01  0.105218D+00 -0.241587D-03  0.264194D-02
     12  0.750267D-01  0.104603D+00 -0.264763D+00  0.410365D-03 -0.299905D-02
     13 -0.197168D+00  0.388020D-01 -0.115426D+00 -0.916549D-03  0.691836D-02
     14  0.343779D-01 -0.722913D-01  0.735979D-01 -0.146773D-02  0.180903D-01
     15 -0.105206D+00  0.743316D-01 -0.232001D+00  0.158269D-03  0.144866D-02
     16 -0.246017D-04  0.336366D-03  0.145813D-03  0.192862D-01 -0.309494D-02
     17  0.337132D-03 -0.460942D-02 -0.199817D-02  0.528610D-02  0.146053D-01
     18  0.146171D-03 -0.199852D-02 -0.866351D-03 -0.120134D-01  0.780803D-02
     19  0.227250D-04 -0.310706D-03 -0.134690D-03  0.114404D-02 -0.240739D-03
     20 -0.312161D-03  0.426801D-02  0.185017D-02 -0.932793D-02  0.264671D-02
     21 -0.135369D-03  0.185083D-02  0.802328D-03  0.213670D-01 -0.147893D-02
                6             7             8             9            10 
      6  0.407473D+00
      7  0.965700D-01  0.667382D+00
      8  0.141042D+00  0.492959D-01  0.225135D+00
      9 -0.351317D+00 -0.206782D-01 -0.248346D+00  0.683203D+00
     10  0.213707D-01  0.228255D-04 -0.312081D-03 -0.135286D-03  0.115530D+00
     11 -0.146606D-02 -0.312069D-03  0.426675D-02  0.184962D-02  0.445604D-01
     12  0.901525D-02 -0.135235D-03  0.184900D-02  0.801534D-03 -0.864441D-01
     13 -0.191712D-01 -0.246447D-04  0.336954D-03  0.146068D-03  0.282041D-01
     14  0.324183D-04  0.336979D-03 -0.460733D-02 -0.199726D-02  0.925576D-02
     15  0.148968D-01  0.146176D-03 -0.199858D-02 -0.866379D-03 -0.184082D-01
     16  0.731953D-02 -0.179623D+00  0.329496D-01 -0.989913D-01  0.000000D+00
     17  0.921888D-02  0.373763D-01 -0.753070D-01  0.810589D-01  0.000000D+00
     18 -0.181486D-02 -0.109211D+00  0.803191D-01 -0.246533D+00  0.000000D+00
     19  0.407512D-03 -0.349368D+00 -0.239317D-01  0.258983D-02  0.000000D+00
     20 -0.300348D-02 -0.276515D-01 -0.493443D-01  0.259912D-01  0.000000D+00
     21  0.901933D-02  0.111835D-01  0.266169D-01 -0.955832D-01  0.000000D+00
               11            12            13            14            15 
     11  0.698063D-01
     12 -0.111340D+00  0.260624D+00
     13 -0.355446D-02  0.111423D-01  0.169905D+00
     14  0.790132D-02  0.788712D-02 -0.425029D-01  0.509070D-01
     15  0.573850D-02 -0.567740D-02  0.123309D+00 -0.795202D-01  0.223648D+00
     16  0.000000D+00  0.000000D+00  0.000000D+00  0.000000D+00  0.000000D+00
     17  0.000000D+00  0.000000D+00  0.000000D+00  0.000000D+00  0.000000D+00
     18  0.000000D+00  0.000000D+00  0.000000D+00  0.000000D+00  0.000000D+00
     19  0.000000D+00  0.000000D+00  0.000000D+00  0.000000D+00  0.000000D+00
     20  0.000000D+00  0.000000D+00  0.000000D+00  0.000000D+00  0.000000D+00
     21  0.000000D+00  0.000000D+00  0.000000D+00  0.000000D+00  0.000000D+00
               16            17            18            19            20 
     16  0.161831D+00
     17 -0.418445D-01  0.522901D-01
     18  0.120449D+00 -0.826089D-01  0.230340D+00
     19 -0.147004D-02 -0.115499D-02  0.629518D-03  0.349671D+00
     20  0.116534D-01  0.130211D-01 -0.351969D-02  0.256381D-01  0.294086D-01
     21 -0.289230D-01 -0.567069D-02  0.188748D-01 -0.349217D-02 -0.213182D-01
               21 
     21  0.668867D-01
 Leave Link  716 at Tue Jan  3 09:08:35 2023, MaxMem=   536870912 cpu:               0.1 elap:               0.1
 (Enter /opt/software/gaussian/g16.c01/l103.exe)

 GradGradGradGradGradGradGradGradGradGradGradGradGradGradGradGradGradGrad
 Berny optimization.
 Search for a local minimum.
 Step number   1 out of a maximum of    2
 All quantities printed in internal units (Hartrees-Bohrs-Radians)
 Second derivative matrix not updated -- first step.
 ITU=  0
     Eigenvalues ---    0.00860   0.01482   0.01804   0.07108   0.07556
     Eigenvalues ---    0.11270   0.14823   0.15345   0.17618   0.32617
     Eigenvalues ---    0.36576   0.82416   0.92900   1.11635   1.31988
 Angle between quadratic step and forces=  43.84 degrees.
 Linear search not attempted -- first point.
 B after Tr=    -0.001750    0.000883   -0.002321
         Rot=    1.000000   -0.000013   -0.000004    0.000008 Ang=  -0.00 deg.
 Variable       Old X    -DE/DX   Delta X   Delta X   Delta X     New X
                                 (Linear)    (Quad)   (Total)
    X1        1.85917   0.00537   0.00000   0.01945   0.01770   1.87687
    Y1       -0.06153   0.00050   0.00000   0.00566   0.00651  -0.05502
    Z1        0.09233  -0.00024   0.00000  -0.00974  -0.01208   0.08025
    X2        4.92676  -0.00681   0.00000  -0.00524  -0.00699   4.91977
    Y2        0.18746   0.00342   0.00000   0.00256   0.00336   0.19082
    Z2        0.03552  -0.00904   0.00000  -0.00700  -0.00935   0.02617
    X3        6.09876  -0.00219   0.00000  -0.01705  -0.01880   6.07995
    Y3        1.39121  -0.00209   0.00000  -0.00683  -0.00597   1.38524
    Z3       -2.54358   0.00445   0.00000   0.01293   0.01059  -2.53299
    X4        1.07794   0.00236   0.00000   0.02598   0.02424   1.10218
    Y4       -0.86461   0.00245   0.00000   0.01281   0.01363  -0.85098
    Z4        1.81365  -0.00525   0.00000  -0.02467  -0.02702   1.78663
    X5        0.64970   0.00367   0.00000   0.02906   0.02731   0.67701
    Y5        0.52577  -0.00192   0.00000  -0.00023   0.00068   0.52644
    Z5       -1.46547   0.00504   0.00000   0.00523   0.00292  -1.46255
    X6        4.94205   0.00383   0.00000  -0.00514  -0.00689   4.93515
    Y6        1.99647  -0.00187   0.00000  -0.01188  -0.01097   1.98550
    Z6       -4.13423   0.00494   0.00000   0.02650   0.02418  -4.11005
    X7        8.14558  -0.00624   0.00000  -0.03480  -0.03655   8.10903
    Y7        1.55646  -0.00049   0.00000  -0.00807  -0.00725   1.54921
    Z7       -2.58103   0.00010   0.00000   0.01311   0.01076  -2.57027
         Item               Value     Threshold  Converged?
 Maximum Force            0.009045     0.000450     NO 
 RMS     Force            0.004150     0.000300     NO 
 Maximum Displacement     0.036553     0.001800     NO 
 RMS     Displacement     0.016425     0.001200     NO 
 Predicted change in Energy=-5.191152D-04
 GradGradGradGradGradGradGradGradGradGradGradGradGradGradGradGradGradGrad

 Leave Link  103 at Tue Jan  3 09:08:35 2023, MaxMem=   536870912 cpu:               0.0 elap:               0.0
 (Enter /opt/software/gaussian/g16.c01/l9999.exe)
 Unable to Open any file for archive entry.
 1\1\GINC-GRA738\Force\UwB97XD\Gen\C2H4S1\BHAVUK\03-Jan-2023\0\\#p uwb9
 7xd/chkbasis force guess=read geom=check scf=(maxcycle=900,verytightli
 neq,xqc) integral=grid=ultrafine symmetry=None density=current pop=(cm
 5,hlygat,mbs,npa) output=wfx\\0003_q000_m01_k00_opt_uwb97xd_def2svpd/0
 003_q000_m01_k00_force_uwb97xd_def2tzvpd stable-force\\0,1\C,0.9838325
 225,-0.0325586033,0.0488580178\S,2.6071301422,0.0991997065,0.018798445
 1\C,3.2273228911,0.736197977,-1.3460048506\H,0.570421034,-0.4575297175
 ,0.9597448627\H,0.3438072589,0.2782232167,-0.7754915598\H,2.615218944,
 1.0564841772,-2.1877415072\H,4.3104572053,0.8236432464,-1.365823405\\V
 ersion=ES64L-G16RevC.01\HF=-476.7353159\S2=0.\S2-1=0.\S2A=0.\RMSD=4.70
 4e-10\RMSF=4.150e-03\Dipole=-0.072902,0.0368484,-0.0971789\Quadrupole=
 0.7390645,-1.6551514,0.9160869,0.3726183,-0.3258671,-1.3943363\PG=Unkn
 own\\@
 The archive entry for this job was punched.

 Writing a WFNX file to "0003_q000_m01_k00_force_uwb97xd_def2tzvpd.wfx"


 The number of Unix installations has grown to 10,
  with more expected.
                  -- The Unix Programmer's Manual,
                     2nd Edition, June, 1972.
 Job cpu time:       0 days  0 hours  0 minutes 54.6 seconds.
 Elapsed time:       0 days  0 hours  0 minutes 27.1 seconds.
 File lengths (MBytes):  RWF=     21 Int=      0 D2E=      0 Chk=      5 Scr=      1
 Normal termination of Gaussian 16 at Tue Jan  3 09:08:35 2023.
