 Entering Gaussian System, Link 0=g16
 Input=0003_q000_m01_k00_force_ub3lyp_def2svpd.com
 Output=0003_q000_m01_k00_force_ub3lyp_def2svpd.log
 Initial command:
 /opt/software/gaussian/g16.c01/l1.exe "/localscratch/bhavuk.2151376.0/Gau-20900.inp" -scrdir="/localscratch/bhavuk.2151376.0/"
 Entering Link 1 = /opt/software/gaussian/g16.c01/l1.exe PID=     20901.
  
 Copyright (c) 1988-2019, Gaussian, Inc.  All Rights Reserved.
  
 This is part of the Gaussian(R) 16 program.  It is based on
 the Gaussian(R) 09 system (copyright 2009, Gaussian, Inc.),
 the Gaussian(R) 03 system (copyright 2003, Gaussian, Inc.),
 the Gaussian(R) 98 system (copyright 1998, Gaussian, Inc.),
 the Gaussian(R) 94 system (copyright 1995, Gaussian, Inc.),
 the Gaussian 92(TM) system (copyright 1992, Gaussian, Inc.),
 the Gaussian 90(TM) system (copyright 1990, Gaussian, Inc.),
 the Gaussian 88(TM) system (copyright 1988, Gaussian, Inc.),
 the Gaussian 86(TM) system (copyright 1986, Carnegie Mellon
 University), and the Gaussian 82(TM) system (copyright 1983,
 Carnegie Mellon University). Gaussian is a federally registered
 trademark of Gaussian, Inc.
  
 This software contains proprietary and confidential information,
 including trade secrets, belonging to Gaussian, Inc.
  
 This software is provided under written license and may be
 used, copied, transmitted, or stored only in accord with that
 written license.
  
 The following legend is applicable only to US Government
 contracts under FAR:
  
                    RESTRICTED RIGHTS LEGEND
  
 Use, reproduction and disclosure by the US Government is
 subject to restrictions as set forth in subparagraphs (a)
 and (c) of the Commercial Computer Software - Restricted
 Rights clause in FAR 52.227-19.
  
 Gaussian, Inc.
 340 Quinnipiac St., Bldg. 40, Wallingford CT 06492
  
  
 ---------------------------------------------------------------
 Warning -- This program may not be used in any manner that
 competes with the business of Gaussian, Inc. or will provide
 assistance to any competitor of Gaussian, Inc.  The licensee
 of this program is prohibited from giving any competitor of
 Gaussian, Inc. access to this program.  By using this program,
 the user acknowledges that Gaussian, Inc. is engaged in the
 business of creating and licensing software in the field of
 computational chemistry and represents and warrants to the
 licensee that it is not a competitor of Gaussian, Inc. and that
 it will not use this program in any manner prohibited above.
 ---------------------------------------------------------------
  

 Cite this work as:
 Gaussian 16, Revision C.01,
 M. J. Frisch, G. W. Trucks, H. B. Schlegel, G. E. Scuseria, 
 M. A. Robb, J. R. Cheeseman, G. Scalmani, V. Barone, 
 G. A. Petersson, H. Nakatsuji, X. Li, M. Caricato, A. V. Marenich, 
 J. Bloino, B. G. Janesko, R. Gomperts, B. Mennucci, H. P. Hratchian, 
 J. V. Ortiz, A. F. Izmaylov, J. L. Sonnenberg, D. Williams-Young, 
 F. Ding, F. Lipparini, F. Egidi, J. Goings, B. Peng, A. Petrone, 
 T. Henderson, D. Ranasinghe, V. G. Zakrzewski, J. Gao, N. Rega, 
 G. Zheng, W. Liang, M. Hada, M. Ehara, K. Toyota, R. Fukuda, 
 J. Hasegawa, M. Ishida, T. Nakajima, Y. Honda, O. Kitao, H. Nakai, 
 T. Vreven, K. Throssell, J. A. Montgomery, Jr., J. E. Peralta, 
 F. Ogliaro, M. J. Bearpark, J. J. Heyd, E. N. Brothers, K. N. Kudin, 
 V. N. Staroverov, T. A. Keith, R. Kobayashi, J. Normand, 
 K. Raghavachari, A. P. Rendell, J. C. Burant, S. S. Iyengar, 
 J. Tomasi, M. Cossi, J. M. Millam, M. Klene, C. Adamo, R. Cammi, 
 J. W. Ochterski, R. L. Martin, K. Morokuma, O. Farkas, 
 J. B. Foresman, and D. J. Fox, Gaussian, Inc., Wallingford CT, 2019.
 
 ******************************************
 Gaussian 16:  ES64L-G16RevC.01  3-Jul-2019
                 3-Jan-2023 
 ******************************************
 %chk=0003_q000_m01_k00_force_ub3lyp_def2svpd.chk
 %nprocshared=2
 Will use up to    2 processors via shared memory.
 %mem=4GB
 ----------------------------------------------------------------------
 #p ub3lyp/gen stable=opt scf=(maxcycle=900,verytightlineq,xqc) integra
 l=grid=ultrafine symmetry=None density=current iop(99/18=-1) output=wf
 n
 ----------------------------------------------------------------------
 1/38=1,172=1/1;
 2/12=2,15=3,17=6,18=5,40=1/2;
 3/5=7,11=2,25=1,30=1,74=-5,75=-5,116=2/1,2,3;
 4//1;
 5/5=2,7=900,8=3,13=1,17=3,38=5/2,8;
 6/7=2,8=2,9=2,10=2,22=-1,28=1/1;
 8/6=1,10=90,11=11/1;
 9/8=-3,42=1,46=1/14;
 5/5=2,7=900,8=3,17=43,38=5/8(-2);
 6/7=2,8=2,9=2,10=2,22=-1,28=1/1;
 99/5=1,6=100,9=1,18=-1/99;
 Leave Link    1 at Tue Jan  3 09:05:14 2023, MaxMem=   536870912 cpu:               0.1 elap:               0.1
 (Enter /opt/software/gaussian/g16.c01/l101.exe)
 ----------------------------------------------------------------------
 0003_q000_m01_k00_opt_uwb97xd_def2svpd/0003_q000_m01_k00_force_ub3lyp_
 def2svpd stable-force
 ----------------------------------------------------------------------
 Symbolic Z-matrix:
 Charge =  0 Multiplicity = 1
 C                     0.98383  -0.03256   0.04886 
 S                     2.60713   0.0992    0.0188 
 C                     3.22732   0.7362   -1.346 
 H                     0.57042  -0.45753   0.95974 
 H                     0.34381   0.27822  -0.77549 
 H                     2.61522   1.05648  -2.18774 
 H                     4.31046   0.82364  -1.36582 
 
 ITRead=  0  0  0  0  0  0  0
 MicOpt= -1 -1 -1 -1 -1 -1 -1
 NAtoms=      7 NQM=        7 NQMF=       0 NMMI=      0 NMMIF=      0
                NMic=       0 NMicF=      0.
                    Isotopes and Nuclear Properties:
 (Nuclear quadrupole moments (NQMom) in fm**2, nuclear magnetic moments (NMagM)
  in nuclear magnetons)

  Atom         1           2           3           4           5           6           7
 IAtWgt=          12          32          12           1           1           1           1
 AtmWgt=  12.0000000  31.9720718  12.0000000   1.0078250   1.0078250   1.0078250   1.0078250
 NucSpn=           0           0           0           1           1           1           1
 AtZEff=  -0.0000000  -0.0000000  -0.0000000  -0.0000000  -0.0000000  -0.0000000  -0.0000000
 NQMom=    0.0000000   0.0000000   0.0000000   0.0000000   0.0000000   0.0000000   0.0000000
 NMagM=    0.0000000   0.0000000   0.0000000   2.7928460   2.7928460   2.7928460   2.7928460
 AtZNuc=   6.0000000  16.0000000   6.0000000   1.0000000   1.0000000   1.0000000   1.0000000
 Leave Link  101 at Tue Jan  3 09:05:15 2023, MaxMem=   536870912 cpu:               0.5 elap:               0.3
 (Enter /opt/software/gaussian/g16.c01/l202.exe)
                          Input orientation:                          
 ---------------------------------------------------------------------
 Center     Atomic      Atomic             Coordinates (Angstroms)
 Number     Number       Type             X           Y           Z
 ---------------------------------------------------------------------
      1          6           0        0.983833   -0.032559    0.048858
      2         16           0        2.607130    0.099200    0.018798
      3          6           0        3.227323    0.736198   -1.346005
      4          1           0        0.570421   -0.457530    0.959745
      5          1           0        0.343807    0.278223   -0.775492
      6          1           0        2.615219    1.056484   -2.187742
      7          1           0        4.310457    0.823643   -1.365823
 ---------------------------------------------------------------------
                    Distance matrix (angstroms):
                    1          2          3          4          5
     1  C    0.000000
     2  S    1.628913   0.000000
     3  C    2.751341   1.628832   0.000000
     4  H    1.086841   2.311604   3.714915   0.000000
     5  H    1.088931   2.405323   2.974876   1.898350   0.000000
     6  H    2.974864   2.405260   1.088933   4.047234   2.785579
     7  H    3.714948   2.311562   1.086839   4.586670   4.047257
                    6          7
     6  H    0.000000
     7  H    1.898314   0.000000
 Symmetry turned off by external request.
 Stoichiometry    C2H4S
 Rotational constants (GHZ):          32.8865896           8.4327606           6.7117401
 Leave Link  202 at Tue Jan  3 09:05:15 2023, MaxMem=   536870912 cpu:               0.0 elap:               0.0
 (Enter /opt/software/gaussian/g16.c01/l301.exe)
 General basis read from cards:  (5D, 7F)
 Centers:       4      5      6      7
 S 3 1.00
     Exponent=  1.3010701000D+01 Coefficients=  1.9682158000D-02
     Exponent=  1.9622572000D+00 Coefficients=  1.3796524000D-01
     Exponent=  4.4453796000D-01 Coefficients=  4.7831935000D-01
 S 1 1.00
     Exponent=  1.2194962000D-01 Coefficients=  1.0000000000D+00
 P 1 1.00
     Exponent=  8.0000000000D-01 Coefficients=  1.0000000000D+00
 P 1 1.00
     Exponent=  1.1704099050D-01 Coefficients=  1.0000000000D+00
 ****
 Centers:       1      3
 S 5 1.00
     Exponent=  1.2384016938D+03 Coefficients=  5.4568832082D-03
     Exponent=  1.8629004992D+02 Coefficients=  4.0638409211D-02
     Exponent=  4.2251176346D+01 Coefficients=  1.8025593888D-01
     Exponent=  1.1676557932D+01 Coefficients=  4.6315121755D-01
     Exponent=  3.5930506482D+00 Coefficients=  4.4087173314D-01
 S 1 1.00
     Exponent=  4.0245147363D-01 Coefficients=  1.0000000000D+00
 S 1 1.00
     Exponent=  1.3090182668D-01 Coefficients=  1.0000000000D+00
 S 1 1.00
     Exponent=  6.7053540256D-02 Coefficients=  1.0000000000D+00
 P 3 1.00
     Exponent=  9.4680970621D+00 Coefficients=  3.8387871728D-02
     Exponent=  2.0103545142D+00 Coefficients=  2.1117025112D-01
     Exponent=  5.4771004707D-01 Coefficients=  5.1328172114D-01
 P 1 1.00
     Exponent=  1.5268613795D-01 Coefficients=  1.0000000000D+00
 D 1 1.00
     Exponent=  8.0000000000D-01 Coefficients=  1.0000000000D+00
 D 1 1.00
     Exponent=  1.1713185140D-01 Coefficients=  1.0000000000D+00
 ****
 Centers:       2
 S 5 1.00
     Exponent=  9.1849303010D+03 Coefficients= -2.2294387756D-03
     Exponent=  1.3815105503D+03 Coefficients= -1.6683029937D-02
     Exponent=  3.1387147580D+02 Coefficients= -7.5262436116D-02
     Exponent=  8.8053870623D+01 Coefficients= -1.9376827038D-01
     Exponent=  2.7039914905D+01 Coefficients= -1.7718020803D-01
 S 3 1.00
     Exponent=  4.5648731303D+01 Coefficients= -1.0736062573D-01
     Exponent=  4.9664522326D+00 Coefficients=  6.5066293018D-01
     Exponent=  2.0116242047D+00 Coefficients=  5.9712155354D-01
 S 1 1.00
     Exponent=  3.5661077013D-01 Coefficients=  1.0000000000D+00
 S 1 1.00
     Exponent=  1.3507221477D-01 Coefficients=  1.0000000000D+00
 S 1 1.00
     Exponent=  4.4999823506D-02 Coefficients=  1.0000000000D+00
 P 5 1.00
     Exponent=  2.6198233439D+02 Coefficients= -9.2729929822D-03
     Exponent=  6.1306894736D+01 Coefficients= -6.6547669241D-02
     Exponent=  1.9103729887D+01 Coefficients= -2.4828595903D-01
     Exponent=  6.6567720378D+00 Coefficients= -4.8703847402D-01
     Exponent=  2.3959635161D+00 Coefficients= -3.9337850312D-01
 P 1 1.00
     Exponent=  6.1776161679D-01 Coefficients=  1.0000000000D+00
 P 1 1.00
     Exponent=  1.6993376871D-01 Coefficients=  1.0000000000D+00
 P 1 1.00
     Exponent=  4.1706793676D-02 Coefficients=  1.0000000000D+00
 D 1 1.00
     Exponent=  5.5000000000D-01 Coefficients=  1.0000000000D+00
 D 1 1.00
     Exponent=  1.0172853717D-01 Coefficients=  1.0000000000D+00
 ****
 Ernie: Thresh=  0.10000D-02 Tol=  0.10000D-05 Strict=F.
    99 basis functions,   151 primitive gaussians,   105 cartesian basis functions
    16 alpha electrons       16 beta electrons
       nuclear repulsion energy       100.3080120317 Hartrees.
 IExCor=  402 DFT=T Ex+Corr=B3LYP ExCW=0 ScaHFX=  0.200000
 ScaDFX=  0.800000  0.720000  1.000000  0.810000 ScalE2=  1.000000  1.000000
 IRadAn=      5 IRanWt=     -1 IRanGd=            0 ICorTp=0 IEmpDi=  4
 NAtoms=    7 NActive=    7 NUniq=    7 SFac= 1.00D+00 NAtFMM=   60 NAOKFM=F Big=F
 Integral buffers will be    131072 words long.
 Raffenetti 2 integral format.
 Two-electron integral symmetry is turned off.
 Leave Link  301 at Tue Jan  3 09:05:15 2023, MaxMem=   536870912 cpu:               0.2 elap:               0.1
 (Enter /opt/software/gaussian/g16.c01/l302.exe)
 NPDir=0 NMtPBC=     1 NCelOv=     1 NCel=       1 NClECP=     1 NCelD=      1
         NCelK=      1 NCelE2=     1 NClLst=     1 CellRange=     0.0.
 One-electron integrals computed using PRISM.
 NBasis=    99 RedAO= T EigKep=  4.04D-04  NBF=    99
 NBsUse=    99 1.00D-06 EigRej= -1.00D+00 NBFU=    99
 Precomputing XC quadrature grid using
 IXCGrd= 4 IRadAn=           5 IRanWt=          -1 IRanGd=           0 AccXCQ= 0.00D+00.
 Generated NRdTot=       0 NPtTot=           0 NUsed=           0 NTot=          32
 NSgBfM=   105   105   105   105   105 MxSgAt=     7 MxSgA2=     7.
 Leave Link  302 at Tue Jan  3 09:05:15 2023, MaxMem=   536870912 cpu:               0.4 elap:               0.2
 (Enter /opt/software/gaussian/g16.c01/l303.exe)
 DipDrv:  MaxL=1.
 Leave Link  303 at Tue Jan  3 09:05:15 2023, MaxMem=   536870912 cpu:               0.1 elap:               0.0
 (Enter /opt/software/gaussian/g16.c01/l401.exe)
 ExpMin= 4.17D-02 ExpMax= 9.18D+03 ExpMxC= 1.38D+03 IAcc=3 IRadAn=         5 AccDes= 0.00D+00
 Harris functional with IExCor=  402 and IRadAn=       5 diagonalized for initial guess.
 HarFok:  IExCor=  402 AccDes= 0.00D+00 IRadAn=         5 IDoV= 1 UseB2=F ITyADJ=14
 ICtDFT=  3500011 ScaDFX=  1.000000  1.000000  1.000000  1.000000
 FoFCou: FMM=F IPFlag=           0 FMFlag=      100000 FMFlg1=           0
         NFxFlg=           0 DoJE=T BraDBF=F KetDBF=T FulRan=T
         wScrn=  0.000000 ICntrl=       500 IOpCl=  0 I1Cent=   200000004 NGrid=           0
         NMat0=    1 NMatS0=      1 NMatT0=    0 NMatD0=    1 NMtDS0=    0 NMtDT0=    0
 Symmetry not used in FoFCou.
 Harris En= -476.564413555434    
 JPrj=0 DoOrth=F DoCkMO=F.
 Initial guess <Sx>= 0.0000 <Sy>= 0.0000 <Sz>= 0.0000 <S**2>=-0.0000 S=-0.0000
 Leave Link  401 at Tue Jan  3 09:05:16 2023, MaxMem=   536870912 cpu:               1.2 elap:               0.6
 (Enter /opt/software/gaussian/g16.c01/l502.exe)
 Keep R1 and R2 ints in memory in canonical form, NReq=26369765.
 FoFCou: FMM=F IPFlag=           0 FMFlag=           0 FMFlg1=           0
         NFxFlg=           0 DoJE=F BraDBF=F KetDBF=F FulRan=T
         wScrn=  0.000000 ICntrl=       600 IOpCl=  0 I1Cent=           0 NGrid=           0
         NMat0=    1 NMatS0=   4950 NMatT0=    0 NMatD0=    1 NMtDS0=    0 NMtDT0=    0
 Symmetry not used in FoFCou.
 Two-electron integral symmetry not used.
 UHF open shell SCF:
 Using DIIS extrapolation, IDIIS=  1040.
 NGot=   536870912 LenX=   512339727 LenY=   512328261
 Requested convergence on RMS density matrix=1.00D-08 within 128 cycles.
 Requested convergence on MAX density matrix=1.00D-06.
 Requested convergence on             energy=1.00D-06.
 No special actions if energy rises.

 Cycle   1  Pass 1  IDiag  1:
 E= -476.380842109385    
 DIIS: error= 3.99D-02 at cycle   1 NSaved=   1.
 NSaved= 1 IEnMin= 1 EnMin= -476.380842109385     IErMin= 1 ErrMin= 3.99D-02
 ErrMax= 3.99D-02  0.00D+00 EMaxC= 1.00D-01 BMatC= 7.01D-01 BMatP= 7.01D-01
 IDIUse=3 WtCom= 6.01D-01 WtEn= 3.99D-01
 Coeff-Com:  0.100D+01
 Coeff-En:   0.100D+01
 Coeff:      0.100D+01
 Gap=     0.040 Goal=   None    Shift=    0.000
 Gap=     0.040 Goal=   None    Shift=    0.000
 GapD=    0.040 DampG=0.250 DampE=0.500 DampFc=0.2500 IDamp=-1.
 Damping current iteration by 2.50D-01
 RMSDP=1.05D-02 MaxDP=1.86D-01              OVMax= 3.88D-01

 Cycle   2  Pass 1  IDiag  1:
 E= -476.453161625000     Delta-E=       -0.072319515615 Rises=F Damp=T
 DIIS: error= 1.45D-02 at cycle   2 NSaved=   2.
 NSaved= 2 IEnMin= 2 EnMin= -476.453161625000     IErMin= 2 ErrMin= 1.45D-02
 ErrMax= 1.45D-02  0.00D+00 EMaxC= 1.00D-01 BMatC= 1.19D-01 BMatP= 7.01D-01
 IDIUse=3 WtCom= 8.55D-01 WtEn= 1.45D-01
 Coeff-Com: -0.641D+00 0.164D+01
 Coeff-En:   0.000D+00 0.100D+01
 Coeff:     -0.548D+00 0.155D+01
 Gap=     0.132 Goal=   None    Shift=    0.000
 Gap=     0.132 Goal=   None    Shift=    0.000
 RMSDP=3.78D-03 MaxDP=5.61D-02 DE=-7.23D-02 OVMax= 2.15D-01

 Cycle   3  Pass 1  IDiag  1:
 E= -476.562248269928     Delta-E=       -0.109086644928 Rises=F Damp=F
 DIIS: error= 4.22D-03 at cycle   3 NSaved=   3.
 NSaved= 3 IEnMin= 3 EnMin= -476.562248269928     IErMin= 3 ErrMin= 4.22D-03
 ErrMax= 4.22D-03  0.00D+00 EMaxC= 1.00D-01 BMatC= 7.36D-03 BMatP= 1.19D-01
 IDIUse=3 WtCom= 9.58D-01 WtEn= 4.22D-02
 Coeff-Com: -0.593D-01 0.308D+00 0.752D+00
 Coeff-En:   0.000D+00 0.000D+00 0.100D+01
 Coeff:     -0.568D-01 0.295D+00 0.762D+00
 Gap=     0.144 Goal=   None    Shift=    0.000
 Gap=     0.144 Goal=   None    Shift=    0.000
 RMSDP=7.03D-04 MaxDP=1.21D-02 DE=-1.09D-01 OVMax= 1.42D-02

 Cycle   4  Pass 1  IDiag  1:
 E= -476.564140701647     Delta-E=       -0.001892431719 Rises=F Damp=F
 DIIS: error= 9.50D-04 at cycle   4 NSaved=   4.
 NSaved= 4 IEnMin= 4 EnMin= -476.564140701647     IErMin= 4 ErrMin= 9.50D-04
 ErrMax= 9.50D-04  0.00D+00 EMaxC= 1.00D-01 BMatC= 2.99D-04 BMatP= 7.36D-03
 IDIUse=3 WtCom= 9.91D-01 WtEn= 9.50D-03
 Coeff-Com:  0.423D-01-0.533D-01 0.228D+00 0.783D+00
 Coeff-En:   0.000D+00 0.000D+00 0.000D+00 0.100D+01
 Coeff:      0.419D-01-0.528D-01 0.226D+00 0.785D+00
 Gap=     0.145 Goal=   None    Shift=    0.000
 Gap=     0.145 Goal=   None    Shift=    0.000
 RMSDP=1.44D-04 MaxDP=2.81D-03 DE=-1.89D-03 OVMax= 3.37D-03

 Cycle   5  Pass 1  IDiag  1:
 E= -476.564235817653     Delta-E=       -0.000095116006 Rises=F Damp=F
 DIIS: error= 1.87D-04 at cycle   5 NSaved=   5.
 NSaved= 5 IEnMin= 5 EnMin= -476.564235817653     IErMin= 5 ErrMin= 1.87D-04
 ErrMax= 1.87D-04  0.00D+00 EMaxC= 1.00D-01 BMatC= 1.20D-05 BMatP= 2.99D-04
 IDIUse=3 WtCom= 9.98D-01 WtEn= 1.87D-03
 Coeff-Com:  0.171D-01-0.239D-01 0.829D-01 0.314D+00 0.610D+00
 Coeff-En:   0.000D+00 0.000D+00 0.000D+00 0.000D+00 0.100D+01
 Coeff:      0.170D-01-0.239D-01 0.828D-01 0.313D+00 0.611D+00
 Gap=     0.145 Goal=   None    Shift=    0.000
 Gap=     0.145 Goal=   None    Shift=    0.000
 RMSDP=3.04D-05 MaxDP=7.21D-04 DE=-9.51D-05 OVMax= 7.81D-04

 Cycle   6  Pass 1  IDiag  1:
 E= -476.564239017813     Delta-E=       -0.000003200159 Rises=F Damp=F
 DIIS: error= 4.80D-05 at cycle   6 NSaved=   6.
 NSaved= 6 IEnMin= 6 EnMin= -476.564239017813     IErMin= 6 ErrMin= 4.80D-05
 ErrMax= 4.80D-05  0.00D+00 EMaxC= 1.00D-01 BMatC= 1.34D-06 BMatP= 1.20D-05
 IDIUse=1 WtCom= 1.00D+00 WtEn= 0.00D+00
 Coeff-Com:  0.443D-02-0.650D-02 0.207D-01 0.762D-01 0.266D+00 0.640D+00
 Coeff:      0.443D-02-0.650D-02 0.207D-01 0.762D-01 0.266D+00 0.640D+00
 Gap=     0.145 Goal=   None    Shift=    0.000
 Gap=     0.145 Goal=   None    Shift=    0.000
 RMSDP=1.25D-05 MaxDP=3.29D-04 DE=-3.20D-06 OVMax= 8.80D-04

 Cycle   7  Pass 1  IDiag  1:
 E= -476.564238879684     Delta-E=        0.000000138129 Rises=F Damp=F
 DIIS: error= 7.13D-05 at cycle   7 NSaved=   7.
 NSaved= 7 IEnMin= 6 EnMin= -476.564239017813     IErMin= 6 ErrMin= 4.80D-05
 ErrMax= 7.13D-05  0.00D+00 EMaxC= 1.00D-01 BMatC= 1.74D-06 BMatP= 1.34D-06
 IDIUse=1 WtCom= 1.00D+00 WtEn= 0.00D+00
 Coeff-Com:  0.143D-02-0.222D-02 0.615D-02 0.204D-01 0.132D+00 0.521D+00
 Coeff-Com:  0.321D+00
 Coeff:      0.143D-02-0.222D-02 0.615D-02 0.204D-01 0.132D+00 0.521D+00
 Coeff:      0.321D+00
 Gap=     0.145 Goal=   None    Shift=    0.000
 Gap=     0.145 Goal=   None    Shift=    0.000
 RMSDP=7.21D-06 MaxDP=1.99D-04 DE= 1.38D-07 OVMax= 5.66D-04

 Cycle   8  Pass 1  IDiag  1:
 E= -476.564239421947     Delta-E=       -0.000000542263 Rises=F Damp=F
 DIIS: error= 5.83D-06 at cycle   8 NSaved=   8.
 NSaved= 8 IEnMin= 8 EnMin= -476.564239421947     IErMin= 8 ErrMin= 5.83D-06
 ErrMax= 5.83D-06  0.00D+00 EMaxC= 1.00D-01 BMatC= 1.88D-08 BMatP= 1.34D-06
 IDIUse=1 WtCom= 1.00D+00 WtEn= 0.00D+00
 Coeff-Com:  0.582D-04-0.142D-03-0.210D-03-0.251D-02 0.129D-01 0.107D+00
 Coeff-Com:  0.127D+00 0.756D+00
 Coeff:      0.582D-04-0.142D-03-0.210D-03-0.251D-02 0.129D-01 0.107D+00
 Coeff:      0.127D+00 0.756D+00
 Gap=     0.145 Goal=   None    Shift=    0.000
 Gap=     0.145 Goal=   None    Shift=    0.000
 RMSDP=1.00D-06 MaxDP=1.65D-05 DE=-5.42D-07 OVMax= 4.47D-05

 Cycle   9  Pass 1  IDiag  1:
 E= -476.564239427830     Delta-E=       -0.000000005882 Rises=F Damp=F
 DIIS: error= 4.27D-07 at cycle   9 NSaved=   9.
 NSaved= 9 IEnMin= 9 EnMin= -476.564239427830     IErMin= 9 ErrMin= 4.27D-07
 ErrMax= 4.27D-07  0.00D+00 EMaxC= 1.00D-01 BMatC= 8.63D-11 BMatP= 1.88D-08
 IDIUse=1 WtCom= 1.00D+00 WtEn= 0.00D+00
 Coeff-Com: -0.118D-04 0.196D-04-0.137D-03-0.625D-03-0.158D-02-0.605D-02
 Coeff-Com: -0.622D-03 0.404D-01 0.969D+00
 Coeff:     -0.118D-04 0.196D-04-0.137D-03-0.625D-03-0.158D-02-0.605D-02
 Coeff:     -0.622D-03 0.404D-01 0.969D+00
 Gap=     0.145 Goal=   None    Shift=    0.000
 Gap=     0.145 Goal=   None    Shift=    0.000
 RMSDP=9.04D-08 MaxDP=2.19D-06 DE=-5.88D-09 OVMax= 1.46D-06

 Cycle  10  Pass 1  IDiag  1:
 E= -476.564239427855     Delta-E=       -0.000000000026 Rises=F Damp=F
 DIIS: error= 2.88D-08 at cycle  10 NSaved=  10.
 NSaved=10 IEnMin=10 EnMin= -476.564239427855     IErMin=10 ErrMin= 2.88D-08
 ErrMax= 2.88D-08  0.00D+00 EMaxC= 1.00D-01 BMatC= 3.11D-13 BMatP= 8.63D-11
 IDIUse=1 WtCom= 1.00D+00 WtEn= 0.00D+00
 Coeff-Com: -0.446D-06 0.129D-05-0.446D-05-0.393D-07-0.111D-03-0.118D-02
 Coeff-Com: -0.129D-02-0.649D-02 0.425D-01 0.967D+00
 Coeff:     -0.446D-06 0.129D-05-0.446D-05-0.393D-07-0.111D-03-0.118D-02
 Coeff:     -0.129D-02-0.649D-02 0.425D-01 0.967D+00
 Gap=     0.145 Goal=   None    Shift=    0.000
 Gap=     0.145 Goal=   None    Shift=    0.000
 RMSDP=6.68D-09 MaxDP=8.55D-08 DE=-2.57D-11 OVMax= 1.41D-07

 SCF Done:  E(UB3LYP) =  -476.564239428     A.U. after   10 cycles
            NFock= 10  Conv=0.67D-08     -V/T= 2.0045
 <Sx>= 0.0000 <Sy>= 0.0000 <Sz>= 0.0000 <S**2>=-0.0000 S=-0.0000
 <L.S>=  0.00000000000    
 KE= 4.744458934223D+02 PE=-1.327042466686D+03 EE= 2.757243218042D+02
 Annihilation of the first spin contaminant:
 S**2 before annihilation    -0.0000,   after     0.0000
 Leave Link  502 at Tue Jan  3 09:05:25 2023, MaxMem=   536870912 cpu:              17.4 elap:               8.9
 (Enter /opt/software/gaussian/g16.c01/l508.exe)
 QCSCF skips out because SCF is already converged.
 Leave Link  508 at Tue Jan  3 09:05:25 2023, MaxMem=   536870912 cpu:               0.0 elap:               0.0
 (Enter /opt/software/gaussian/g16.c01/l601.exe)
 Copying SCF densities to generalized density rwf, IOpCl= 1 IROHF=0.

 **********************************************************************

            Population analysis using the SCF Density.

 **********************************************************************

 Alpha  occ. eigenvalues --  -88.92417 -10.20158 -10.20151  -8.00992  -5.97728
 Alpha  occ. eigenvalues --   -5.97560  -5.97278  -0.85599  -0.69686  -0.57165
 Alpha  occ. eigenvalues --   -0.47390  -0.46641  -0.40938  -0.36547  -0.33846
 Alpha  occ. eigenvalues --   -0.20402
 Alpha virt. eigenvalues --   -0.05944   0.02097   0.02742   0.03857   0.06163
 Alpha virt. eigenvalues --    0.06820   0.07977   0.08303   0.09673   0.14172
 Alpha virt. eigenvalues --    0.15813   0.17147   0.17679   0.19050   0.19946
 Alpha virt. eigenvalues --    0.21346   0.21823   0.23888   0.24076   0.24899
 Alpha virt. eigenvalues --    0.27279   0.29963   0.31749   0.32184   0.33405
 Alpha virt. eigenvalues --    0.33622   0.36070   0.37815   0.38796   0.40188
 Alpha virt. eigenvalues --    0.41046   0.43106   0.43865   0.44082   0.44248
 Alpha virt. eigenvalues --    0.48905   0.50590   0.53295   0.54398   0.60597
 Alpha virt. eigenvalues --    0.74120   0.75235   0.76934   0.77816   0.78902
 Alpha virt. eigenvalues --    0.82062   0.84152   0.87525   0.89113   0.93803
 Alpha virt. eigenvalues --    0.96297   0.97843   0.99105   1.01603   1.04031
 Alpha virt. eigenvalues --    1.12973   1.13788   1.21185   1.26831   1.30680
 Alpha virt. eigenvalues --    1.42041   1.44194   1.50385   1.60821   1.62544
 Alpha virt. eigenvalues --    1.68411   1.74915   1.81330   1.84322   2.03921
 Alpha virt. eigenvalues --    2.06643   2.12296   2.12880   2.13066   2.16751
 Alpha virt. eigenvalues --    2.28630   2.29147   2.43922   2.52138   2.96545
 Alpha virt. eigenvalues --    2.96933   2.99838   3.00223
  Beta  occ. eigenvalues --  -88.92417 -10.20158 -10.20151  -8.00992  -5.97728
  Beta  occ. eigenvalues --   -5.97560  -5.97278  -0.85599  -0.69686  -0.57165
  Beta  occ. eigenvalues --   -0.47390  -0.46641  -0.40938  -0.36547  -0.33846
  Beta  occ. eigenvalues --   -0.20402
  Beta virt. eigenvalues --   -0.05944   0.02097   0.02742   0.03857   0.06163
  Beta virt. eigenvalues --    0.06820   0.07977   0.08303   0.09673   0.14172
  Beta virt. eigenvalues --    0.15813   0.17147   0.17679   0.19050   0.19946
  Beta virt. eigenvalues --    0.21346   0.21823   0.23888   0.24076   0.24899
  Beta virt. eigenvalues --    0.27279   0.29963   0.31749   0.32184   0.33405
  Beta virt. eigenvalues --    0.33622   0.36070   0.37815   0.38796   0.40188
  Beta virt. eigenvalues --    0.41046   0.43106   0.43865   0.44082   0.44248
  Beta virt. eigenvalues --    0.48905   0.50590   0.53295   0.54398   0.60597
  Beta virt. eigenvalues --    0.74120   0.75235   0.76934   0.77816   0.78902
  Beta virt. eigenvalues --    0.82062   0.84152   0.87525   0.89113   0.93803
  Beta virt. eigenvalues --    0.96297   0.97843   0.99105   1.01603   1.04031
  Beta virt. eigenvalues --    1.12973   1.13788   1.21185   1.26831   1.30680
  Beta virt. eigenvalues --    1.42041   1.44194   1.50385   1.60821   1.62544
  Beta virt. eigenvalues --    1.68411   1.74915   1.81330   1.84322   2.03921
  Beta virt. eigenvalues --    2.06643   2.12296   2.12880   2.13066   2.16751
  Beta virt. eigenvalues --    2.28630   2.29147   2.43922   2.52138   2.96545
  Beta virt. eigenvalues --    2.96933   2.99838   3.00223
          Condensed to atoms (all electrons):
               1          2          3          4          5          6
     1  C    4.434291   0.375382  -0.119792   0.276752   0.461558  -0.066574
     2  S    0.375382  15.599048   0.375383  -0.022913  -0.095581  -0.095624
     3  C   -0.119792   0.375383   4.434295   0.029250  -0.066580   0.461574
     4  H    0.276752  -0.022913   0.029250   1.256661  -0.222117   0.006451
     5  H    0.461558  -0.095581  -0.066580  -0.222117   1.170407  -0.023355
     6  H   -0.066574  -0.095624   0.461574   0.006451  -0.023355   1.170346
     7  H    0.029247  -0.022910   0.276728  -0.002088   0.006451  -0.222094
               7
     1  C    0.029247
     2  S   -0.022910
     3  C    0.276728
     4  H   -0.002088
     5  H    0.006451
     6  H   -0.222094
     7  H    1.256652
          Atomic-Atomic Spin Densities.
               1          2          3          4          5          6
     1  C   -0.000000   0.000000  -0.000000   0.000000  -0.000000   0.000000
     2  S    0.000000   0.000000  -0.000000  -0.000000   0.000000   0.000000
     3  C   -0.000000  -0.000000  -0.000000   0.000000  -0.000000  -0.000000
     4  H    0.000000  -0.000000   0.000000   0.000000  -0.000000  -0.000000
     5  H   -0.000000   0.000000  -0.000000  -0.000000   0.000000  -0.000000
     6  H    0.000000   0.000000  -0.000000  -0.000000  -0.000000   0.000000
     7  H   -0.000000  -0.000000  -0.000000  -0.000000   0.000000   0.000000
               7
     1  C   -0.000000
     2  S   -0.000000
     3  C   -0.000000
     4  H   -0.000000
     5  H    0.000000
     6  H    0.000000
     7  H    0.000000
 Mulliken charges and spin densities:
               1          2
     1  C    0.609136  -0.000000
     2  S   -0.112785   0.000000
     3  C    0.609142  -0.000000
     4  H   -0.321998   0.000000
     5  H   -0.230784  -0.000000
     6  H   -0.230723   0.000000
     7  H   -0.321987   0.000000
 Sum of Mulliken charges =  -0.00000   0.00000
 Mulliken charges and spin densities with hydrogens summed into heavy atoms:
               1          2
     1  C    0.056354  -0.000000
     2  S   -0.112785   0.000000
     3  C    0.056431  -0.000000
 Electronic spatial extent (au):  <R**2>=            871.6671
 Charge=             -0.0000 electrons
 Dipole moment (field-independent basis, Debye):
    X=             -0.1857    Y=              0.0938    Z=             -0.2475  Tot=              0.3233
 Quadrupole moment (field-independent basis, Debye-Ang):
   XX=            -25.7465   YY=            -28.6076   ZZ=            -25.4359
   XY=              0.4723   XZ=             -0.4435   YZ=             -1.7217
 Traceless Quadrupole moment (field-independent basis, Debye-Ang):
   XX=              0.8501   YY=             -2.0109   ZZ=              1.1608
   XY=              0.4723   XZ=             -0.4435   YZ=             -1.7217
 Octapole moment (field-independent basis, Debye-Ang**2):
  XXX=           -175.3362  YYY=            -21.3077  ZZZ=             26.5977  XYY=            -66.3581
  XXY=             -3.8006  XXZ=              7.0157  XZZ=            -61.6211  YZZ=             -4.3140
  YYZ=              9.7014  XYZ=             -2.9625
 Hexadecapole moment (field-independent basis, Debye-Ang**3):
 XXXX=           -964.3726 YYYY=            -68.8640 ZZZZ=           -122.8859 XXXY=            -47.1812
 XXXZ=             79.2615 YYYX=            -70.0862 YYYZ=             26.4733 ZZZX=             92.5831
 ZZZY=             17.8621 XXYY=           -195.9840 XXZZ=           -196.1662 YYZZ=            -30.7848
 XXYZ=             -0.4765 YYXZ=             32.9987 ZZXY=            -14.3973
 N-N= 1.003080120317D+02 E-N=-1.327042467110D+03  KE= 4.744458934223D+02
                          Isotropic Fermi Contact Couplings
        Atom                 a.u.       MegaHertz       Gauss      10(-4) cm-1
     1  C(13)             -0.00000      -0.00000      -0.00000      -0.00000
     2  S(33)             -0.00000      -0.00000      -0.00000      -0.00000
     3  C(13)              0.00000       0.00000       0.00000       0.00000
     4  H(1)               0.00000       0.00000       0.00000       0.00000
     5  H(1)               0.00000       0.00000       0.00000       0.00000
     6  H(1)               0.00000       0.00000       0.00000       0.00000
     7  H(1)               0.00000       0.00000       0.00000       0.00000
 --------------------------------------------------------
       Center         ----  Spin Dipole Couplings  ----
                      3XX-RR        3YY-RR        3ZZ-RR
 --------------------------------------------------------
     1   Atom        0.000000      0.000000      0.000000
     2   Atom        0.000000      0.000000      0.000000
     3   Atom        0.000000      0.000000      0.000000
     4   Atom        0.000000      0.000000      0.000000
     5   Atom        0.000000      0.000000      0.000000
     6   Atom        0.000000      0.000000      0.000000
     7   Atom        0.000000      0.000000      0.000000
 --------------------------------------------------------
                        XY            XZ            YZ
 --------------------------------------------------------
     1   Atom        0.000000      0.000000      0.000000
     2   Atom        0.000000      0.000000      0.000000
     3   Atom        0.000000      0.000000      0.000000
     4   Atom        0.000000      0.000000      0.000000
     5   Atom        0.000000      0.000000      0.000000
     6   Atom        0.000000      0.000000      0.000000
     7   Atom        0.000000      0.000000      0.000000
 --------------------------------------------------------


 ---------------------------------------------------------------------------------
              Anisotropic Spin Dipole Couplings in Principal Axis System
 ---------------------------------------------------------------------------------

       Atom             a.u.   MegaHertz   Gauss  10(-4) cm-1        Axes

              Baa     0.0000     0.000     0.000     0.000  1.0000  0.0000  0.0000
     1 C(13)  Bbb     0.0000     0.000     0.000     0.000 -0.0000  1.0000  0.0000
              Bcc     0.0000     0.000     0.000     0.000  0.0000  0.0000  1.0000
 
              Baa     0.0000     0.000     0.000     0.000  1.0000  0.0000  0.0000
     2 S(33)  Bbb     0.0000     0.000     0.000     0.000 -0.0000  1.0000  0.0000
              Bcc     0.0000     0.000     0.000     0.000  0.0000  0.0000  1.0000
 
              Baa     0.0000     0.000     0.000     0.000  1.0000  0.0000  0.0000
     3 C(13)  Bbb     0.0000     0.000     0.000     0.000 -0.0000  1.0000  0.0000
              Bcc     0.0000     0.000     0.000     0.000  0.0000  0.0000  1.0000
 
              Baa     0.0000     0.000     0.000     0.000  1.0000  0.0000  0.0000
     4 H(1)   Bbb     0.0000     0.000     0.000     0.000 -0.0000  1.0000  0.0000
              Bcc     0.0000     0.000     0.000     0.000  0.0000  0.0000  1.0000
 
              Baa     0.0000     0.000     0.000     0.000  1.0000  0.0000  0.0000
     5 H(1)   Bbb     0.0000     0.000     0.000     0.000 -0.0000  1.0000  0.0000
              Bcc     0.0000     0.000     0.000     0.000  0.0000  0.0000  1.0000
 
              Baa     0.0000     0.000     0.000     0.000  1.0000  0.0000  0.0000
     6 H(1)   Bbb     0.0000     0.000     0.000     0.000 -0.0000  1.0000  0.0000
              Bcc     0.0000     0.000     0.000     0.000  0.0000  0.0000  1.0000
 
              Baa     0.0000     0.000     0.000     0.000  1.0000  0.0000  0.0000
     7 H(1)   Bbb     0.0000     0.000     0.000     0.000 -0.0000  1.0000  0.0000
              Bcc     0.0000     0.000     0.000     0.000  0.0000  0.0000  1.0000
 

 ---------------------------------------------------------------------------------

 No NMR shielding tensors so no spin-rotation constants.
 Leave Link  601 at Tue Jan  3 09:05:25 2023, MaxMem=   536870912 cpu:               0.3 elap:               0.1
 (Enter /opt/software/gaussian/g16.c01/l801.exe)
 DoSCS=F DFT=T ScalE2(SS,OS)=  1.000000  1.000000
 Range of M.O.s used for correlation:     1    99
 NBasis=    99 NAE=    16 NBE=    16 NFC=     0 NFV=     0
 NROrb=     99 NOA=    16 NOB=    16 NVA=    83 NVB=    83

 **** Warning!!: The largest alpha MO coefficient is  0.13816451D+02


 **** Warning!!: The largest beta MO coefficient is  0.13816451D+02

 Leave Link  801 at Tue Jan  3 09:05:25 2023, MaxMem=   536870912 cpu:               0.1 elap:               0.0
 (Enter /opt/software/gaussian/g16.c01/l914.exe)
 UHF ground state
 Doing stability rather than CIS.
 Keep R1 and R2 ints in memory in canonical form, NReq=27982951.
 FoFCou: FMM=F IPFlag=           0 FMFlag=           0 FMFlg1=           0
         NFxFlg=           0 DoJE=F BraDBF=F KetDBF=F FulRan=T
         wScrn=  0.000000 ICntrl=       600 IOpCl=  0 I1Cent=           0 NGrid=           0
         NMat0=    1 NMatS0=   4950 NMatT0=    0 NMatD0=    1 NMtDS0=    0 NMtDT0=    0
 Symmetry not used in FoFCou.
 Two-electron integral symmetry not used.
 MDV=   536870912 DFT=T DoStab=T Mixed=T DoRPA=F DoScal=F NonHer=F
 Making orbital integer symmetry assigments:
    12 initial guesses have been made.
 Convergence on wavefunction:    0.001000000000000
 Davidson Disk Diagonalization:  ConvIn= 1.00D-03 SkipCon=T Conv= 1.00D-03.
 Max sub-space:  2000 roots to seek:    12 dimension of matrix:         2656
 Iteration     1 Dimension    12 NMult     0 NNew     12
 CISAX will form    12 AO SS matrices at one time.
 NMat=    12 NSing=    12 JSym2X= 0.
 Excitation Energies [eV] at current iteration:
 Root      1 :     0.788003093335713
 Root      2 :     4.943247977102258
 Root      3 :     5.090262666277668
 Root      4 :     5.145520028322125
 Root      5 :     5.478242925736600
 Root      6 :     5.612850680288884
 Root      7 :     5.694664757947172
 Root      8 :     5.937473253356982
 Root      9 :     6.167030837293018
 Root     10 :     6.240504251780961
 Root     11 :     6.413931059239674
 Root     12 :    11.053269943182746
 Iteration     2 Dimension    24 NMult    12 NNew     12
 CISAX will form    12 AO SS matrices at one time.
 NMat=    12 NSing=    12 JSym2X= 0.
 Root      1 not converged, maximum delta is    0.068202693077784
 Excitation Energies [eV] at current iteration:
 Root      1 :     0.437040706266866   Change is   -0.350962387068847
 Root      2 :     4.821836166384924   Change is   -0.121411810717334
 Root      3 :     4.849541339965311   Change is   -0.240721326312356
 Root      4 :     5.125132540182486   Change is   -0.020387488139639
 Root      5 :     5.400248185531856   Change is   -0.077994740204744
 Root      6 :     5.485333931249796   Change is   -0.127516749039088
 Root      7 :     5.641471179141166   Change is   -0.296002074215815
 Root      8 :     5.673318105749559   Change is   -0.021346652197614
 Root      9 :     5.794236023645522   Change is   -0.446268228135439
 Root     10 :     6.110426869063424   Change is   -0.056603968229594
 Root     11 :     6.245793579535927   Change is   -0.168137479703748
 Root     12 :     6.843294740963568   Change is   -4.209975202219177
 Iteration     3 Dimension    27 NMult    24 NNew      3
 CISAX will form     3 AO SS matrices at one time.
 NMat=     3 NSing=     3 JSym2X= 0.
 Root      1 not converged, maximum delta is    0.002317786353360
 Excitation Energies [eV] at current iteration:
 Root      1 :     0.432442787080094   Change is   -0.004597919186772
 Root      2 :     4.790985983646903   Change is   -0.058555356318409
 Root      3 :     4.819662447209756   Change is   -0.002173719175168
 Iteration     4 Dimension    30 NMult    27 NNew      3
 CISAX will form     3 AO SS matrices at one time.
 NMat=     3 NSing=     3 JSym2X= 0.
 Root      1 has converged.
 Excitation Energies [eV] at current iteration:
 Root      1 :     0.432348012245113   Change is   -0.000094774834981
 Root      2 :     4.752600860113434   Change is   -0.038385123533469
 Root      3 :     4.819590619794601   Change is   -0.000071827415155
 Convergence achieved on expansion vectors.
 ***********************************************************************
 Stability analysis using <AA,BB:AA,BB> singles matrix:
 ***********************************************************************
 1PDM for each excited state written to RWF  633
 Ground to excited state transition densities written to RWF  633

 Eigenvectors of the stability matrix:
 
 Excited state symmetry could not be determined.
 Eigenvector   1:  3.000-?Sym  Eigenvalue= 0.0158885  <S**2>=2.000
     16A -> 17A        0.69485
     16B -> 17B       -0.69485
 The wavefunction is stable under the perturbations considered.
 Leave Link  914 at Tue Jan  3 09:06:00 2023, MaxMem=   536870912 cpu:              70.5 elap:              35.3
 (Enter /opt/software/gaussian/g16.c01/l508.exe)
 The wavefunction is already stable.
 Leave Link  508 at Tue Jan  3 09:06:00 2023, MaxMem=   536870912 cpu:               0.0 elap:               0.0
 (Enter /opt/software/gaussian/g16.c01/l601.exe)
 Copying SCF densities to generalized density rwf, IOpCl= 1 IROHF=0.

 **********************************************************************

            Population analysis using the SCF Density.

 **********************************************************************

 Alpha  occ. eigenvalues --  -88.92417 -10.20158 -10.20151  -8.00992  -5.97728
 Alpha  occ. eigenvalues --   -5.97560  -5.97278  -0.85599  -0.69686  -0.57165
 Alpha  occ. eigenvalues --   -0.47390  -0.46641  -0.40938  -0.36547  -0.33846
 Alpha  occ. eigenvalues --   -0.20402
 Alpha virt. eigenvalues --   -0.05944   0.02097   0.02742   0.03857   0.06163
 Alpha virt. eigenvalues --    0.06820   0.07977   0.08303   0.09673   0.14172
 Alpha virt. eigenvalues --    0.15813   0.17147   0.17679   0.19050   0.19946
 Alpha virt. eigenvalues --    0.21346   0.21823   0.23888   0.24076   0.24899
 Alpha virt. eigenvalues --    0.27279   0.29963   0.31749   0.32184   0.33405
 Alpha virt. eigenvalues --    0.33622   0.36070   0.37815   0.38796   0.40188
 Alpha virt. eigenvalues --    0.41046   0.43106   0.43865   0.44082   0.44248
 Alpha virt. eigenvalues --    0.48905   0.50590   0.53295   0.54398   0.60597
 Alpha virt. eigenvalues --    0.74120   0.75235   0.76934   0.77816   0.78902
 Alpha virt. eigenvalues --    0.82062   0.84152   0.87525   0.89113   0.93803
 Alpha virt. eigenvalues --    0.96297   0.97843   0.99105   1.01603   1.04031
 Alpha virt. eigenvalues --    1.12973   1.13788   1.21185   1.26831   1.30680
 Alpha virt. eigenvalues --    1.42041   1.44194   1.50385   1.60821   1.62544
 Alpha virt. eigenvalues --    1.68411   1.74915   1.81330   1.84322   2.03921
 Alpha virt. eigenvalues --    2.06643   2.12296   2.12880   2.13066   2.16751
 Alpha virt. eigenvalues --    2.28630   2.29147   2.43922   2.52138   2.96545
 Alpha virt. eigenvalues --    2.96933   2.99838   3.00223
  Beta  occ. eigenvalues --  -88.92417 -10.20158 -10.20151  -8.00992  -5.97728
  Beta  occ. eigenvalues --   -5.97560  -5.97278  -0.85599  -0.69686  -0.57165
  Beta  occ. eigenvalues --   -0.47390  -0.46641  -0.40938  -0.36547  -0.33846
  Beta  occ. eigenvalues --   -0.20402
  Beta virt. eigenvalues --   -0.05944   0.02097   0.02742   0.03857   0.06163
  Beta virt. eigenvalues --    0.06820   0.07977   0.08303   0.09673   0.14172
  Beta virt. eigenvalues --    0.15813   0.17147   0.17679   0.19050   0.19946
  Beta virt. eigenvalues --    0.21346   0.21823   0.23888   0.24076   0.24899
  Beta virt. eigenvalues --    0.27279   0.29963   0.31749   0.32184   0.33405
  Beta virt. eigenvalues --    0.33622   0.36070   0.37815   0.38796   0.40188
  Beta virt. eigenvalues --    0.41046   0.43106   0.43865   0.44082   0.44248
  Beta virt. eigenvalues --    0.48905   0.50590   0.53295   0.54398   0.60597
  Beta virt. eigenvalues --    0.74120   0.75235   0.76934   0.77816   0.78902
  Beta virt. eigenvalues --    0.82062   0.84152   0.87525   0.89113   0.93803
  Beta virt. eigenvalues --    0.96297   0.97843   0.99105   1.01603   1.04031
  Beta virt. eigenvalues --    1.12973   1.13788   1.21185   1.26831   1.30680
  Beta virt. eigenvalues --    1.42041   1.44194   1.50385   1.60821   1.62544
  Beta virt. eigenvalues --    1.68411   1.74915   1.81330   1.84322   2.03921
  Beta virt. eigenvalues --    2.06643   2.12296   2.12880   2.13066   2.16751
  Beta virt. eigenvalues --    2.28630   2.29147   2.43922   2.52138   2.96545
  Beta virt. eigenvalues --    2.96933   2.99838   3.00223
          Condensed to atoms (all electrons):
               1          2          3          4          5          6
     1  C    4.434291   0.375382  -0.119792   0.276752   0.461558  -0.066574
     2  S    0.375382  15.599048   0.375383  -0.022913  -0.095581  -0.095624
     3  C   -0.119792   0.375383   4.434295   0.029250  -0.066580   0.461574
     4  H    0.276752  -0.022913   0.029250   1.256661  -0.222117   0.006451
     5  H    0.461558  -0.095581  -0.066580  -0.222117   1.170407  -0.023355
     6  H   -0.066574  -0.095624   0.461574   0.006451  -0.023355   1.170346
     7  H    0.029247  -0.022910   0.276728  -0.002088   0.006451  -0.222094
               7
     1  C    0.029247
     2  S   -0.022910
     3  C    0.276728
     4  H   -0.002088
     5  H    0.006451
     6  H   -0.222094
     7  H    1.256652
          Atomic-Atomic Spin Densities.
               1          2          3          4          5          6
     1  C   -0.000000   0.000000  -0.000000   0.000000  -0.000000   0.000000
     2  S    0.000000   0.000000  -0.000000  -0.000000   0.000000   0.000000
     3  C   -0.000000  -0.000000  -0.000000   0.000000  -0.000000  -0.000000
     4  H    0.000000  -0.000000   0.000000   0.000000  -0.000000  -0.000000
     5  H   -0.000000   0.000000  -0.000000  -0.000000   0.000000  -0.000000
     6  H    0.000000   0.000000  -0.000000  -0.000000  -0.000000   0.000000
     7  H   -0.000000  -0.000000  -0.000000  -0.000000   0.000000   0.000000
               7
     1  C   -0.000000
     2  S   -0.000000
     3  C   -0.000000
     4  H   -0.000000
     5  H    0.000000
     6  H    0.000000
     7  H    0.000000
 Mulliken charges and spin densities:
               1          2
     1  C    0.609136  -0.000000
     2  S   -0.112785   0.000000
     3  C    0.609142  -0.000000
     4  H   -0.321998   0.000000
     5  H   -0.230784  -0.000000
     6  H   -0.230723   0.000000
     7  H   -0.321987   0.000000
 Sum of Mulliken charges =  -0.00000   0.00000
 Mulliken charges and spin densities with hydrogens summed into heavy atoms:
               1          2
     1  C    0.056354  -0.000000
     2  S   -0.112785   0.000000
     3  C    0.056431  -0.000000
 Electronic spatial extent (au):  <R**2>=            871.6671
 Charge=             -0.0000 electrons
 Dipole moment (field-independent basis, Debye):
    X=             -0.1857    Y=              0.0938    Z=             -0.2475  Tot=              0.3233
 Quadrupole moment (field-independent basis, Debye-Ang):
   XX=            -25.7465   YY=            -28.6076   ZZ=            -25.4359
   XY=              0.4723   XZ=             -0.4435   YZ=             -1.7217
 Traceless Quadrupole moment (field-independent basis, Debye-Ang):
   XX=              0.8501   YY=             -2.0109   ZZ=              1.1608
   XY=              0.4723   XZ=             -0.4435   YZ=             -1.7217
 Octapole moment (field-independent basis, Debye-Ang**2):
  XXX=           -175.3362  YYY=            -21.3077  ZZZ=             26.5977  XYY=            -66.3581
  XXY=             -3.8006  XXZ=              7.0157  XZZ=            -61.6211  YZZ=             -4.3140
  YYZ=              9.7014  XYZ=             -2.9625
 Hexadecapole moment (field-independent basis, Debye-Ang**3):
 XXXX=           -964.3726 YYYY=            -68.8640 ZZZZ=           -122.8859 XXXY=            -47.1812
 XXXZ=             79.2615 YYYX=            -70.0862 YYYZ=             26.4733 ZZZX=             92.5831
 ZZZY=             17.8621 XXYY=           -195.9840 XXZZ=           -196.1662 YYZZ=            -30.7848
 XXYZ=             -0.4765 YYXZ=             32.9987 ZZXY=            -14.3973
 N-N= 1.003080120317D+02 E-N=-1.327042467110D+03  KE= 4.744458934223D+02
                          Isotropic Fermi Contact Couplings
        Atom                 a.u.       MegaHertz       Gauss      10(-4) cm-1
     1  C(13)             -0.00000      -0.00000      -0.00000      -0.00000
     2  S(33)             -0.00000      -0.00000      -0.00000      -0.00000
     3  C(13)              0.00000       0.00000       0.00000       0.00000
     4  H(1)               0.00000       0.00000       0.00000       0.00000
     5  H(1)               0.00000       0.00000       0.00000       0.00000
     6  H(1)               0.00000       0.00000       0.00000       0.00000
     7  H(1)               0.00000       0.00000       0.00000       0.00000
 --------------------------------------------------------
       Center         ----  Spin Dipole Couplings  ----
                      3XX-RR        3YY-RR        3ZZ-RR
 --------------------------------------------------------
     1   Atom        0.000000      0.000000      0.000000
     2   Atom        0.000000      0.000000      0.000000
     3   Atom        0.000000      0.000000      0.000000
     4   Atom        0.000000      0.000000      0.000000
     5   Atom        0.000000      0.000000      0.000000
     6   Atom        0.000000      0.000000      0.000000
     7   Atom        0.000000      0.000000      0.000000
 --------------------------------------------------------
                        XY            XZ            YZ
 --------------------------------------------------------
     1   Atom        0.000000      0.000000      0.000000
     2   Atom        0.000000      0.000000      0.000000
     3   Atom        0.000000      0.000000      0.000000
     4   Atom        0.000000      0.000000      0.000000
     5   Atom        0.000000      0.000000      0.000000
     6   Atom        0.000000      0.000000      0.000000
     7   Atom        0.000000      0.000000      0.000000
 --------------------------------------------------------


 ---------------------------------------------------------------------------------
              Anisotropic Spin Dipole Couplings in Principal Axis System
 ---------------------------------------------------------------------------------

       Atom             a.u.   MegaHertz   Gauss  10(-4) cm-1        Axes

              Baa     0.0000     0.000     0.000     0.000  1.0000  0.0000  0.0000
     1 C(13)  Bbb     0.0000     0.000     0.000     0.000 -0.0000  1.0000  0.0000
              Bcc     0.0000     0.000     0.000     0.000  0.0000  0.0000  1.0000
 
              Baa     0.0000     0.000     0.000     0.000  1.0000  0.0000  0.0000
     2 S(33)  Bbb     0.0000     0.000     0.000     0.000 -0.0000  1.0000  0.0000
              Bcc     0.0000     0.000     0.000     0.000  0.0000  0.0000  1.0000
 
              Baa     0.0000     0.000     0.000     0.000  1.0000  0.0000  0.0000
     3 C(13)  Bbb     0.0000     0.000     0.000     0.000 -0.0000  1.0000  0.0000
              Bcc     0.0000     0.000     0.000     0.000  0.0000  0.0000  1.0000
 
              Baa     0.0000     0.000     0.000     0.000  1.0000  0.0000  0.0000
     4 H(1)   Bbb     0.0000     0.000     0.000     0.000 -0.0000  1.0000  0.0000
              Bcc     0.0000     0.000     0.000     0.000  0.0000  0.0000  1.0000
 
              Baa     0.0000     0.000     0.000     0.000  1.0000  0.0000  0.0000
     5 H(1)   Bbb     0.0000     0.000     0.000     0.000 -0.0000  1.0000  0.0000
              Bcc     0.0000     0.000     0.000     0.000  0.0000  0.0000  1.0000
 
              Baa     0.0000     0.000     0.000     0.000  1.0000  0.0000  0.0000
     6 H(1)   Bbb     0.0000     0.000     0.000     0.000 -0.0000  1.0000  0.0000
              Bcc     0.0000     0.000     0.000     0.000  0.0000  0.0000  1.0000
 
              Baa     0.0000     0.000     0.000     0.000  1.0000  0.0000  0.0000
     7 H(1)   Bbb     0.0000     0.000     0.000     0.000 -0.0000  1.0000  0.0000
              Bcc     0.0000     0.000     0.000     0.000  0.0000  0.0000  1.0000
 

 ---------------------------------------------------------------------------------

 No NMR shielding tensors so no spin-rotation constants.
 Leave Link  601 at Tue Jan  3 09:06:00 2023, MaxMem=   536870912 cpu:               0.3 elap:               0.2
 (Enter /opt/software/gaussian/g16.c01/l9999.exe)

 Test job not archived.
 1\1\GINC-GRA777\Stability\UB3LYP\Gen\C2H4S1\BHAVUK\03-Jan-2023\0\\#p u
 b3lyp/gen stable=opt scf=(maxcycle=900,verytightlineq,xqc) integral=gr
 id=ultrafine symmetry=None density=current iop(99/18=-1) output=wfn\\0
 003_q000_m01_k00_opt_uwb97xd_def2svpd/0003_q000_m01_k00_force_ub3lyp_d
 ef2svpd stable-force\\0,1\C,0,0.9838325225,-0.0325586033,0.0488580178\
 S,0,2.6071301422,0.0991997065,0.0187984451\C,0,3.2273228911,0.73619797
 7,-1.3460048506\H,0,0.570421034,-0.4575297175,0.9597448627\H,0,0.34380
 72589,0.2782232167,-0.7754915598\H,0,2.615218944,1.0564841772,-2.18774
 15072\H,0,4.3104572053,0.8236432464,-1.365823405\\Version=ES64L-G16Rev
 C.01\HF=-476.5642394\S2=0.\S2-1=0.\S2A=0.\RMSD=6.682e-09\Dipole=-0.073
 0473,0.0369177,-0.0973575\Quadrupole=0.632054,-1.4950688,0.8630148,0.3
 511287,-0.329697,-1.2800402\PG=Unknown\\@

 Writing a WFN file to "0003_q000_m01_k00_force_ub3lyp_def2svpd.wfn"


 Luck is a matter of preparation meeting opportunity.
                                    -- Oprah Winfrey
 Job cpu time:       0 days  0 hours  1 minutes 31.4 seconds.
 Elapsed time:       0 days  0 hours  0 minutes 45.9 seconds.
 File lengths (MBytes):  RWF=     84 Int=      0 D2E=      0 Chk=      3 Scr=      1
 Normal termination of Gaussian 16 at Tue Jan  3 09:06:01 2023.
 Initial command:
 /opt/software/gaussian/g16.c01/l1.exe "/localscratch/bhavuk.2151376.0/Gau-20900.inp" -scrdir="/localscratch/bhavuk.2151376.0/"
 Entering Link 1 = /opt/software/gaussian/g16.c01/l1.exe PID=     21218.
  
 Copyright (c) 1988-2019, Gaussian, Inc.  All Rights Reserved.
  
 This is part of the Gaussian(R) 16 program.  It is based on
 the Gaussian(R) 09 system (copyright 2009, Gaussian, Inc.),
 the Gaussian(R) 03 system (copyright 2003, Gaussian, Inc.),
 the Gaussian(R) 98 system (copyright 1998, Gaussian, Inc.),
 the Gaussian(R) 94 system (copyright 1995, Gaussian, Inc.),
 the Gaussian 92(TM) system (copyright 1992, Gaussian, Inc.),
 the Gaussian 90(TM) system (copyright 1990, Gaussian, Inc.),
 the Gaussian 88(TM) system (copyright 1988, Gaussian, Inc.),
 the Gaussian 86(TM) system (copyright 1986, Carnegie Mellon
 University), and the Gaussian 82(TM) system (copyright 1983,
 Carnegie Mellon University). Gaussian is a federally registered
 trademark of Gaussian, Inc.
  
 This software contains proprietary and confidential information,
 including trade secrets, belonging to Gaussian, Inc.
  
 This software is provided under written license and may be
 used, copied, transmitted, or stored only in accord with that
 written license.
  
 The following legend is applicable only to US Government
 contracts under FAR:
  
                    RESTRICTED RIGHTS LEGEND
  
 Use, reproduction and disclosure by the US Government is
 subject to restrictions as set forth in subparagraphs (a)
 and (c) of the Commercial Computer Software - Restricted
 Rights clause in FAR 52.227-19.
  
 Gaussian, Inc.
 340 Quinnipiac St., Bldg. 40, Wallingford CT 06492
  
  
 ---------------------------------------------------------------
 Warning -- This program may not be used in any manner that
 competes with the business of Gaussian, Inc. or will provide
 assistance to any competitor of Gaussian, Inc.  The licensee
 of this program is prohibited from giving any competitor of
 Gaussian, Inc. access to this program.  By using this program,
 the user acknowledges that Gaussian, Inc. is engaged in the
 business of creating and licensing software in the field of
 computational chemistry and represents and warrants to the
 licensee that it is not a competitor of Gaussian, Inc. and that
 it will not use this program in any manner prohibited above.
 ---------------------------------------------------------------
  

 Cite this work as:
 Gaussian 16, Revision C.01,
 M. J. Frisch, G. W. Trucks, H. B. Schlegel, G. E. Scuseria, 
 M. A. Robb, J. R. Cheeseman, G. Scalmani, V. Barone, 
 G. A. Petersson, H. Nakatsuji, X. Li, M. Caricato, A. V. Marenich, 
 J. Bloino, B. G. Janesko, R. Gomperts, B. Mennucci, H. P. Hratchian, 
 J. V. Ortiz, A. F. Izmaylov, J. L. Sonnenberg, D. Williams-Young, 
 F. Ding, F. Lipparini, F. Egidi, J. Goings, B. Peng, A. Petrone, 
 T. Henderson, D. Ranasinghe, V. G. Zakrzewski, J. Gao, N. Rega, 
 G. Zheng, W. Liang, M. Hada, M. Ehara, K. Toyota, R. Fukuda, 
 J. Hasegawa, M. Ishida, T. Nakajima, Y. Honda, O. Kitao, H. Nakai, 
 T. Vreven, K. Throssell, J. A. Montgomery, Jr., J. E. Peralta, 
 F. Ogliaro, M. J. Bearpark, J. J. Heyd, E. N. Brothers, K. N. Kudin, 
 V. N. Staroverov, T. A. Keith, R. Kobayashi, J. Normand, 
 K. Raghavachari, A. P. Rendell, J. C. Burant, S. S. Iyengar, 
 J. Tomasi, M. Cossi, J. M. Millam, M. Klene, C. Adamo, R. Cammi, 
 J. W. Ochterski, R. L. Martin, K. Morokuma, O. Farkas, 
 J. B. Foresman, and D. J. Fox, Gaussian, Inc., Wallingford CT, 2019.
 
 ******************************************
 Gaussian 16:  ES64L-G16RevC.01  3-Jul-2019
                 3-Jan-2023 
 ******************************************
 %chk=0003_q000_m01_k00_force_ub3lyp_def2svpd.chk
 %nprocshared=2
 Will use up to    2 processors via shared memory.
 %mem=4GB
 ----------------------------------------------------------------------
 #p ub3lyp/chkbasis force guess=read geom=check scf=(maxcycle=900,veryt
 ightlineq,xqc) integral=grid=ultrafine symmetry=None density=current p
 op=(cm5,hlygat,mbs,npa) output=wfx
 ----------------------------------------------------------------------
 1/10=7,29=2,30=1,38=1/1,3;
 2/12=2,15=3,40=1/2;
 3/5=7,6=2,11=2,14=-4,25=1,30=1,67=1,71=1,74=-5,75=-5,116=2/1,2,3;
 4/5=1/1;
 5/5=2,7=900,8=3,13=1,17=3,38=6/2,8;
 6/7=2,8=2,9=2,10=2,15=8,20=15,22=-1,27=100,28=1,40=-1,79=1/1,2,7;
 7/29=1,30=1/1,2,3,16;
 1/10=7,30=1/3;
 99/6=200/99;
 Leave Link    1 at Tue Jan  3 09:06:01 2023, MaxMem=   536870912 cpu:               0.2 elap:               0.1
 (Enter /opt/software/gaussian/g16.c01/l101.exe)
 ----------------------------------------------------------------------
 0003_q000_m01_k00_opt_uwb97xd_def2svpd/0003_q000_m01_k00_force_ub3lyp_
 def2svpd stable-force
 ----------------------------------------------------------------------
 Structure from the checkpoint file:  "0003_q000_m01_k00_force_ub3lyp_def2svpd.chk"
 Charge =  0 Multiplicity = 1
 Z-Matrix found in chk file.
 C,0,0.9838325225,-0.0325586033,0.0488580178
 S,0,2.6071301422,0.0991997065,0.0187984451
 C,0,3.2273228911,0.736197977,-1.3460048506
 H,0,0.570421034,-0.4575297175,0.9597448627
 H,0,0.3438072589,0.2782232167,-0.7754915598
 H,0,2.615218944,1.0564841772,-2.1877415072
 H,0,4.3104572053,0.8236432464,-1.365823405
 Recover connectivity data from disk.
 ITRead=  0  0  0  0  0  0  0
 MicOpt= -1 -1 -1 -1 -1 -1 -1
 NAtoms=      7 NQM=        7 NQMF=       0 NMMI=      0 NMMIF=      0
                NMic=       0 NMicF=      0.
                    Isotopes and Nuclear Properties:
 (Nuclear quadrupole moments (NQMom) in fm**2, nuclear magnetic moments (NMagM)
  in nuclear magnetons)

  Atom         1           2           3           4           5           6           7
 IAtWgt=          12          32          12           1           1           1           1
 AtmWgt=  12.0000000  31.9720718  12.0000000   1.0078250   1.0078250   1.0078250   1.0078250
 NucSpn=           0           0           0           1           1           1           1
 AtZEff=   3.6000000  13.6000000   3.6000000   1.0000000   1.0000000   1.0000000   1.0000000
 NQMom=    0.0000000   0.0000000   0.0000000   0.0000000   0.0000000   0.0000000   0.0000000
 NMagM=    0.0000000   0.0000000   0.0000000   2.7928460   2.7928460   2.7928460   2.7928460
 AtZNuc=   6.0000000  16.0000000   6.0000000   1.0000000   1.0000000   1.0000000   1.0000000
 Leave Link  101 at Tue Jan  3 09:06:01 2023, MaxMem=   536870912 cpu:               0.4 elap:               0.2
 (Enter /opt/software/gaussian/g16.c01/l103.exe)

 GradGradGradGradGradGradGradGradGradGradGradGradGradGradGradGradGradGrad
 Berny optimization.
 Initialization pass.
 Trust Radius=3.00D-01 FncErr=1.00D-07 GrdErr=1.00D-07 EigMax=2.50D+02 EigMin=1.00D-04
 Number of steps in this run=      2 maximum allowed number of steps=      2.
 GradGradGradGradGradGradGradGradGradGradGradGradGradGradGradGradGradGrad

 Leave Link  103 at Tue Jan  3 09:06:01 2023, MaxMem=   536870912 cpu:               0.1 elap:               0.0
 (Enter /opt/software/gaussian/g16.c01/l202.exe)
                          Input orientation:                          
 ---------------------------------------------------------------------
 Center     Atomic      Atomic             Coordinates (Angstroms)
 Number     Number       Type             X           Y           Z
 ---------------------------------------------------------------------
      1          6           0        0.983833   -0.032559    0.048858
      2         16           0        2.607130    0.099200    0.018798
      3          6           0        3.227323    0.736198   -1.346005
      4          1           0        0.570421   -0.457530    0.959745
      5          1           0        0.343807    0.278223   -0.775492
      6          1           0        2.615219    1.056484   -2.187742
      7          1           0        4.310457    0.823643   -1.365823
 ---------------------------------------------------------------------
                    Distance matrix (angstroms):
                    1          2          3          4          5
     1  C    0.000000
     2  S    1.628913   0.000000
     3  C    2.751341   1.628832   0.000000
     4  H    1.086841   2.311604   3.714915   0.000000
     5  H    1.088931   2.405323   2.974876   1.898350   0.000000
     6  H    2.974864   2.405260   1.088933   4.047234   2.785579
     7  H    3.714948   2.311562   1.086839   4.586670   4.047257
                    6          7
     6  H    0.000000
     7  H    1.898314   0.000000
 Symmetry turned off by external request.
 Stoichiometry    C2H4S
 Rotational constants (GHZ):          32.8865896           8.4327606           6.7117401
 Leave Link  202 at Tue Jan  3 09:06:01 2023, MaxMem=   536870912 cpu:               0.0 elap:               0.0
 (Enter /opt/software/gaussian/g16.c01/l301.exe)
 Basis read from chk: "0003_q000_m01_k00_force_ub3lyp_def2svpd.chk" (5D, 7F)
 No pseudopotential information found on chk file.
    99 basis functions,   151 primitive gaussians,   105 cartesian basis functions
    16 alpha electrons       16 beta electrons
       nuclear repulsion energy       100.3080120317 Hartrees.
 IExCor=  402 DFT=T Ex+Corr=B3LYP ExCW=0 ScaHFX=  0.200000
 ScaDFX=  0.800000  0.720000  1.000000  0.810000 ScalE2=  1.000000  1.000000
 IRadAn=      5 IRanWt=     -1 IRanGd=            0 ICorTp=0 IEmpDi=  4
 NAtoms=    7 NActive=    7 NUniq=    7 SFac= 1.00D+00 NAtFMM=   60 NAOKFM=F Big=F
 Integral buffers will be    131072 words long.
 Raffenetti 2 integral format.
 Two-electron integral symmetry is turned off.
 No density basis found on file  20724.
 Leave Link  301 at Tue Jan  3 09:06:01 2023, MaxMem=   536870912 cpu:               0.1 elap:               0.1
 (Enter /opt/software/gaussian/g16.c01/l302.exe)
 NPDir=0 NMtPBC=     1 NCelOv=     1 NCel=       1 NClECP=     1 NCelD=      1
         NCelK=      1 NCelE2=     1 NClLst=     1 CellRange=     0.0.
 One-electron integrals computed using PRISM.
 NBasis=    99 RedAO= T EigKep=  4.04D-04  NBF=    99
 NBsUse=    99 1.00D-06 EigRej= -1.00D+00 NBFU=    99
 Precomputing XC quadrature grid using
 IXCGrd= 4 IRadAn=           5 IRanWt=          -1 IRanGd=           0 AccXCQ= 0.00D+00.
 Generated NRdTot=       0 NPtTot=           0 NUsed=           0 NTot=          32
 NSgBfM=   105   105   105   105   105 MxSgAt=     7 MxSgA2=     7.
 Leave Link  302 at Tue Jan  3 09:06:01 2023, MaxMem=   536870912 cpu:               0.3 elap:               0.2
 (Enter /opt/software/gaussian/g16.c01/l303.exe)
 DipDrv:  MaxL=1.
 Leave Link  303 at Tue Jan  3 09:06:01 2023, MaxMem=   536870912 cpu:               0.1 elap:               0.0
 (Enter /opt/software/gaussian/g16.c01/l401.exe)
 Initial guess from the checkpoint file:  "0003_q000_m01_k00_force_ub3lyp_def2svpd.chk"
 B after Tr=     0.000000    0.000000    0.000000
         Rot=    1.000000    0.000000    0.000000    0.000000 Ang=   0.00 deg.
 Guess basis will be translated and rotated to current coordinates.
 JPrj=2 DoOrth=T DoCkMO=T.
 Initial guess <Sx>= 0.0000 <Sy>= 0.0000 <Sz>= 0.0000 <S**2>= 0.0000 S= 0.0000
 Leave Link  401 at Tue Jan  3 09:06:01 2023, MaxMem=   536870912 cpu:               0.2 elap:               0.1
 (Enter /opt/software/gaussian/g16.c01/l502.exe)
 Keep R1 and R2 ints in memory in canonical form, NReq=26369765.
 FoFCou: FMM=F IPFlag=           0 FMFlag=           0 FMFlg1=           0
         NFxFlg=           0 DoJE=F BraDBF=F KetDBF=F FulRan=T
         wScrn=  0.000000 ICntrl=       600 IOpCl=  0 I1Cent=           0 NGrid=           0
         NMat0=    1 NMatS0=   4950 NMatT0=    0 NMatD0=    1 NMtDS0=    0 NMtDT0=    0
 Symmetry not used in FoFCou.
 Two-electron integral symmetry not used.
 UHF open shell SCF:
 Using DIIS extrapolation, IDIIS=  1040.
 NGot=   536870912 LenX=   512339727 LenY=   512328261
 Requested convergence on RMS density matrix=1.00D-08 within 128 cycles.
 Requested convergence on MAX density matrix=1.00D-06.
 Requested convergence on             energy=1.00D-06.
 No special actions if energy rises.

 Cycle   1  Pass 1  IDiag  1:
 E= -476.564239427855    
 DIIS: error= 3.99D-09 at cycle   1 NSaved=   1.
 NSaved= 1 IEnMin= 1 EnMin= -476.564239427855     IErMin= 1 ErrMin= 3.99D-09
 ErrMax= 3.99D-09  0.00D+00 EMaxC= 1.00D-01 BMatC= 6.65D-15 BMatP= 6.65D-15
 IDIUse=1 WtCom= 1.00D+00 WtEn= 0.00D+00
 Coeff-Com:  0.100D+01
 Coeff:      0.100D+01
 Gap=     0.145 Goal=   None    Shift=    0.000
 Gap=     0.145 Goal=   None    Shift=    0.000
 RMSDP=1.29D-09 MaxDP=3.61D-08              OVMax= 3.67D-08

 SCF Done:  E(UB3LYP) =  -476.564239428     A.U. after    1 cycles
            NFock=  1  Conv=0.13D-08     -V/T= 2.0045
 <Sx>= 0.0000 <Sy>= 0.0000 <Sz>= 0.0000 <S**2>= 0.0000 S= 0.0000
 <L.S>=  0.00000000000    
 KE= 4.744458930281D+02 PE=-1.327042466716D+03 EE= 2.757243222284D+02
 Annihilation of the first spin contaminant:
 S**2 before annihilation     0.0000,   after     0.0000
 Leave Link  502 at Tue Jan  3 09:06:03 2023, MaxMem=   536870912 cpu:               2.7 elap:               1.4
 (Enter /opt/software/gaussian/g16.c01/l508.exe)
 QCSCF skips out because SCF is already converged.
 Leave Link  508 at Tue Jan  3 09:06:03 2023, MaxMem=   536870912 cpu:               0.0 elap:               0.0
 (Enter /opt/software/gaussian/g16.c01/l601.exe)
 Copying SCF densities to generalized density rwf, IOpCl= 1 IROHF=0.

 **********************************************************************

            Population analysis using the SCF Density.

 **********************************************************************

 Alpha  occ. eigenvalues --  -88.92417 -10.20158 -10.20151  -8.00992  -5.97728
 Alpha  occ. eigenvalues --   -5.97560  -5.97278  -0.85599  -0.69686  -0.57165
 Alpha  occ. eigenvalues --   -0.47390  -0.46641  -0.40938  -0.36547  -0.33846
 Alpha  occ. eigenvalues --   -0.20402
 Alpha virt. eigenvalues --   -0.05944   0.02097   0.02742   0.03857   0.06163
 Alpha virt. eigenvalues --    0.06820   0.07977   0.08303   0.09673   0.14172
 Alpha virt. eigenvalues --    0.15813   0.17147   0.17679   0.19050   0.19946
 Alpha virt. eigenvalues --    0.21346   0.21823   0.23888   0.24076   0.24899
 Alpha virt. eigenvalues --    0.27279   0.29963   0.31749   0.32184   0.33405
 Alpha virt. eigenvalues --    0.33622   0.36070   0.37815   0.38796   0.40188
 Alpha virt. eigenvalues --    0.41046   0.43106   0.43865   0.44082   0.44248
 Alpha virt. eigenvalues --    0.48905   0.50590   0.53295   0.54398   0.60597
 Alpha virt. eigenvalues --    0.74120   0.75235   0.76934   0.77816   0.78902
 Alpha virt. eigenvalues --    0.82062   0.84152   0.87525   0.89113   0.93803
 Alpha virt. eigenvalues --    0.96297   0.97843   0.99105   1.01603   1.04031
 Alpha virt. eigenvalues --    1.12973   1.13788   1.21185   1.26831   1.30680
 Alpha virt. eigenvalues --    1.42041   1.44194   1.50385   1.60821   1.62544
 Alpha virt. eigenvalues --    1.68411   1.74915   1.81330   1.84322   2.03921
 Alpha virt. eigenvalues --    2.06643   2.12296   2.12880   2.13066   2.16751
 Alpha virt. eigenvalues --    2.28630   2.29147   2.43922   2.52138   2.96545
 Alpha virt. eigenvalues --    2.96933   2.99838   3.00223
  Beta  occ. eigenvalues --  -88.92417 -10.20158 -10.20151  -8.00992  -5.97728
  Beta  occ. eigenvalues --   -5.97560  -5.97278  -0.85599  -0.69686  -0.57165
  Beta  occ. eigenvalues --   -0.47390  -0.46641  -0.40938  -0.36547  -0.33846
  Beta  occ. eigenvalues --   -0.20402
  Beta virt. eigenvalues --   -0.05944   0.02097   0.02742   0.03857   0.06163
  Beta virt. eigenvalues --    0.06820   0.07977   0.08303   0.09673   0.14172
  Beta virt. eigenvalues --    0.15813   0.17147   0.17679   0.19050   0.19946
  Beta virt. eigenvalues --    0.21346   0.21823   0.23888   0.24076   0.24899
  Beta virt. eigenvalues --    0.27279   0.29963   0.31749   0.32184   0.33405
  Beta virt. eigenvalues --    0.33622   0.36070   0.37815   0.38796   0.40188
  Beta virt. eigenvalues --    0.41046   0.43106   0.43865   0.44082   0.44248
  Beta virt. eigenvalues --    0.48905   0.50590   0.53295   0.54398   0.60597
  Beta virt. eigenvalues --    0.74120   0.75235   0.76934   0.77816   0.78902
  Beta virt. eigenvalues --    0.82062   0.84152   0.87525   0.89113   0.93803
  Beta virt. eigenvalues --    0.96297   0.97843   0.99105   1.01603   1.04031
  Beta virt. eigenvalues --    1.12973   1.13788   1.21185   1.26831   1.30680
  Beta virt. eigenvalues --    1.42041   1.44194   1.50385   1.60821   1.62544
  Beta virt. eigenvalues --    1.68411   1.74915   1.81330   1.84322   2.03921
  Beta virt. eigenvalues --    2.06643   2.12296   2.12880   2.13066   2.16751
  Beta virt. eigenvalues --    2.28630   2.29147   2.43922   2.52138   2.96545
  Beta virt. eigenvalues --    2.96933   2.99838   3.00223
          Condensed to atoms (all electrons):
               1          2          3          4          5          6
     1  C    4.434291   0.375382  -0.119792   0.276752   0.461558  -0.066574
     2  S    0.375382  15.599048   0.375383  -0.022913  -0.095581  -0.095624
     3  C   -0.119792   0.375383   4.434295   0.029250  -0.066580   0.461574
     4  H    0.276752  -0.022913   0.029250   1.256661  -0.222117   0.006451
     5  H    0.461558  -0.095581  -0.066580  -0.222117   1.170407  -0.023355
     6  H   -0.066574  -0.095624   0.461574   0.006451  -0.023355   1.170346
     7  H    0.029247  -0.022910   0.276728  -0.002088   0.006451  -0.222094
               7
     1  C    0.029247
     2  S   -0.022910
     3  C    0.276728
     4  H   -0.002088
     5  H    0.006451
     6  H   -0.222094
     7  H    1.256652
          Atomic-Atomic Spin Densities.
               1          2          3          4          5          6
     1  C    0.000000  -0.000000  -0.000000  -0.000000   0.000000  -0.000000
     2  S   -0.000000  -0.000000   0.000000  -0.000000   0.000000   0.000000
     3  C   -0.000000   0.000000  -0.000000   0.000000  -0.000000   0.000000
     4  H   -0.000000  -0.000000   0.000000   0.000000  -0.000000   0.000000
     5  H    0.000000   0.000000  -0.000000  -0.000000   0.000000   0.000000
     6  H   -0.000000   0.000000   0.000000   0.000000   0.000000  -0.000000
     7  H    0.000000   0.000000  -0.000000  -0.000000   0.000000   0.000000
               7
     1  C    0.000000
     2  S    0.000000
     3  C   -0.000000
     4  H   -0.000000
     5  H    0.000000
     6  H    0.000000
     7  H    0.000000
 Mulliken charges and spin densities:
               1          2
     1  C    0.609136  -0.000000
     2  S   -0.112785   0.000000
     3  C    0.609142  -0.000000
     4  H   -0.321998  -0.000000
     5  H   -0.230784   0.000000
     6  H   -0.230723   0.000000
     7  H   -0.321987   0.000000
 Sum of Mulliken charges =   0.00000   0.00000
 Mulliken charges and spin densities with hydrogens summed into heavy atoms:
               1          2
     1  C    0.056353  -0.000000
     2  S   -0.112785   0.000000
     3  C    0.056431  -0.000000
 Electronic spatial extent (au):  <R**2>=            871.6671
 Charge=             -0.0000 electrons
 Dipole moment (field-independent basis, Debye):
    X=             -0.1857    Y=              0.0938    Z=             -0.2475  Tot=              0.3233
 Quadrupole moment (field-independent basis, Debye-Ang):
   XX=            -25.7465   YY=            -28.6076   ZZ=            -25.4359
   XY=              0.4723   XZ=             -0.4435   YZ=             -1.7217
 Traceless Quadrupole moment (field-independent basis, Debye-Ang):
   XX=              0.8501   YY=             -2.0109   ZZ=              1.1608
   XY=              0.4723   XZ=             -0.4435   YZ=             -1.7217
 Octapole moment (field-independent basis, Debye-Ang**2):
  XXX=           -175.3362  YYY=            -21.3077  ZZZ=             26.5977  XYY=            -66.3581
  XXY=             -3.8006  XXZ=              7.0157  XZZ=            -61.6211  YZZ=             -4.3140
  YYZ=              9.7014  XYZ=             -2.9625
 Hexadecapole moment (field-independent basis, Debye-Ang**3):
 XXXX=           -964.3726 YYYY=            -68.8640 ZZZZ=           -122.8859 XXXY=            -47.1812
 XXXZ=             79.2615 YYYX=            -70.0862 YYYZ=             26.4733 ZZZX=             92.5831
 ZZZY=             17.8621 XXYY=           -195.9840 XXZZ=           -196.1662 YYZZ=            -30.7848
 XXYZ=             -0.4765 YYXZ=             32.9987 ZZXY=            -14.3973
 N-N= 1.003080120317D+02 E-N=-1.327042465843D+03  KE= 4.744458930281D+02
 There are a total of      158266 grid points.
 ElSum from          density=       31.9999996758
 ElSum from atomic densities=       32.0000007239

 Hirshfeld populations at iteration   1 (CX, CA, CB, DipXYZ):
               1          2          3          4          5          6
     1  C    0.000000   3.078084   3.078084  -0.044927   0.008143  -0.026266
     2  S    0.000005   7.915968   7.915968  -0.028213   0.014226  -0.037547
     3  C    0.000000   3.078078   3.078078  -0.010600   0.019842  -0.047636
     4  H    0.000003   0.483230   0.483230  -0.077190  -0.065047   0.137062
     5  H    0.000000   0.480708   0.480708  -0.102081   0.045898  -0.123021
     6  H    0.000000   0.480705   0.480705  -0.088960   0.050384  -0.131180
     7  H    0.000002   0.483227   0.483227   0.168423   0.019053  -0.015684
       Tot   0.000012  16.000000  16.000000  -0.183547   0.092498  -0.244271

 Dip from Atomic Chgs              0.110500  -0.055588   0.146909
         Total Dipole             -0.073047   0.036910  -0.097362

 Hirshfeld charges, spin densities, dipoles, and CM5 charges using IRadAn=      5:
              Q-H        S-H        Dx         Dy         Dz        Q-CM5   
     1  C   -0.156168   0.000000  -0.044927   0.008143  -0.026266  -0.235019
     2  S    0.168065   0.000000  -0.028213   0.014226  -0.037547   0.111458
     3  C   -0.156156   0.000000  -0.010600   0.019842  -0.047636  -0.235003
     4  H    0.033539  -0.000000  -0.077190  -0.065047   0.137062   0.087660
     5  H    0.038585  -0.000000  -0.102081   0.045898  -0.123021   0.091615
     6  H    0.038590   0.000000  -0.088960   0.050384  -0.131180   0.091621
     7  H    0.033546   0.000000   0.168423   0.019053  -0.015684   0.087668
       Tot   0.000000   0.000000  -0.183547   0.092498  -0.244271   0.000000
 Hirshfeld charges and spin densities with hydrogens summed into heavy atoms:
              Q-H        S-H       Q-CM5   
     1  C   -0.084044   0.000000  -0.055743
     2  S    0.168065   0.000000   0.111458
     3  C   -0.084020   0.000000  -0.055715
 
 EQQ= 0.727047811731E-29 EQD=-0.524775569534E-15 EDD= 0.161245411711E-02
 EQQ+QD+DD= 0.161245411711E-02
 
 GSVD:  LWork=       -1008 too small for GESVD, short by        4340 words or        4340 for optimal perf.
          MBS Condensed to atoms (all electrons):
               1          2          3          4          5          6
     1  C    5.097540   0.468416  -0.018702   0.384913   0.378959  -0.002041
     2  S    0.468416  15.007157   0.468446  -0.023081  -0.016791  -0.016791
     3  C   -0.018702   0.468446   5.097468   0.000742  -0.002040   0.378957
     4  H    0.384913  -0.023081   0.000742   0.529367  -0.017905   0.000000
     5  H    0.378959  -0.016791  -0.002040  -0.017905   0.540528   0.001291
     6  H   -0.002041  -0.016791   0.378957   0.000000   0.001291   0.540533
     7  H    0.000742  -0.023082   0.384913  -0.000021   0.000000  -0.017906
               7
     1  C    0.000742
     2  S   -0.023082
     3  C    0.384913
     4  H   -0.000021
     5  H    0.000000
     6  H   -0.017906
     7  H    0.529367
          MBS Atomic-Atomic Spin Densities.
               1          2          3          4          5          6
     1  C    0.000000   0.000000  -0.000000  -0.000000  -0.000000   0.000000
     2  S    0.000000  -0.000000   0.000000   0.000000   0.000000  -0.000000
     3  C   -0.000000   0.000000   0.000000   0.000000   0.000000   0.000000
     4  H   -0.000000   0.000000   0.000000  -0.000000   0.000000  -0.000000
     5  H   -0.000000   0.000000   0.000000   0.000000  -0.000000  -0.000000
     6  H    0.000000  -0.000000   0.000000  -0.000000  -0.000000   0.000000
     7  H    0.000000  -0.000000  -0.000000   0.000000  -0.000000   0.000000
               7
     1  C    0.000000
     2  S   -0.000000
     3  C   -0.000000
     4  H    0.000000
     5  H   -0.000000
     6  H    0.000000
     7  H    0.000000
 MBS Mulliken charges and spin densities:
               1          2
     1  C   -0.309827   0.000000
     2  S    0.135725  -0.000000
     3  C   -0.309784   0.000000
     4  H    0.125984  -0.000000
     5  H    0.115958  -0.000000
     6  H    0.115958   0.000000
     7  H    0.125986  -0.000000
 Sum of MBS Mulliken charges =  -0.00000   0.00000
 MBS Mulliken charges and spin densities with hydrogens summed into heavy atoms:
               1          2
     1  C   -0.067885   0.000000
     2  S    0.135725  -0.000000
     3  C   -0.067840   0.000000
 MBS Atomic Valencies and Mayer Atomic Bond Orders:
               1          2          3          4          5          6
     1  C    3.867314   1.604886   0.353925   0.947189   0.948761   0.002826
     2  S    1.604886   3.312891   1.604937   0.021747   0.029785   0.029788
     3  C    0.353925   1.604937   3.867350   0.009723   0.002824   0.948758
     4  H    0.947189   0.021747   0.009723   0.984128   0.003196   0.000001
     5  H    0.948761   0.029785   0.002824   0.003196   0.986554   0.001987
     6  H    0.002826   0.029788   0.948758   0.000001   0.001987   0.986554
     7  H    0.009727   0.021748   0.947184   0.002272   0.000001   0.003195
               7
     1  C    0.009727
     2  S    0.021748
     3  C    0.947184
     4  H    0.002272
     5  H    0.000001
     6  H    0.003195
     7  H    0.984127
 MBS Mayer-style numbers of lone pairs (16.000 valence pairs, 8.506 lone pairs):
               1
     1  C    1.221257
     2  S    6.275692
     3  C    1.221217
     4  H   -0.055056
     5  H   -0.051256
     6  H   -0.051256
     7  H   -0.055057
 BEBO parameters in MulMin, MxElBE=  0:
 ELP=  0.00000000000     EBEBO=  0.00000000000     Sum=  0.00000000000    
 ELP=  0.00000000000     EBEBO=  0.00000000000     EJK=  0.00000000000      0.00000000000     Sum=  0.00000000000    
 0 EA=  0.00000000000     EB=  0.00000000000     ETot=  0.00000000000    
 1 EA=  0.00000000000     EB=  0.00000000000     ETot=  0.00000000000    
 2 EA=  0.00000000000     EB=  0.00000000000     ETot=  0.00000000000    
 3 EJ=  0.00000000000     EK=  0.00000000000     ETot=  0.00000000000    
 4 EJ=  0.00000000000     EK=  0.00000000000     ETot=  0.00000000000    
 5 EA=  0.00000000000     EB=  0.00000000000     ETot=  0.00000000000    
                          Isotropic Fermi Contact Couplings
        Atom                 a.u.       MegaHertz       Gauss      10(-4) cm-1
     1  C(13)              0.00000       0.00000       0.00000       0.00000
     2  S(33)              0.00000       0.00000       0.00000       0.00000
     3  C(13)              0.00000       0.00000       0.00000       0.00000
     4  H(1)              -0.00000      -0.00000      -0.00000      -0.00000
     5  H(1)               0.00000       0.00000       0.00000       0.00000
     6  H(1)               0.00000       0.00000       0.00000       0.00000
     7  H(1)               0.00000       0.00000       0.00000       0.00000
 --------------------------------------------------------
       Center         ----  Spin Dipole Couplings  ----
                      3XX-RR        3YY-RR        3ZZ-RR
 --------------------------------------------------------
     1   Atom        0.000000      0.000000      0.000000
     2   Atom        0.000000      0.000000      0.000000
     3   Atom        0.000000      0.000000      0.000000
     4   Atom        0.000000      0.000000      0.000000
     5   Atom        0.000000      0.000000      0.000000
     6   Atom        0.000000      0.000000      0.000000
[...]


 NBO analysis skipped by request.


 ***************************************************
 *******         Beta  spin orbitals         *******
 ***************************************************


 NATURAL POPULATIONS:  Natural atomic orbital occupancies 
                                                          
   NAO  Atom  No  lang   Type(AO)    Occupancy      Energy
 ----------------------------------------------------------
     1    C    1  S      Cor( 1S)     0.99978     -10.10253
     2    C    1  S      Val( 2S)     0.57891      -0.34180
     3    C    1  S      Ryd( 4S)     0.00061       0.78236
     4    C    1  S      Ryd( 3S)     0.00002       0.76271
     5    C    1  px     Val( 2p)     0.52507      -0.14827
     6    C    1  px     Ryd( 3p)     0.00300       0.70029
     7    C    1  py     Val( 2p)     0.66185      -0.15955
     8    C    1  py     Ryd( 3p)     0.00343       0.65215
     9    C    1  pz     Val( 2p)     0.63901      -0.10816
    10    C    1  pz     Ryd( 3p)     0.00149       0.81579
    11    C    1  dxy    Ryd( 4d)     0.00089       1.63522
    12    C    1  dxy    Ryd( 3d)     0.00013       0.81691
    13    C    1  dxz    Ryd( 4d)     0.00040       2.05114
    14    C    1  dxz    Ryd( 3d)     0.00014       0.99451
    15    C    1  dyz    Ryd( 4d)     0.00023       1.60459
    16    C    1  dyz    Ryd( 3d)     0.00013       0.93271
    17    C    1  dx2y2  Ryd( 4d)     0.00139       1.82825
    18    C    1  dx2y2  Ryd( 3d)     0.00004       0.82652
    19    C    1  dz2    Ryd( 4d)     0.00073       1.81744
    20    C    1  dz2    Ryd( 3d)     0.00011       0.87951
 
    21    S    2  S      Cor( 1S)     1.00000     -88.31053
    22    S    2  S      Cor( 2S)     0.99947      -8.32460
    23    S    2  S      Val( 3S)     0.75220      -0.70212
    24    S    2  S      Ryd( 5S)     0.00564       0.69870
    25    S    2  S      Ryd( 4S)     0.00009       0.30859
    26    S    2  px     Cor( 2p)     0.99985      -5.96549
    27    S    2  px     Val( 3p)     0.56194      -0.17970
    28    S    2  px     Ryd( 5p)     0.00276       0.87163
    29    S    2  px     Ryd( 4p)     0.00004       0.24409
    30    S    2  py     Cor( 2p)     0.99991      -5.96836
    31    S    2  py     Val( 3p)     0.63182      -0.24100
    32    S    2  py     Ryd( 5p)     0.00065       0.76555
    33    S    2  py     Ryd( 4p)     0.00001       0.21538
    34    S    2  pz     Cor( 2p)     0.99988      -5.96565
    35    S    2  pz     Val( 3p)     0.65838      -0.21819
    36    S    2  pz     Ryd( 5p)     0.00200       0.83596
    37    S    2  pz     Ryd( 4p)     0.00004       0.23271
    38    S    2  dxy    Ryd( 4d)     0.00895       0.69736
    39    S    2  dxy    Ryd( 3d)     0.00003       0.57698
    40    S    2  dxz    Ryd( 4d)     0.00417       0.86496
    41    S    2  dxz    Ryd( 3d)     0.00009       0.64772
    42    S    2  dyz    Ryd( 4d)     0.00486       0.71695
    43    S    2  dyz    Ryd( 3d)     0.00004       0.60819
    44    S    2  dx2y2  Ryd( 4d)     0.00609       0.87098
    45    S    2  dx2y2  Ryd( 3d)     0.00008       0.67433
    46    S    2  dz2    Ryd( 4d)     0.00595       0.84924
    47    S    2  dz2    Ryd( 3d)     0.00006       0.63402
 
    48    C    3  S      Cor( 1S)     0.99978     -10.10252
    49    C    3  S      Val( 2S)     0.57890      -0.34180
    50    C    3  S      Ryd( 4S)     0.00061       0.78237
    51    C    3  S      Ryd( 3S)     0.00002       0.76271
    52    C    3  px     Val( 2p)     0.61574      -0.10789
    53    C    3  px     Ryd( 3p)     0.00143       0.82441
    54    C    3  py     Val( 2p)     0.64619      -0.16653
    55    C    3  py     Ryd( 3p)     0.00370       0.63072
    56    C    3  pz     Val( 2p)     0.56401      -0.14159
    57    C    3  pz     Ryd( 3p)     0.00279       0.71309
    58    C    3  dxy    Ryd( 4d)     0.00026       1.61563
    59    C    3  dxy    Ryd( 3d)     0.00003       0.79264
    60    C    3  dxz    Ryd( 4d)     0.00102       2.01153
    61    C    3  dxz    Ryd( 3d)     0.00013       0.89873
    62    C    3  dyz    Ryd( 4d)     0.00102       1.68141
    63    C    3  dyz    Ryd( 3d)     0.00009       0.82888
    64    C    3  dx2y2  Ryd( 4d)     0.00042       1.73050
    65    C    3  dx2y2  Ryd( 3d)     0.00020       1.07004
    66    C    3  dz2    Ryd( 4d)     0.00093       1.89763
    67    C    3  dz2    Ryd( 3d)     0.00009       0.85975
 
    68    H    4  S      Val( 1S)     0.37390       0.04783
    69    H    4  S      Ryd( 2S)     0.00027       0.42421
    70    H    4  px     Ryd( 2p)     0.00079       0.80412
    71    H    4  px     Ryd( 3p)     0.00016       1.57689
    72    H    4  py     Ryd( 2p)     0.00036       0.77437
    73    H    4  py     Ryd( 3p)     0.00003       1.47474
    74    H    4  pz     Ryd( 2p)     0.00055       1.01386
    75    H    4  pz     Ryd( 3p)     0.00008       1.60926
 
    76    H    5  S      Val( 1S)     0.38226       0.04620
    77    H    5  S      Ryd( 2S)     0.00057       0.46041
    78    H    5  px     Ryd( 2p)     0.00041       1.24968
    79    H    5  px     Ryd( 3p)     0.00015       1.32668
    80    H    5  py     Ryd( 2p)     0.00009       0.98791
    81    H    5  py     Ryd( 3p)     0.00005       1.25152
    82    H    5  pz     Ryd( 2p)     0.00041       1.26809
    83    H    5  pz     Ryd( 3p)     0.00006       1.36628
 
    84    H    6  S      Val( 1S)     0.38226       0.04619
    85    H    6  S      Ryd( 2S)     0.00057       0.46043
    86    H    6  px     Ryd( 2p)     0.00032       1.17099
    87    H    6  px     Ryd( 3p)     0.00011       1.35567
    88    H    6  py     Ryd( 2p)     0.00011       1.00127
    89    H    6  py     Ryd( 3p)     0.00006       1.24669
    90    H    6  pz     Ryd( 2p)     0.00048       1.33284
    91    H    6  pz     Ryd( 3p)     0.00009       1.34267
 
    92    H    7  S      Val( 1S)     0.37389       0.04782
    93    H    7  S      Ryd( 2S)     0.00027       0.42422
    94    H    7  px     Ryd( 2p)     0.00070       1.13166
    95    H    7  px     Ryd( 3p)     0.00009       1.68204
    96    H    7  py     Ryd( 2p)     0.00038       0.71777
    97    H    7  py     Ryd( 3p)     0.00004       1.45670
    98    H    7  pz     Ryd( 2p)     0.00063       0.74267
    99    H    7  pz     Ryd( 3p)     0.00014       1.52243

 WARNING:  Population inversion found on atom  C    1
           Population inversion found on atom  S    2
           Population inversion found on atom  C    3


 Summary of Natural Population Analysis:                  
                                                          
                                       Natural Population 
                Natural  -----------------------------------------------
    Atom  No    Charge         Core      Valence    Rydberg      Total
 -----------------------------------------------------------------------
      C    1   -0.41736      0.99978     2.40483    0.01274     3.41736
      S    2    0.35500      4.99911     2.60435    0.04155     7.64500
      C    3   -0.41736      0.99978     2.40483    0.01274     3.41736
      H    4    0.12387      0.00000     0.37390    0.00224     0.37613
      H    5    0.11599      0.00000     0.38226    0.00175     0.38401
      H    6    0.11599      0.00000     0.38226    0.00175     0.38401
      H    7    0.12387      0.00000     0.37389    0.00224     0.37613
 =======================================================================
   * Total *   -0.00000      6.99868     8.92631    0.07501    16.00000

                                 Natural Population      
 --------------------------------------------------------
   Core                       6.99868 ( 99.9811% of   7)
   Valence                    8.92631 ( 99.1813% of   9)
   Natural Minimal Basis     15.92499 ( 99.5312% of  16)
   Natural Rydberg Basis      0.07501 (  0.4688% of  16)
 --------------------------------------------------------

    Atom  No          Natural Electron Configuration
 ----------------------------------------------------------------------------
      C    1      [core]2S( 0.58)2p( 1.83)3p( 0.01)
      S    2      [core]3S( 0.75)3p( 1.85)5S( 0.01)4d( 0.03)5p( 0.01)
      C    3      [core]2S( 0.58)2p( 1.83)3p( 0.01)
      H    4            1S( 0.37)
      H    5            1S( 0.38)
      H    6            1S( 0.38)
      H    7            1S( 0.37)


 NBO analysis skipped by request.
 Leave Link  607 at Tue Jan  3 09:06:05 2023, MaxMem=   536870912 cpu:               3.6 elap:               1.8
 (Enter /opt/software/gaussian/g16.c01/l701.exe)
 ... and contract with generalized density number  0.
 Compute integral first derivatives.
 Leave Link  701 at Tue Jan  3 09:06:06 2023, MaxMem=   536870912 cpu:               0.2 elap:               0.1
 (Enter /opt/software/gaussian/g16.c01/l702.exe)
 L702 exits ... SP integral derivatives will be done elsewhere.
 Leave Link  702 at Tue Jan  3 09:06:06 2023, MaxMem=   536870912 cpu:               0.1 elap:               0.0
 (Enter /opt/software/gaussian/g16.c01/l703.exe)
 Integral derivatives from FoFJK, PRISM(SPDF).
 Compute integral first derivatives, UseDBF=F ICtDFT=           0.
 Calling FoFJK, ICntrl=      2127 FMM=F ISym2X=0 I1Cent= 0 IOpClX= 1 NMat=1 NMatS=1 NMatT=0.
 FoFJK:  IHMeth= 1 ICntrl=    2127 DoSepK=F KAlg= 0 I1Cent=           0 FoldK=F
 IRaf=         0 NMat=       1 IRICut=       1 DoRegI=T DoRafI=F ISym2E= 0 IDoP0=0 IntGTp=1.
 FoFCou: FMM=F IPFlag=           0 FMFlag=      100000 FMFlg1=         800
         NFxFlg=           0 DoJE=F BraDBF=F KetDBF=F FulRan=T
         wScrn=  0.000000 ICntrl=      2127 IOpCl=  1 I1Cent=           0 NGrid=           0
         NMat0=    1 NMatS0=      1 NMatT0=    0 NMatD0=    1 NMtDS0=    0 NMtDT0=    0
 Symmetry not used in FoFCou.
 Leave Link  703 at Tue Jan  3 09:06:08 2023, MaxMem=   536870912 cpu:               5.2 elap:               2.6
 (Enter /opt/software/gaussian/g16.c01/l716.exe)
 Dipole        =-7.30470915D-02 3.69176088D-02-9.73572408D-02
 -------------------------------------------------------------------
 Center     Atomic                   Forces (Hartrees/Bohr)
 Number     Number              X              Y              Z
 -------------------------------------------------------------------
      1        6          -0.008348454   -0.000821370    0.000511661
      2       16           0.005435029   -0.002780878    0.007306715
      3        6           0.003570649    0.003270840   -0.006943533
      4        1          -0.000373619    0.000075214   -0.000234041
      5        1          -0.000636925   -0.000146217    0.000216838
      6        1           0.000455446    0.000232025   -0.000460218
      7        1          -0.000102125    0.000170386   -0.000397423
 -------------------------------------------------------------------
 Cartesian Forces:  Max     0.008348454 RMS     0.003340225
 Z-matrix is all fixed cartesians, so copy forces.
 Force constants in Cartesian coordinates: 
                1             2             3             4             5 
      1  0.799457D+00
      2  0.386953D-01  0.202300D+00
      3  0.262318D-01 -0.197489D+00  0.573805D+00
      4 -0.458605D+00 -0.232735D-01 -0.165583D-01  0.577555D+00
      5 -0.320482D-01 -0.525335D-01  0.183029D-01  0.867656D-01  0.122175D+00
      6  0.365769D-02  0.197847D-01 -0.872720D-01 -0.110154D+00 -0.165608D+00
      7  0.122699D-02 -0.100692D-01  0.221250D-01 -0.139616D+00 -0.489763D-01
      8 -0.597775D-03  0.748286D-02  0.517705D-03 -0.577409D-01 -0.107626D+00
      9  0.278568D-03 -0.108316D-02  0.102956D-01  0.116790D+00  0.142526D+00
     10 -0.144909D+00 -0.441803D-01  0.836168D-01  0.115252D-02 -0.932375D-02
     11 -0.404522D-01 -0.846163D-01  0.105218D+00 -0.241587D-03  0.264194D-02
     12  0.750267D-01  0.104603D+00 -0.264763D+00  0.410365D-03 -0.299905D-02
     13 -0.197168D+00  0.388020D-01 -0.115426D+00 -0.916549D-03  0.691836D-02
     14  0.343779D-01 -0.722913D-01  0.735979D-01 -0.146773D-02  0.180903D-01
     15 -0.105206D+00  0.743316D-01 -0.232001D+00  0.158269D-03  0.144866D-02
     16 -0.246017D-04  0.336366D-03  0.145813D-03  0.192862D-01 -0.309494D-02
     17  0.337132D-03 -0.460942D-02 -0.199817D-02  0.528610D-02  0.146053D-01
     18  0.146171D-03 -0.199852D-02 -0.866351D-03 -0.120134D-01  0.780803D-02
     19  0.227250D-04 -0.310706D-03 -0.134690D-03  0.114404D-02 -0.240739D-03
     20 -0.312161D-03  0.426801D-02  0.185017D-02 -0.932793D-02  0.264671D-02
     21 -0.135369D-03  0.185083D-02  0.802328D-03  0.213670D-01 -0.147893D-02
                6             7             8             9            10 
      6  0.407473D+00
      7  0.965700D-01  0.667382D+00
      8  0.141042D+00  0.492959D-01  0.225135D+00
      9 -0.351317D+00 -0.206782D-01 -0.248346D+00  0.683203D+00
     10  0.213707D-01  0.228255D-04 -0.312081D-03 -0.135286D-03  0.115530D+00
     11 -0.146606D-02 -0.312069D-03  0.426675D-02  0.184962D-02  0.445604D-01
     12  0.901525D-02 -0.135235D-03  0.184900D-02  0.801534D-03 -0.864441D-01
     13 -0.191712D-01 -0.246447D-04  0.336954D-03  0.146068D-03  0.282041D-01
     14  0.324183D-04  0.336979D-03 -0.460733D-02 -0.199726D-02  0.925576D-02
     15  0.148968D-01  0.146176D-03 -0.199858D-02 -0.866379D-03 -0.184082D-01
     16  0.731953D-02 -0.179623D+00  0.329496D-01 -0.989913D-01  0.000000D+00
     17  0.921888D-02  0.373763D-01 -0.753070D-01  0.810589D-01  0.000000D+00
     18 -0.181486D-02 -0.109211D+00  0.803191D-01 -0.246533D+00  0.000000D+00
     19  0.407512D-03 -0.349368D+00 -0.239317D-01  0.258983D-02  0.000000D+00
     20 -0.300348D-02 -0.276515D-01 -0.493443D-01  0.259912D-01  0.000000D+00
     21  0.901933D-02  0.111835D-01  0.266169D-01 -0.955832D-01  0.000000D+00
               11            12            13            14            15 
     11  0.698063D-01
     12 -0.111340D+00  0.260624D+00
     13 -0.355446D-02  0.111423D-01  0.169905D+00
     14  0.790132D-02  0.788712D-02 -0.425029D-01  0.509070D-01
     15  0.573850D-02 -0.567740D-02  0.123309D+00 -0.795202D-01  0.223648D+00
     16  0.000000D+00  0.000000D+00  0.000000D+00  0.000000D+00  0.000000D+00
     17  0.000000D+00  0.000000D+00  0.000000D+00  0.000000D+00  0.000000D+00
     18  0.000000D+00  0.000000D+00  0.000000D+00  0.000000D+00  0.000000D+00
     19  0.000000D+00  0.000000D+00  0.000000D+00  0.000000D+00  0.000000D+00
     20  0.000000D+00  0.000000D+00  0.000000D+00  0.000000D+00  0.000000D+00
     21  0.000000D+00  0.000000D+00  0.000000D+00  0.000000D+00  0.000000D+00
               16            17            18            19            20 
     16  0.161831D+00
     17 -0.418445D-01  0.522901D-01
     18  0.120449D+00 -0.826089D-01  0.230340D+00
     19 -0.147004D-02 -0.115499D-02  0.629518D-03  0.349671D+00
     20  0.116534D-01  0.130211D-01 -0.351969D-02  0.256381D-01  0.294086D-01
     21 -0.289230D-01 -0.567069D-02  0.188748D-01 -0.349217D-02 -0.213182D-01
               21 
     21  0.668867D-01
 Leave Link  716 at Tue Jan  3 09:06:08 2023, MaxMem=   536870912 cpu:               0.1 elap:               0.0
 (Enter /opt/software/gaussian/g16.c01/l103.exe)

 GradGradGradGradGradGradGradGradGradGradGradGradGradGradGradGradGradGrad
 Berny optimization.
 Search for a local minimum.
 Step number   1 out of a maximum of    2
 All quantities printed in internal units (Hartrees-Bohrs-Radians)
 Second derivative matrix not updated -- first step.
 ITU=  0
     Eigenvalues ---    0.00860   0.01482   0.01804   0.07108   0.07556
     Eigenvalues ---    0.11270   0.14823   0.15345   0.17618   0.32617
     Eigenvalues ---    0.36576   0.82416   0.92900   1.11635   1.31988
 Angle between quadratic step and forces=  66.52 degrees.
 Linear search not attempted -- first point.
 B after Tr=     0.000023    0.000005    0.000057
         Rot=    1.000000   -0.000020   -0.000007    0.000014 Ang=  -0.00 deg.
 Variable       Old X    -DE/DX   Delta X   Delta X   Delta X     New X
                                 (Linear)    (Quad)   (Total)
    X1        1.85917  -0.00835   0.00000  -0.01908  -0.01905   1.84012
    Y1       -0.06153  -0.00082   0.00000  -0.00578  -0.00584  -0.06736
    Z1        0.09233   0.00051   0.00000   0.01028   0.01031   0.10263
    X2        4.92676   0.00544   0.00000   0.00085   0.00088   4.92764
    Y2        0.18746  -0.00278   0.00000  -0.00058  -0.00072   0.18674
    Z2        0.03552   0.00731   0.00000   0.00113   0.00112   0.03664
    X3        6.09876   0.00357   0.00000   0.01743   0.01746   6.11621
    Y3        1.39121   0.00327   0.00000   0.00669   0.00662   1.39784
    Z3       -2.54358  -0.00694   0.00000  -0.01249  -0.01247  -2.55605
    X4        1.07794  -0.00037   0.00000  -0.01487  -0.01485   1.06309
    Y4       -0.86461   0.00008   0.00000  -0.00593  -0.00603  -0.87063
    Z4        1.81365  -0.00023   0.00000   0.01184   0.01184   1.82550
    X5        0.64970  -0.00064   0.00000  -0.03083  -0.03081   0.61889
    Y5        0.52577  -0.00015   0.00000  -0.00986  -0.00982   0.51595
    Z5       -1.46547   0.00022   0.00000   0.01723   0.01730  -1.44817
    X6        4.94205   0.00046   0.00000   0.02893   0.02894   4.97099
    Y6        1.99647   0.00023   0.00000   0.01073   0.01076   2.00722
    Z6       -4.13423  -0.00046   0.00000  -0.01994  -0.01987  -4.15410
    X7        8.14558  -0.00010   0.00000   0.01740   0.01743   8.16302
    Y7        1.55646   0.00017   0.00000   0.00515   0.00502   1.56148
    Z7       -2.58103  -0.00040   0.00000  -0.00822  -0.00822  -2.58925
         Item               Value     Threshold  Converged?
 Maximum Force            0.008348     0.000450     NO 
 RMS     Force            0.003340     0.000300     NO 
 Maximum Displacement     0.030815     0.001800     NO 
 RMS     Displacement     0.014634     0.001200     NO 
 Predicted change in Energy=-2.044897D-04
 GradGradGradGradGradGradGradGradGradGradGradGradGradGradGradGradGradGrad

 Leave Link  103 at Tue Jan  3 09:06:08 2023, MaxMem=   536870912 cpu:               0.0 elap:               0.0
 (Enter /opt/software/gaussian/g16.c01/l9999.exe)
 Unable to Open any file for archive entry.
 1\1\GINC-GRA777\Force\UB3LYP\Gen\C2H4S1\BHAVUK\03-Jan-2023\0\\#p ub3ly
 p/chkbasis force guess=read geom=check scf=(maxcycle=900,verytightline
 q,xqc) integral=grid=ultrafine symmetry=None density=current pop=(cm5,
 hlygat,mbs,npa) output=wfx\\0003_q000_m01_k00_opt_uwb97xd_def2svpd/000
 3_q000_m01_k00_force_ub3lyp_def2svpd stable-force\\0,1\C,0.9838325225,
 -0.0325586033,0.0488580178\S,2.6071301422,0.0991997065,0.0187984451\C,
 3.2273228911,0.736197977,-1.3460048506\H,0.570421034,-0.4575297175,0.9
 597448627\H,0.3438072589,0.2782232167,-0.7754915598\H,2.615218944,1.05
 64841772,-2.1877415072\H,4.3104572053,0.8236432464,-1.365823405\\Versi
 on=ES64L-G16RevC.01\HF=-476.5642394\S2=0.\S2-1=0.\S2A=0.\RMSD=1.291e-0
 9\RMSF=3.340e-03\Dipole=-0.0730471,0.0369176,-0.0973572\Quadrupole=0.6
 320548,-1.495069,0.8630142,0.3511281,-0.3296958,-1.2800399\PG=Unknown\
 \@
 The archive entry for this job was punched.

 Writing a WFNX file to "0003_q000_m01_k00_force_ub3lyp_def2svpd.wfx"


 TERENCE, THIS IS STUPID STUFF:
 YOU EAT YOUR VICTUALS FAST ENOUGH;
 THERE CAN'T BE MUCH AMISS, 'TIS CLEAR
 TO SEE THE RATE YOU DRINK YOUR BEER.
 BUT OH, GOOD LORD, THE VERSE YOU MAKE,
 IT GIVES A CHAP THE BELLY-ACHE.
 THE COW, THE OLD COW, SHE IS DEAD;
 IT SLEEPS WELL, THE HORNED HEAD:
 WE POOR LADS, 'TIS OUR TURN NOW
 TO HEAR SUCH TUNES AS KILLED THE COW.
 PRETTY FRIENDSHIP 'TIS TO RHYME
 YOUR FRIENDS TO DEATH BEFORE THEIR TIME.
 MOPING, MELANCHOLY MAD:
 COME PIPE A TUNE TO DANCE TO, LAD.

     -- A. E. HOUSMAN
 Job cpu time:       0 days  0 hours  0 minutes 15.3 seconds.
 Elapsed time:       0 days  0 hours  0 minutes  7.4 seconds.
 File lengths (MBytes):  RWF=     10 Int=      0 D2E=      0 Chk=      3 Scr=      1
 Normal termination of Gaussian 16 at Tue Jan  3 09:06:09 2023.
