 Entering Gaussian System, Link 0=g16
 Input=0003_q000_m01_k00_force_uhf_def2svp.com
 Output=0003_q000_m01_k00_force_uhf_def2svp.log
 Initial command:
 /opt/software/gaussian/g16.c01/l1.exe "/localscratch/bhavuk.2151381.0/Gau-13363.inp" -scrdir="/localscratch/bhavuk.2151381.0/"
 Entering Link 1 = /opt/software/gaussian/g16.c01/l1.exe PID=     13365.
  
 Copyright (c) 1988-2019, Gaussian, Inc.  All Rights Reserved.
  
 This is part of the Gaussian(R) 16 program.  It is based on
 the Gaussian(R) 09 system (copyright 2009, Gaussian, Inc.),
 the Gaussian(R) 03 system (copyright 2003, Gaussian, Inc.),
 the Gaussian(R) 98 system (copyright 1998, Gaussian, Inc.),
 the Gaussian(R) 94 system (copyright 1995, Gaussian, Inc.),
 the Gaussian 92(TM) system (copyright 1992, Gaussian, Inc.),
 the Gaussian 90(TM) system (copyright 1990, Gaussian, Inc.),
 the Gaussian 88(TM) system (copyright 1988, Gaussian, Inc.),
 the Gaussian 86(TM) system (copyright 1986, Carnegie Mellon
 University), and the Gaussian 82(TM) system (copyright 1983,
 Carnegie Mellon University). Gaussian is a federally registered
 trademark of Gaussian, Inc.
  
 This software contains proprietary and confidential information,
 including trade secrets, belonging to Gaussian, Inc.
  
 This software is provided under written license and may be
 used, copied, transmitted, or stored only in accord with that
 written license.
  
 The following legend is applicable only to US Government
 contracts under FAR:
  
                    RESTRICTED RIGHTS LEGEND
  
 Use, reproduction and disclosure by the US Government is
 subject to restrictions as set forth in subparagraphs (a)
 and (c) of the Commercial Computer Software - Restricted
 Rights clause in FAR 52.227-19.
  
 Gaussian, Inc.
 340 Quinnipiac St., Bldg. 40, Wallingford CT 06492
  
  
 ---------------------------------------------------------------
 Warning -- This program may not be used in any manner that
 competes with the business of Gaussian, Inc. or will provide
 assistance to any competitor of Gaussian, Inc.  The licensee
 of this program is prohibited from giving any competitor of
 Gaussian, Inc. access to this program.  By using this program,
 the user acknowledges that Gaussian, Inc. is engaged in the
 business of creating and licensing software in the field of
 computational chemistry and represents and warrants to the
 licensee that it is not a competitor of Gaussian, Inc. and that
 it will not use this program in any manner prohibited above.
 ---------------------------------------------------------------
  

 Cite this work as:
 Gaussian 16, Revision C.01,
 M. J. Frisch, G. W. Trucks, H. B. Schlegel, G. E. Scuseria, 
 M. A. Robb, J. R. Cheeseman, G. Scalmani, V. Barone, 
 G. A. Petersson, H. Nakatsuji, X. Li, M. Caricato, A. V. Marenich, 
 J. Bloino, B. G. Janesko, R. Gomperts, B. Mennucci, H. P. Hratchian, 
 J. V. Ortiz, A. F. Izmaylov, J. L. Sonnenberg, D. Williams-Young, 
 F. Ding, F. Lipparini, F. Egidi, J. Goings, B. Peng, A. Petrone, 
 T. Henderson, D. Ranasinghe, V. G. Zakrzewski, J. Gao, N. Rega, 
 G. Zheng, W. Liang, M. Hada, M. Ehara, K. Toyota, R. Fukuda, 
 J. Hasegawa, M. Ishida, T. Nakajima, Y. Honda, O. Kitao, H. Nakai, 
 T. Vreven, K. Throssell, J. A. Montgomery, Jr., J. E. Peralta, 
 F. Ogliaro, M. J. Bearpark, J. J. Heyd, E. N. Brothers, K. N. Kudin, 
 V. N. Staroverov, T. A. Keith, R. Kobayashi, J. Normand, 
 K. Raghavachari, A. P. Rendell, J. C. Burant, S. S. Iyengar, 
 J. Tomasi, M. Cossi, J. M. Millam, M. Klene, C. Adamo, R. Cammi, 
 J. W. Ochterski, R. L. Martin, K. Morokuma, O. Farkas, 
 J. B. Foresman, and D. J. Fox, Gaussian, Inc., Wallingford CT, 2019.
 
 ******************************************
 Gaussian 16:  ES64L-G16RevC.01  3-Jul-2019
                 3-Jan-2023 
 ******************************************
 %chk=0003_q000_m01_k00_force_uhf_def2svp.chk
 %nprocshared=2
 Will use up to    2 processors via shared memory.
 %mem=4GB
 ----------------------------------------------------------------------
 #p uhf/gen stable=opt scf=(maxcycle=900,verytightlineq,xqc) integral=g
 rid=ultrafine symmetry=None density=current iop(99/18=-1) output=wfn
 ----------------------------------------------------------------------
 1/38=1,172=1/1;
 2/12=2,15=3,17=6,18=5,40=1/2;
 3/5=7,11=2,25=1,30=1,75=-5,116=2/1,2,3;
 4//1;
 5/5=2,7=900,8=3,13=1,17=3,38=5/2,8;
 6/7=2,8=2,9=2,10=2,22=-1,28=1/1;
 8/6=1,10=90,11=11/1;
 9/8=-3,42=1,46=1/14;
 5/5=2,7=900,8=3,17=43,38=5/8(-2);
 6/7=2,8=2,9=2,10=2,22=-1,28=1/1;
 99/5=1,6=100,9=1,18=-1/99;
 Leave Link    1 at Tue Jan  3 09:05:29 2023, MaxMem=   536870912 cpu:               0.2 elap:               0.1
 (Enter /opt/software/gaussian/g16.c01/l101.exe)
 ----------------------------------------------------------------------
 0003_q000_m01_k00_opt_uwb97xd_def2svpd/0003_q000_m01_k00_force_uhf_def
 2svp stable-force
 ----------------------------------------------------------------------
 Symbolic Z-matrix:
 Charge =  0 Multiplicity = 1
 C                     0.98383  -0.03256   0.04886 
 S                     2.60713   0.0992    0.0188 
 C                     3.22732   0.7362   -1.346 
 H                     0.57042  -0.45753   0.95974 
 H                     0.34381   0.27822  -0.77549 
 H                     2.61522   1.05648  -2.18774 
 H                     4.31046   0.82364  -1.36582 
 
 ITRead=  0  0  0  0  0  0  0
 MicOpt= -1 -1 -1 -1 -1 -1 -1
 NAtoms=      7 NQM=        7 NQMF=       0 NMMI=      0 NMMIF=      0
                NMic=       0 NMicF=      0.
                    Isotopes and Nuclear Properties:
 (Nuclear quadrupole moments (NQMom) in fm**2, nuclear magnetic moments (NMagM)
  in nuclear magnetons)

  Atom         1           2           3           4           5           6           7
 IAtWgt=          12          32          12           1           1           1           1
 AtmWgt=  12.0000000  31.9720718  12.0000000   1.0078250   1.0078250   1.0078250   1.0078250
 NucSpn=           0           0           0           1           1           1           1
 AtZEff=  -0.0000000  -0.0000000  -0.0000000  -0.0000000  -0.0000000  -0.0000000  -0.0000000
 NQMom=    0.0000000   0.0000000   0.0000000   0.0000000   0.0000000   0.0000000   0.0000000
 NMagM=    0.0000000   0.0000000   0.0000000   2.7928460   2.7928460   2.7928460   2.7928460
 AtZNuc=   6.0000000  16.0000000   6.0000000   1.0000000   1.0000000   1.0000000   1.0000000
 Leave Link  101 at Tue Jan  3 09:05:29 2023, MaxMem=   536870912 cpu:               0.5 elap:               0.3
 (Enter /opt/software/gaussian/g16.c01/l202.exe)
                          Input orientation:                          
 ---------------------------------------------------------------------
 Center     Atomic      Atomic             Coordinates (Angstroms)
 Number     Number       Type             X           Y           Z
 ---------------------------------------------------------------------
      1          6           0        0.983833   -0.032559    0.048858
      2         16           0        2.607130    0.099200    0.018798
      3          6           0        3.227323    0.736198   -1.346005
      4          1           0        0.570421   -0.457530    0.959745
      5          1           0        0.343807    0.278223   -0.775492
      6          1           0        2.615219    1.056484   -2.187742
      7          1           0        4.310457    0.823643   -1.365823
 ---------------------------------------------------------------------
                    Distance matrix (angstroms):
                    1          2          3          4          5
     1  C    0.000000
     2  S    1.628913   0.000000
     3  C    2.751341   1.628832   0.000000
     4  H    1.086841   2.311604   3.714915   0.000000
     5  H    1.088931   2.405323   2.974876   1.898350   0.000000
     6  H    2.974864   2.405260   1.088933   4.047234   2.785579
     7  H    3.714948   2.311562   1.086839   4.586670   4.047257
                    6          7
     6  H    0.000000
     7  H    1.898314   0.000000
 Symmetry turned off by external request.
 Stoichiometry    C2H4S
 Rotational constants (GHZ):          32.8865896           8.4327606           6.7117401
 Leave Link  202 at Tue Jan  3 09:05:29 2023, MaxMem=   536870912 cpu:               0.0 elap:               0.0
 (Enter /opt/software/gaussian/g16.c01/l301.exe)
 General basis read from cards:  (5D, 7F)
 Centers:       4      5      6      7
 S 3 1.00
     Exponent=  1.3010701000D+01 Coefficients=  1.9682158000D-02
     Exponent=  1.9622572000D+00 Coefficients=  1.3796524000D-01
     Exponent=  4.4453796000D-01 Coefficients=  4.7831935000D-01
 S 1 1.00
     Exponent=  1.2194962000D-01 Coefficients=  1.0000000000D+00
 P 1 1.00
     Exponent=  8.0000000000D-01 Coefficients=  1.0000000000D+00
 ****
 Centers:       1      3
 S 5 1.00
     Exponent=  1.2384016938D+03 Coefficients=  5.4568832082D-03
     Exponent=  1.8629004992D+02 Coefficients=  4.0638409211D-02
     Exponent=  4.2251176346D+01 Coefficients=  1.8025593888D-01
     Exponent=  1.1676557932D+01 Coefficients=  4.6315121755D-01
     Exponent=  3.5930506482D+00 Coefficients=  4.4087173314D-01
 S 1 1.00
     Exponent=  4.0245147363D-01 Coefficients=  1.0000000000D+00
 S 1 1.00
     Exponent=  1.3090182668D-01 Coefficients=  1.0000000000D+00
 P 3 1.00
     Exponent=  9.4680970621D+00 Coefficients=  3.8387871728D-02
     Exponent=  2.0103545142D+00 Coefficients=  2.1117025112D-01
     Exponent=  5.4771004707D-01 Coefficients=  5.1328172114D-01
 P 1 1.00
     Exponent=  1.5268613795D-01 Coefficients=  1.0000000000D+00
 D 1 1.00
     Exponent=  8.0000000000D-01 Coefficients=  1.0000000000D+00
 ****
 Centers:       2
 S 5 1.00
     Exponent=  9.1849303010D+03 Coefficients= -2.2294387756D-03
     Exponent=  1.3815105503D+03 Coefficients= -1.6683029937D-02
     Exponent=  3.1387147580D+02 Coefficients= -7.5262436116D-02
     Exponent=  8.8053870623D+01 Coefficients= -1.9376827038D-01
     Exponent=  2.7039914905D+01 Coefficients= -1.7718020803D-01
 S 3 1.00
     Exponent=  4.5648731303D+01 Coefficients= -1.0736062573D-01
     Exponent=  4.9664522326D+00 Coefficients=  6.5066293018D-01
     Exponent=  2.0116242047D+00 Coefficients=  5.9712155354D-01
 S 1 1.00
     Exponent=  3.5661077013D-01 Coefficients=  1.0000000000D+00
 S 1 1.00
     Exponent=  1.3507221477D-01 Coefficients=  1.0000000000D+00
 P 5 1.00
     Exponent=  2.6198233439D+02 Coefficients= -9.2729929822D-03
     Exponent=  6.1306894736D+01 Coefficients= -6.6547669241D-02
     Exponent=  1.9103729887D+01 Coefficients= -2.4828595903D-01
     Exponent=  6.6567720378D+00 Coefficients= -4.8703847402D-01
     Exponent=  2.3959635161D+00 Coefficients= -3.9337850312D-01
 P 1 1.00
     Exponent=  6.1776161679D-01 Coefficients=  1.0000000000D+00
 P 1 1.00
     Exponent=  1.6993376871D-01 Coefficients=  1.0000000000D+00
 D 1 1.00
     Exponent=  5.5000000000D-01 Coefficients=  1.0000000000D+00
 ****
 Ernie: Thresh=  0.10000D-02 Tol=  0.10000D-05 Strict=F.
    66 basis functions,   115 primitive gaussians,    69 cartesian basis functions
    16 alpha electrons       16 beta electrons
       nuclear repulsion energy       100.3080120317 Hartrees.
 IExCor=    0 DFT=F Ex=HF Corr=None ExCW=0 ScaHFX=  1.000000
 ScaDFX=  1.000000  1.000000  1.000000  1.000000 ScalE2=  1.000000  1.000000
 IRadAn=      5 IRanWt=     -1 IRanGd=            0 ICorTp=0 IEmpDi=  4
 NAtoms=    7 NActive=    7 NUniq=    7 SFac= 1.00D+00 NAtFMM=   60 NAOKFM=F Big=F
 Integral buffers will be    131072 words long.
 Raffenetti 2 integral format.
 Two-electron integral symmetry is turned off.
 Leave Link  301 at Tue Jan  3 09:05:29 2023, MaxMem=   536870912 cpu:               0.1 elap:               0.1
 (Enter /opt/software/gaussian/g16.c01/l302.exe)
 NPDir=0 NMtPBC=     1 NCelOv=     1 NCel=       1 NClECP=     1 NCelD=      1
         NCelK=      1 NCelE2=     1 NClLst=     1 CellRange=     0.0.
 One-electron integrals computed using PRISM.
 NBasis=    66 RedAO= T EigKep=  6.57D-03  NBF=    66
 NBsUse=    66 1.00D-06 EigRej= -1.00D+00 NBFU=    66
 Leave Link  302 at Tue Jan  3 09:05:29 2023, MaxMem=   536870912 cpu:               0.3 elap:               0.1
 (Enter /opt/software/gaussian/g16.c01/l303.exe)
 DipDrv:  MaxL=1.
 Leave Link  303 at Tue Jan  3 09:05:29 2023, MaxMem=   536870912 cpu:               0.1 elap:               0.0
 (Enter /opt/software/gaussian/g16.c01/l401.exe)
 ExpMin= 1.22D-01 ExpMax= 9.18D+03 ExpMxC= 1.38D+03 IAcc=3 IRadAn=         5 AccDes= 0.00D+00
 Harris functional with IExCor=  205 and IRadAn=       5 diagonalized for initial guess.
 HarFok:  IExCor=  205 AccDes= 0.00D+00 IRadAn=         5 IDoV= 1 UseB2=F ITyADJ=14
 ICtDFT=  3500011 ScaDFX=  1.000000  1.000000  1.000000  1.000000
 FoFCou: FMM=F IPFlag=           0 FMFlag=      100000 FMFlg1=           0
         NFxFlg=           0 DoJE=T BraDBF=F KetDBF=T FulRan=T
         wScrn=  0.000000 ICntrl=       500 IOpCl=  0 I1Cent=   200000004 NGrid=           0
         NMat0=    1 NMatS0=      1 NMatT0=    0 NMatD0=    1 NMtDS0=    0 NMtDT0=    0
 Symmetry not used in FoFCou.
 Harris En= -475.148322744081    
 JPrj=0 DoOrth=F DoCkMO=F.
 Initial guess <Sx>= 0.0000 <Sy>= 0.0000 <Sz>= 0.0000 <S**2>= 0.0000 S= 0.0000
 Leave Link  401 at Tue Jan  3 09:05:30 2023, MaxMem=   536870912 cpu:               0.6 elap:               0.3
 (Enter /opt/software/gaussian/g16.c01/l502.exe)
 Keep R1 and R2 ints in memory in canonical form, NReq=5745125.
 FoFCou: FMM=F IPFlag=           0 FMFlag=           0 FMFlg1=           0
         NFxFlg=           0 DoJE=F BraDBF=F KetDBF=F FulRan=T
         wScrn=  0.000000 ICntrl=       600 IOpCl=  0 I1Cent=           0 NGrid=           0
         NMat0=    1 NMatS0=   2211 NMatT0=    0 NMatD0=    1 NMtDS0=    0 NMtDT0=    0
 Symmetry not used in FoFCou.
 Two-electron integral symmetry not used.
 UHF open shell SCF:
 Using DIIS extrapolation, IDIIS=  1040.
 NGot=   536870912 LenX=   531969369 LenY=   531964167
 Requested convergence on RMS density matrix=1.00D-08 within 128 cycles.
 Requested convergence on MAX density matrix=1.00D-06.
 Requested convergence on             energy=1.00D-06.
 No special actions if energy rises.

 Cycle   1  Pass 1  IDiag  1:
 E= -475.075096948408    
 DIIS: error= 6.19D-02 at cycle   1 NSaved=   1.
 NSaved= 1 IEnMin= 1 EnMin= -475.075096948408     IErMin= 1 ErrMin= 6.19D-02
 ErrMax= 6.19D-02  0.00D+00 EMaxC= 1.00D-01 BMatC= 1.01D+00 BMatP= 1.01D+00
 IDIUse=3 WtCom= 3.81D-01 WtEn= 6.19D-01
 Coeff-Com:  0.100D+01
 Coeff-En:   0.100D+01
 Coeff:      0.100D+01
 Gap=     0.279 Goal=   None    Shift=    0.000
 Gap=     0.279 Goal=   None    Shift=    0.000
 GapD=    0.279 DampG=1.000 DampE=0.500 DampFc=0.5000 IDamp=-1.
 Damping current iteration by 5.00D-01
 RMSDP=9.18D-03 MaxDP=1.45D-01              OVMax= 2.03D-01

 Cycle   2  Pass 1  IDiag  1:
 E= -475.193584888877     Delta-E=       -0.118487940469 Rises=F Damp=T
 DIIS: error= 2.34D-02 at cycle   2 NSaved=   2.
 NSaved= 2 IEnMin= 2 EnMin= -475.193584888877     IErMin= 2 ErrMin= 2.34D-02
 ErrMax= 2.34D-02  0.00D+00 EMaxC= 1.00D-01 BMatC= 1.26D-01 BMatP= 1.01D+00
 IDIUse=3 WtCom= 7.66D-01 WtEn= 2.34D-01
 Coeff-Com: -0.401D+00 0.140D+01
 Coeff-En:   0.000D+00 0.100D+01
 Coeff:     -0.307D+00 0.131D+01
 Gap=     0.352 Goal=   None    Shift=    0.000
 Gap=     0.352 Goal=   None    Shift=    0.000
 RMSDP=2.39D-03 MaxDP=3.75D-02 DE=-1.18D-01 OVMax= 7.13D-02

 Cycle   3  Pass 1  IDiag  1:
 E= -475.290518217262     Delta-E=       -0.096933328385 Rises=F Damp=F
 DIIS: error= 2.12D-03 at cycle   3 NSaved=   3.
 NSaved= 3 IEnMin= 3 EnMin= -475.290518217262     IErMin= 3 ErrMin= 2.12D-03
 ErrMax= 2.12D-03  0.00D+00 EMaxC= 1.00D-01 BMatC= 1.13D-03 BMatP= 1.26D-01
 IDIUse=3 WtCom= 9.79D-01 WtEn= 2.12D-02
 Coeff-Com:  0.251D-01-0.961D-01 0.107D+01
 Coeff-En:   0.000D+00 0.000D+00 0.100D+01
 Coeff:      0.246D-01-0.940D-01 0.107D+01
 Gap=     0.352 Goal=   None    Shift=    0.000
 Gap=     0.352 Goal=   None    Shift=    0.000
 RMSDP=4.97D-04 MaxDP=7.87D-03 DE=-9.69D-02 OVMax= 6.59D-03

 Cycle   4  Pass 1  IDiag  1:
 E= -475.290906204127     Delta-E=       -0.000387986865 Rises=F Damp=F
 DIIS: error= 7.95D-04 at cycle   4 NSaved=   4.
 NSaved= 4 IEnMin= 4 EnMin= -475.290906204127     IErMin= 4 ErrMin= 7.95D-04
 ErrMax= 7.95D-04  0.00D+00 EMaxC= 1.00D-01 BMatC= 9.82D-05 BMatP= 1.13D-03
 IDIUse=3 WtCom= 9.92D-01 WtEn= 7.95D-03
 Coeff-Com:  0.115D-01-0.325D-01 0.868D-01 0.934D+00
 Coeff-En:   0.000D+00 0.000D+00 0.000D+00 0.100D+01
 Coeff:      0.114D-01-0.323D-01 0.861D-01 0.935D+00
 Gap=     0.353 Goal=   None    Shift=    0.000
 Gap=     0.353 Goal=   None    Shift=    0.000
 RMSDP=1.26D-04 MaxDP=3.89D-03 DE=-3.88D-04 OVMax= 1.89D-03

 Cycle   5  Pass 1  IDiag  1:
 E= -475.290945471528     Delta-E=       -0.000039267402 Rises=F Damp=F
 DIIS: error= 2.16D-04 at cycle   5 NSaved=   5.
 NSaved= 5 IEnMin= 5 EnMin= -475.290945471528     IErMin= 5 ErrMin= 2.16D-04
 ErrMax= 2.16D-04  0.00D+00 EMaxC= 1.00D-01 BMatC= 8.62D-06 BMatP= 9.82D-05
 IDIUse=3 WtCom= 9.98D-01 WtEn= 2.16D-03
 Coeff-Com: -0.242D-03 0.316D-02-0.832D-01-0.561D-01 0.114D+01
 Coeff-En:   0.000D+00 0.000D+00 0.000D+00 0.000D+00 0.100D+01
 Coeff:     -0.242D-03 0.315D-02-0.830D-01-0.560D-01 0.114D+01
 Gap=     0.352 Goal=   None    Shift=    0.000
 Gap=     0.352 Goal=   None    Shift=    0.000
 RMSDP=5.12D-05 MaxDP=5.75D-04 DE=-3.93D-05 OVMax= 1.16D-03

 Cycle   6  Pass 1  IDiag  1:
 E= -475.290950841655     Delta-E=       -0.000005370127 Rises=F Damp=F
 DIIS: error= 3.85D-05 at cycle   6 NSaved=   6.
 NSaved= 6 IEnMin= 6 EnMin= -475.290950841655     IErMin= 6 ErrMin= 3.85D-05
 ErrMax= 3.85D-05  0.00D+00 EMaxC= 1.00D-01 BMatC= 4.69D-07 BMatP= 8.62D-06
 IDIUse=1 WtCom= 1.00D+00 WtEn= 0.00D+00
 Coeff-Com:  0.108D-04 0.413D-03-0.357D-02-0.417D-01 0.175D-01 0.103D+01
 Coeff:      0.108D-04 0.413D-03-0.357D-02-0.417D-01 0.175D-01 0.103D+01
 Gap=     0.352 Goal=   None    Shift=    0.000
 Gap=     0.352 Goal=   None    Shift=    0.000
 RMSDP=9.64D-06 MaxDP=2.02D-04 DE=-5.37D-06 OVMax= 3.13D-04

 Cycle   7  Pass 1  IDiag  1:
 E= -475.290951157773     Delta-E=       -0.000000316118 Rises=F Damp=F
 DIIS: error= 1.90D-05 at cycle   7 NSaved=   7.
 NSaved= 7 IEnMin= 7 EnMin= -475.290951157773     IErMin= 7 ErrMin= 1.90D-05
 ErrMax= 1.90D-05  0.00D+00 EMaxC= 1.00D-01 BMatC= 6.11D-08 BMatP= 4.69D-07
 IDIUse=1 WtCom= 1.00D+00 WtEn= 0.00D+00
 Coeff-Com:  0.289D-03-0.956D-03 0.927D-02 0.138D-01-0.977D-01-0.336D+00
 Coeff-Com:  0.141D+01
 Coeff:      0.289D-03-0.956D-03 0.927D-02 0.138D-01-0.977D-01-0.336D+00
 Coeff:      0.141D+01
 Gap=     0.352 Goal=   None    Shift=    0.000
 Gap=     0.352 Goal=   None    Shift=    0.000
 RMSDP=5.54D-06 MaxDP=6.97D-05 DE=-3.16D-07 OVMax= 1.92D-04

 Cycle   8  Pass 1  IDiag  1:
 E= -475.290951217851     Delta-E=       -0.000000060078 Rises=F Damp=F
 DIIS: error= 3.33D-06 at cycle   8 NSaved=   8.
 NSaved= 8 IEnMin= 8 EnMin= -475.290951217851     IErMin= 8 ErrMin= 3.33D-06
 ErrMax= 3.33D-06  0.00D+00 EMaxC= 1.00D-01 BMatC= 3.17D-09 BMatP= 6.11D-08
 IDIUse=1 WtCom= 1.00D+00 WtEn= 0.00D+00
 Coeff-Com: -0.469D-04 0.166D-03-0.219D-02-0.275D-02 0.312D-01 0.247D-01
 Coeff-Com: -0.417D+00 0.137D+01
 Coeff:     -0.469D-04 0.166D-03-0.219D-02-0.275D-02 0.312D-01 0.247D-01
 Coeff:     -0.417D+00 0.137D+01
 Gap=     0.352 Goal=   None    Shift=    0.000
 Gap=     0.352 Goal=   None    Shift=    0.000
 RMSDP=1.73D-06 MaxDP=2.75D-05 DE=-6.01D-08 OVMax= 4.30D-05

 Cycle   9  Pass 1  IDiag  1:
 E= -475.290951220944     Delta-E=       -0.000000003093 Rises=F Damp=F
 DIIS: error= 8.02D-07 at cycle   9 NSaved=   9.
 NSaved= 9 IEnMin= 9 EnMin= -475.290951220944     IErMin= 9 ErrMin= 8.02D-07
 ErrMax= 8.02D-07  0.00D+00 EMaxC= 1.00D-01 BMatC= 1.91D-10 BMatP= 3.17D-09
 IDIUse=1 WtCom= 1.00D+00 WtEn= 0.00D+00
 Coeff-Com: -0.192D-04 0.660D-04-0.777D-03-0.110D-02 0.969D-02 0.186D-01
 Coeff-Com: -0.132D+00 0.241D+00 0.865D+00
 Coeff:     -0.192D-04 0.660D-04-0.777D-03-0.110D-02 0.969D-02 0.186D-01
 Coeff:     -0.132D+00 0.241D+00 0.865D+00
 Gap=     0.352 Goal=   None    Shift=    0.000
 Gap=     0.352 Goal=   None    Shift=    0.000
 RMSDP=2.33D-07 MaxDP=3.23D-06 DE=-3.09D-09 OVMax= 4.47D-06

 Cycle  10  Pass 1  IDiag  1:
 E= -475.290951221022     Delta-E=       -0.000000000078 Rises=F Damp=F
 DIIS: error= 4.33D-07 at cycle  10 NSaved=  10.
 NSaved=10 IEnMin=10 EnMin= -475.290951221022     IErMin=10 ErrMin= 4.33D-07
 ErrMax= 4.33D-07  0.00D+00 EMaxC= 1.00D-01 BMatC= 4.41D-11 BMatP= 1.91D-10
 IDIUse=1 WtCom= 1.00D+00 WtEn= 0.00D+00
 Coeff-Com:  0.208D-05-0.823D-05 0.142D-03 0.133D-03-0.258D-02 0.212D-02
 Coeff-Com:  0.337D-01-0.177D+00 0.294D+00 0.850D+00
 Coeff:      0.208D-05-0.823D-05 0.142D-03 0.133D-03-0.258D-02 0.212D-02
 Coeff:      0.337D-01-0.177D+00 0.294D+00 0.850D+00
 Gap=     0.352 Goal=   None    Shift=    0.000
 Gap=     0.352 Goal=   None    Shift=    0.000
 RMSDP=9.32D-08 MaxDP=1.20D-06 DE=-7.80D-11 OVMax= 1.90D-06

 Cycle  11  Pass 1  IDiag  1:
 E= -475.290951221039     Delta-E=       -0.000000000017 Rises=F Damp=F
 DIIS: error= 4.82D-08 at cycle  11 NSaved=  11.
 NSaved=11 IEnMin=11 EnMin= -475.290951221039     IErMin=11 ErrMin= 4.82D-08
 ErrMax= 4.82D-08  0.00D+00 EMaxC= 1.00D-01 BMatC= 5.08D-13 BMatP= 4.41D-11
 IDIUse=1 WtCom= 1.00D+00 WtEn= 0.00D+00
 Coeff-Com: -0.209D-07 0.711D-07-0.145D-05 0.124D-04 0.157D-03-0.992D-03
 Coeff-Com: -0.231D-02 0.284D-01-0.999D-01-0.181D+00 0.126D+01
 Coeff:     -0.209D-07 0.711D-07-0.145D-05 0.124D-04 0.157D-03-0.992D-03
 Coeff:     -0.231D-02 0.284D-01-0.999D-01-0.181D+00 0.126D+01
 Gap=     0.352 Goal=   None    Shift=    0.000
 Gap=     0.352 Goal=   None    Shift=    0.000
 RMSDP=1.66D-08 MaxDP=2.63D-07 DE=-1.72D-11 OVMax= 3.34D-07

 Cycle  12  Pass 1  IDiag  1:
 E= -475.290951221040     Delta-E=       -0.000000000000 Rises=F Damp=F
 DIIS: error= 5.75D-09 at cycle  12 NSaved=  12.
 NSaved=12 IEnMin=12 EnMin= -475.290951221040     IErMin=12 ErrMin= 5.75D-09
 ErrMax= 5.75D-09  0.00D+00 EMaxC= 1.00D-01 BMatC= 9.91D-15 BMatP= 5.08D-13
 IDIUse=1 WtCom= 1.00D+00 WtEn= 0.00D+00
 Coeff-Com: -0.455D-07 0.160D-06-0.278D-05-0.501D-05 0.153D-04 0.180D-03
 Coeff-Com: -0.513D-04-0.351D-02 0.184D-01 0.289D-01-0.306D+00 0.126D+01
 Coeff:     -0.455D-07 0.160D-06-0.278D-05-0.501D-05 0.153D-04 0.180D-03
 Coeff:     -0.513D-04-0.351D-02 0.184D-01 0.289D-01-0.306D+00 0.126D+01
 Gap=     0.352 Goal=   None    Shift=    0.000
 Gap=     0.352 Goal=   None    Shift=    0.000
 RMSDP=2.05D-09 MaxDP=4.62D-08 DE=-2.27D-13 OVMax= 3.41D-08

 SCF Done:  E(UHF) =  -475.290951221     A.U. after   12 cycles
            NFock= 12  Conv=0.21D-08     -V/T= 2.0012
 <Sx>= 0.0000 <Sy>= 0.0000 <Sz>= 0.0000 <S**2>=-0.0000 S=-0.0000
 <L.S>=  0.00000000000    
 KE= 4.747245159962D+02 PE=-1.326823430136D+03 EE= 2.764999508871D+02
 Annihilation of the first spin contaminant:
 S**2 before annihilation    -0.0000,   after     0.0000
 Leave Link  502 at Tue Jan  3 09:05:30 2023, MaxMem=   536870912 cpu:               0.5 elap:               0.3
 (Enter /opt/software/gaussian/g16.c01/l508.exe)
 QCSCF skips out because SCF is already converged.
 Leave Link  508 at Tue Jan  3 09:05:30 2023, MaxMem=   536870912 cpu:               0.0 elap:               0.0
 (Enter /opt/software/gaussian/g16.c01/l601.exe)
 Copying SCF densities to generalized density rwf, IOpCl= 1 IROHF=0.

 **********************************************************************

            Population analysis using the SCF Density.

 **********************************************************************

 Alpha  occ. eigenvalues --  -92.00430 -11.24573 -11.24569  -9.03502  -6.72249
 Alpha  occ. eigenvalues --   -6.72133  -6.72094  -1.12192  -0.92961  -0.76385
 Alpha  occ. eigenvalues --   -0.63428  -0.61957  -0.55346  -0.48894  -0.46831
 Alpha  occ. eigenvalues --   -0.27407
 Alpha virt. eigenvalues --    0.07826   0.20180   0.21415   0.22371   0.25978
 Alpha virt. eigenvalues --    0.31618   0.36932   0.47122   0.56995   0.57626
 Alpha virt. eigenvalues --    0.65634   0.67690   0.71187   0.71988   0.75916
 Alpha virt. eigenvalues --    0.84098   0.86683   0.87990   0.88036   0.90882
 Alpha virt. eigenvalues --    0.92359   0.97803   1.00157   1.03301   1.14314
 Alpha virt. eigenvalues --    1.25771   1.35346   1.44841   1.45011   1.45516
 Alpha virt. eigenvalues --    1.82253   1.82993   1.83449   1.84668   1.95748
 Alpha virt. eigenvalues --    1.95908   2.28167   2.29793   2.33515   2.34089
 Alpha virt. eigenvalues --    2.35843   2.41589   2.53932   2.54700   2.69773
 Alpha virt. eigenvalues --    2.76155   3.18498   3.23033   3.25225   3.26619
  Beta  occ. eigenvalues --  -92.00430 -11.24573 -11.24569  -9.03502  -6.72249
  Beta  occ. eigenvalues --   -6.72133  -6.72094  -1.12192  -0.92961  -0.76385
  Beta  occ. eigenvalues --   -0.63428  -0.61957  -0.55346  -0.48894  -0.46831
  Beta  occ. eigenvalues --   -0.27407
  Beta virt. eigenvalues --    0.07826   0.20180   0.21415   0.22371   0.25978
  Beta virt. eigenvalues --    0.31618   0.36932   0.47122   0.56995   0.57626
  Beta virt. eigenvalues --    0.65634   0.67690   0.71187   0.71988   0.75916
  Beta virt. eigenvalues --    0.84098   0.86683   0.87990   0.88036   0.90882
  Beta virt. eigenvalues --    0.92359   0.97803   1.00157   1.03301   1.14314
  Beta virt. eigenvalues --    1.25771   1.35346   1.44841   1.45011   1.45516
  Beta virt. eigenvalues --    1.82253   1.82993   1.83449   1.84668   1.95748
  Beta virt. eigenvalues --    1.95908   2.28167   2.29793   2.33515   2.34089
  Beta virt. eigenvalues --    2.35843   2.41589   2.53932   2.54700   2.69773
  Beta virt. eigenvalues --    2.76155   3.18498   3.23033   3.25225   3.26619
          Condensed to atoms (all electrons):
               1          2          3          4          5          6
     1  C    5.143873   0.436357  -0.083485   0.424091   0.416196  -0.002102
     2  S    0.436357  14.991711   0.436368  -0.036555  -0.027326  -0.027323
     3  C   -0.083485   0.436368   5.143818   0.002717  -0.002100   0.416196
     4  H    0.424091  -0.036555   0.002717   0.520456  -0.015976  -0.000002
     5  H    0.416196  -0.027326  -0.002100  -0.015976   0.526283   0.002347
     6  H   -0.002102  -0.027323   0.416196  -0.000002   0.002347   0.526280
     7  H    0.002717  -0.036554   0.424092  -0.000116  -0.000002  -0.015977
               7
     1  C    0.002717
     2  S   -0.036554
     3  C    0.424092
     4  H   -0.000116
     5  H   -0.000002
     6  H   -0.015977
     7  H    0.520454
          Atomic-Atomic Spin Densities.
               1          2          3          4          5          6
     1  C    0.000000   0.000000   0.000000   0.000000   0.000000   0.000000
     2  S    0.000000   0.000000   0.000000   0.000000   0.000000   0.000000
     3  C    0.000000   0.000000   0.000000   0.000000   0.000000   0.000000
     4  H    0.000000   0.000000   0.000000   0.000000   0.000000   0.000000
     5  H    0.000000   0.000000   0.000000   0.000000   0.000000   0.000000
     6  H    0.000000   0.000000   0.000000   0.000000   0.000000   0.000000
     7  H    0.000000   0.000000   0.000000   0.000000   0.000000   0.000000
               7
     1  C    0.000000
     2  S    0.000000
     3  C    0.000000
     4  H    0.000000
     5  H    0.000000
     6  H    0.000000
     7  H    0.000000
 Mulliken charges and spin densities:
               1          2
     1  C   -0.337648   0.000000
     2  S    0.263323   0.000000
     3  C   -0.337606   0.000000
     4  H    0.105386   0.000000
     5  H    0.100578   0.000000
     6  H    0.100581   0.000000
     7  H    0.105387   0.000000
 Sum of Mulliken charges =   0.00000   0.00000
 Mulliken charges and spin densities with hydrogens summed into heavy atoms:
               1          2
     1  C   -0.131684   0.000000
     2  S    0.263323   0.000000
     3  C   -0.131638   0.000000
 Electronic spatial extent (au):  <R**2>=            871.3580
 Charge=              0.0000 electrons
 Dipole moment (field-independent basis, Debye):
    X=              0.0070    Y=             -0.0030    Z=              0.0087  Tot=              0.0116
 Quadrupole moment (field-independent basis, Debye-Ang):
   XX=            -25.0876   YY=            -28.6348   ZZ=            -25.6518
   XY=              0.1783   XZ=              0.3002   YZ=             -1.5730
 Traceless Quadrupole moment (field-independent basis, Debye-Ang):
   XX=              1.3705   YY=             -2.1768   ZZ=              0.8063
   XY=              0.1783   XZ=              0.3002   YZ=             -1.5730
 Octapole moment (field-independent basis, Debye-Ang**2):
  XXX=           -173.0440  YYY=            -21.9416  ZZZ=             27.3596  XYY=            -66.1256
  XXY=             -4.6845  XXZ=              9.1181  XZZ=            -62.6534  YZZ=             -4.1833
  YYZ=             10.1892  XYZ=             -2.2149
 Hexadecapole moment (field-independent basis, Debye-Ang**3):
 XXXX=           -950.9686 YYYY=            -67.0206 ZZZZ=           -120.6086 XXXY=            -49.4870
 XXXZ=             85.0139 YYYX=            -71.8115 YYYZ=             27.2403 ZZZX=             94.9310
 ZZZY=             17.2912 XXYY=           -194.2950 XXZZ=           -198.9199 YYZZ=            -29.9755
 XXYZ=              1.9178 YYXZ=             34.3101 ZZXY=            -14.1759
 N-N= 1.003080120317D+02 E-N=-1.326823430035D+03  KE= 4.747245159962D+02
                          Isotropic Fermi Contact Couplings
        Atom                 a.u.       MegaHertz       Gauss      10(-4) cm-1
     1  C(13)              0.00000       0.00000       0.00000       0.00000
     2  S(33)              0.00000       0.00000       0.00000       0.00000
     3  C(13)              0.00000       0.00000       0.00000       0.00000
     4  H(1)               0.00000       0.00000       0.00000       0.00000
     5  H(1)               0.00000       0.00000       0.00000       0.00000
     6  H(1)               0.00000       0.00000       0.00000       0.00000
     7  H(1)               0.00000       0.00000       0.00000       0.00000
 --------------------------------------------------------
       Center         ----  Spin Dipole Couplings  ----
                      3XX-RR        3YY-RR        3ZZ-RR
 --------------------------------------------------------
     1   Atom        0.000000      0.000000      0.000000
     2   Atom        0.000000      0.000000      0.000000
     3   Atom        0.000000      0.000000      0.000000
     4   Atom        0.000000      0.000000      0.000000
     5   Atom        0.000000      0.000000      0.000000
     6   Atom        0.000000      0.000000      0.000000
     7   Atom        0.000000      0.000000      0.000000
 --------------------------------------------------------
                        XY            XZ            YZ
 --------------------------------------------------------
     1   Atom        0.000000      0.000000      0.000000
     2   Atom        0.000000      0.000000      0.000000
     3   Atom        0.000000      0.000000      0.000000
     4   Atom        0.000000      0.000000      0.000000
     5   Atom        0.000000      0.000000      0.000000
     6   Atom        0.000000      0.000000      0.000000
     7   Atom        0.000000      0.000000      0.000000
 --------------------------------------------------------


 ---------------------------------------------------------------------------------
              Anisotropic Spin Dipole Couplings in Principal Axis System
 ---------------------------------------------------------------------------------

       Atom             a.u.   MegaHertz   Gauss  10(-4) cm-1        Axes

              Baa     0.0000     0.000     0.000     0.000  1.0000  0.0000  0.0000
     1 C(13)  Bbb     0.0000     0.000     0.000     0.000 -0.0000  1.0000  0.0000
              Bcc     0.0000     0.000     0.000     0.000  0.0000  0.0000  1.0000
 
              Baa     0.0000     0.000     0.000     0.000  1.0000  0.0000  0.0000
     2 S(33)  Bbb     0.0000     0.000     0.000     0.000 -0.0000  1.0000  0.0000
              Bcc     0.0000     0.000     0.000     0.000  0.0000  0.0000  1.0000
 
              Baa     0.0000     0.000     0.000     0.000  1.0000  0.0000  0.0000
     3 C(13)  Bbb     0.0000     0.000     0.000     0.000 -0.0000  1.0000  0.0000
              Bcc     0.0000     0.000     0.000     0.000  0.0000  0.0000  1.0000
 
              Baa     0.0000     0.000     0.000     0.000  1.0000  0.0000  0.0000
     4 H(1)   Bbb     0.0000     0.000     0.000     0.000 -0.0000  1.0000  0.0000
              Bcc     0.0000     0.000     0.000     0.000  0.0000  0.0000  1.0000
 
              Baa     0.0000     0.000     0.000     0.000  1.0000  0.0000  0.0000
     5 H(1)   Bbb     0.0000     0.000     0.000     0.000 -0.0000  1.0000  0.0000
              Bcc     0.0000     0.000     0.000     0.000  0.0000  0.0000  1.0000
 
              Baa     0.0000     0.000     0.000     0.000  1.0000  0.0000  0.0000
     6 H(1)   Bbb     0.0000     0.000     0.000     0.000 -0.0000  1.0000  0.0000
              Bcc     0.0000     0.000     0.000     0.000  0.0000  0.0000  1.0000
 
              Baa     0.0000     0.000     0.000     0.000  1.0000  0.0000  0.0000
     7 H(1)   Bbb     0.0000     0.000     0.000     0.000 -0.0000  1.0000  0.0000
              Bcc     0.0000     0.000     0.000     0.000  0.0000  0.0000  1.0000
 

 ---------------------------------------------------------------------------------

 No NMR shielding tensors so no spin-rotation constants.
 Leave Link  601 at Tue Jan  3 09:05:30 2023, MaxMem=   536870912 cpu:               0.3 elap:               0.1
 (Enter /opt/software/gaussian/g16.c01/l801.exe)
 Range of M.O.s used for correlation:     1    66
 NBasis=    66 NAE=    16 NBE=    16 NFC=     0 NFV=     0
 NROrb=     66 NOA=    16 NOB=    16 NVA=    50 NVB=    50
 Leave Link  801 at Tue Jan  3 09:05:31 2023, MaxMem=   536870912 cpu:               0.1 elap:               0.0
 (Enter /opt/software/gaussian/g16.c01/l914.exe)
 UHF ground state
 Doing stability rather than CIS.
 Keep R1 and R2 ints in memory in canonical form, NReq=5745465.
 FoFCou: FMM=F IPFlag=           0 FMFlag=           0 FMFlg1=           0
         NFxFlg=           0 DoJE=F BraDBF=F KetDBF=F FulRan=T
         wScrn=  0.000000 ICntrl=       600 IOpCl=  0 I1Cent=           0 NGrid=           0
         NMat0=    1 NMatS0=   2211 NMatT0=    0 NMatD0=    1 NMtDS0=    0 NMtDT0=    0
 Symmetry not used in FoFCou.
 Two-electron integral symmetry not used.
 MDV=   536870912 DFT=F DoStab=T Mixed=F DoRPA=F DoScal=F NonHer=F
 Making orbital integer symmetry assigments:
    12 initial guesses have been made.
 Convergence on wavefunction:    0.001000000000000
 Davidson Disk Diagonalization:  ConvIn= 1.00D-03 SkipCon=T Conv= 1.00D-03.
 Max sub-space:  2000 roots to seek:    12 dimension of matrix:         1600
 Iteration     1 Dimension    12 NMult     0 NNew     12
 CISAX will form    12 AO SS matrices at one time.
 NMat=    12 NSing=    12 JSym2X= 0.
 New state      1 was old state      2
 Excitation Energies [eV] at current iteration:
 Root      1 :    -1.422553035625818
 Root      2 :     4.261227747184666
 Root      3 :     5.139753225232465
 Root      4 :     6.414704528588823
 Root      5 :     6.794634299148774
 Root      6 :     6.950834397916828
 Root      7 :     7.127331206354925
 Root      8 :     7.396361345655870
 Root      9 :     7.665103556911260
 Root     10 :     8.828317700379534
 Root     11 :     8.926540362093984
 Root     12 :    12.391065723492504
 Iteration     2 Dimension    24 NMult    12 NNew     12
 CISAX will form    12 AO SS matrices at one time.
 NMat=    12 NSing=    12 JSym2X= 0.
 Root      1 not converged, maximum delta is    0.070220799765344
 Excitation Energies [eV] at current iteration:
 Root      1 :    -2.336661520354075   Change is   -0.914108484728257
 Root      2 :     3.469759777289033   Change is   -0.791467969895633
 Root      3 :     4.199498175427197   Change is   -0.940255049805269
 Root      4 :     4.795012727077095   Change is   -4.033304973302439
 Root      5 :     5.174640696517549   Change is   -1.240063832071274
 Root      6 :     6.181937940677450   Change is   -0.768896457239377
 Root      7 :     6.220158801362726   Change is   -0.574475497786048
 Root      8 :     6.245297018739813   Change is   -0.882034187615112
 Root      9 :     6.702435974921033   Change is   -0.962667581990227
 Root     10 :     7.241756334457007   Change is   -0.154605011198864
 Root     11 :     8.237059594536495   Change is   -0.689480767557490
 Root     12 :     9.007411547971996   Change is   -3.383654175520509
 Iteration     3 Dimension    27 NMult    24 NNew      3
 CISAX will form     3 AO SS matrices at one time.
 NMat=     3 NSing=     3 JSym2X= 0.
 Root      1 not converged, maximum delta is    0.015159173852785
 Excitation Energies [eV] at current iteration:
 Root      1 :    -2.378881291619043   Change is   -0.042219771264968
 Root      2 :     3.414361203135499   Change is   -0.055398574153534
 Root      3 :     4.140443030394183   Change is   -0.059055145033013
 Iteration     4 Dimension    30 NMult    27 NNew      3
 CISAX will form     3 AO SS matrices at one time.
 NMat=     3 NSing=     3 JSym2X= 0.
 Root      1 not converged, maximum delta is    0.002977100440787
 Excitation Energies [eV] at current iteration:
 Root      1 :    -2.381868232278759   Change is   -0.002986940659716
 Root      2 :     3.402635805552310   Change is   -0.011725397583189
 Root      3 :     4.134567286704657   Change is   -0.005875743689526
 Iteration     5 Dimension    33 NMult    30 NNew      3
 CISAX will form     3 AO SS matrices at one time.
 NMat=     3 NSing=     3 JSym2X= 0.
 Root      1 has converged.
 Excitation Energies [eV] at current iteration:
 Root      1 :    -2.381961809145968   Change is   -0.000093576867208
 Root      2 :     3.401487286614627   Change is   -0.001148518937683
 Root      3 :     4.134269143152036   Change is   -0.000298143552621
 Convergence achieved on expansion vectors.
 ***********************************************************************
 Stability analysis using <AA,BB:AA,BB> singles matrix:
 ***********************************************************************
 1PDM for each excited state written to RWF  633
 Ground to excited state transition densities written to RWF  633

 Eigenvectors of the stability matrix:
 
 Excited state symmetry could not be determined.
 Eigenvector   1:  3.000-?Sym  Eigenvalue=-0.0875355  <S**2>=2.000
     16A -> 17A        0.68699
     16A -> 29A        0.10584
     16B -> 17B       -0.68699
     16B -> 29B       -0.10584
 The wavefunction has an internal instability.
 Leave Link  914 at Tue Jan  3 09:05:31 2023, MaxMem=   536870912 cpu:               0.7 elap:               0.4
 (Enter /opt/software/gaussian/g16.c01/l508.exe)
 Keep R1 and R2 ints in memory in canonical form, NReq=5745525.
 FoFCou: FMM=F IPFlag=           0 FMFlag=           0 FMFlg1=           0
         NFxFlg=           0 DoJE=F BraDBF=F KetDBF=F FulRan=T
         wScrn=  0.000000 ICntrl=       600 IOpCl=  0 I1Cent=           0 NGrid=           0
         NMat0=    1 NMatS0=   2211 NMatT0=    0 NMatD0=    1 NMtDS0=    0 NMtDT0=    0
 Symmetry not used in FoFCou.
 Two-electron integral symmetry not used.
 Very tight linear equation convergence will be used.
 UHF wavefunction.
 Quadratic Convergence SCF Method.
 Line search only if initial step raises energy.
 Perform preliminary linear searches along instability eigenvector.
     ILin= 1 X=0.000D+00 Y=-4.752909512210D+02 DE= 0.00D+00
     ILin= 2 X=1.000D-01 Y=-4.752918133934D+02 DE=-8.62D-04
     ILin= 3 X=1.414D-01 Y=-4.752926493802D+02 DE=-1.70D-03
     ILin= 4 X=2.000D-01 Y=-4.752942436795D+02 DE=-3.29D-03
     ILin= 5 X=2.828D-01 Y=-4.752971276500D+02 DE=-6.18D-03
     ILin= 6 X=4.000D-01 Y=-4.753017245912D+02 DE=-1.08D-02
     ILin= 7 X=5.657D-01 Y=-4.753065986639D+02 DE=-1.56D-02
     ILin= 8 X=8.000D-01 Y=-4.753017412642D+02 DE=-1.08D-02
     An  expanding polynomial of degree  8 produced  0.6254
 Iteration F X= 6.254D-01 EE=-4.753070806138904D+02
     ILin= 1 X=0.000D+00 Y=-4.752909512210D+02 DE= 0.00D+00
     ILin= 2 X=1.000D-01 Y=-4.752918134028D+02 DE=-8.62D-04
     ILin= 3 X=1.414D-01 Y=-4.752926494067D+02 DE=-1.70D-03
 The two search directions are symmetric.
 Iteration B X= 6.254D-01 EE=-4.753070806138904D+02
 Take forward step, X= 6.254D-01 Step= 6.254D-01
 Iteration   1 EE= -475.307080765664                                    Grad=5.231D-02 Max rot=    1.0924 deg.
 Gradient too large for Newton-Raphson -- use scaled steepest descent instead.
 Alpha Gap=     0.440 HL deriv= 2.71D-03
  Beta Gap=     0.440 HL deriv= 2.73D-03
     ILin= 1 X=0.000D+00 Y=-4.753070807657D+02 DE= 0.00D+00 F= -5.63D-03
     ILin= 2 X=3.000D-01 Y=-4.753086062804D+02 DE=-1.53D-03 F= -4.54D-03 OKLS=F
     ILin= 3 X=6.000D-01 Y=-4.753098037992D+02 DE=-2.72D-03 F= -3.44D-03
     ILin= 4 X=1.100D+00 Y=-4.753110685432D+02 DE=-3.99D-03 F= -1.61D-03
     ILin= 5 X=2.100D+00 Y=-4.753108442341D+02 DE=-3.76D-03 F=  2.07D-03
     An  expanding polynomial of degree  5 produced  1.5393
 Iteration   2 EE= -475.311423158921     Delta-E=       -0.004342393257 Grad=2.348D-02 Max rot=    0.4515 deg.
 Gradient too large for Newton-Raphson -- use scaled steepest descent instead.
 Alpha Gap=     0.442 HL deriv= 1.78D-02
  Beta Gap=     0.442 HL deriv= 1.78D-02
     ILin= 1 X=0.000D+00 Y=-4.753114231589D+02 DE= 0.00D+00 F= -1.31D-03
     ILin= 2 X=7.000D-01 Y=-4.753121078194D+02 DE=-6.85D-04 F= -6.41D-04 OKLS=F
     ILin= 3 X=1.400D+00 Y=-4.753123187544D+02 DE=-8.96D-04 F=  3.86D-05
     Accept linear search using points  2 and  3.
     An  expanding polynomial of degree  3 produced  1.2975
     Minimum is close to point  3 DX= -1.02D-01 DF= -3.01D-06 DXR=  7.90D-02 DFR=  3.36D-03 which will be used.
 Iteration   3 EE= -475.312318754356     Delta-E=       -0.000895595434 Grad=2.181D-02 Max rot=    0.2805 deg.
 Gradient too large for Newton-Raphson -- use scaled steepest descent instead.
 Alpha Gap=     0.450 HL deriv= 8.85D-03
  Beta Gap=     0.450 HL deriv= 8.86D-03
     ILin= 1 X=0.000D+00 Y=-4.753123187544D+02 DE= 0.00D+00 F= -7.89D-04
     ILin= 2 X=1.400D+00 Y=-4.753127053258D+02 DE=-3.87D-04 F=  2.36D-04 OKLS=T
     Accept linear search using points  1 and  2.
     An  expanding polynomial of degree  2 produced  1.1978
 Iteration   4 EE= -475.312738163783     Delta-E=       -0.000419409428 Grad=1.394D-02 Max rot=    0.2471 deg.
 Gradient too large for Newton-Raphson -- use scaled steepest descent instead.
 Alpha Gap=     0.451 HL deriv= 8.92D-03
  Beta Gap=     0.451 HL deriv= 8.92D-03
     ILin= 1 X=0.000D+00 Y=-4.753127381638D+02 DE= 0.00D+00 F= -4.29D-04
     ILin= 2 X=1.200D+00 Y=-4.753129666832D+02 DE=-2.29D-04 F=  4.78D-05 OKLS=T
     Accept linear search using points  1 and  2.
     An  expanding polynomial of degree  2 produced  1.1185
     Minimum is close to point  2 DX= -8.15D-02 DF= -1.61D-06 DXR=  7.28D-02 DFR=  7.03D-03 which will be used.
 Iteration   5 EE= -475.312966683241     Delta-E=       -0.000228519457 Grad=1.190D-02 Max rot=    0.1323 deg.
 Gradient too large for Newton-Raphson -- use scaled steepest descent instead.
 Alpha Gap=     0.456 HL deriv= 5.07D-03
  Beta Gap=     0.456 HL deriv= 5.07D-03
     ILin= 1 X=0.000D+00 Y=-4.753129666832D+02 DE= 0.00D+00 F= -2.37D-04
     ILin= 2 X=1.200D+00 Y=-4.753130920543D+02 DE=-1.25D-04 F=  2.84D-05 OKLS=T
     Accept linear search using points  1 and  2.
     An  expanding polynomial of degree  2 produced  1.1125
     Minimum is close to point  2 DX= -8.75D-02 DF= -1.03D-06 DXR=  7.86D-02 DFR=  8.18D-03 which will be used.
 Iteration   6 EE= -475.313092054298     Delta-E=       -0.000125371057 Grad=7.753D-03 Max rot=    0.1375 deg.
 QCNR:  CnvC1=4.00D-10 CnvC2=4.00D-09
 LinEq1:  Iter=  0 NonCon=     1 RMS=2.62D-04 Max=6.12D-03 NDo=     1
 AX will form     1 AO Fock derivatives at one time.
 LinEq1:  Iter=  1 NonCon=     1 RMS=1.29D-04 Max=1.62D-03 NDo=     1
 LinEq1:  Iter=  2 NonCon=     1 RMS=5.37D-06 Max=7.73D-05 NDo=     1
 LinEq1:  Iter=  3 NonCon=     1 RMS=1.32D-06 Max=1.00D-05 NDo=     1
 LinEq1:  Iter=  4 NonCon=     1 RMS=5.30D-07 Max=7.82D-06 NDo=     1
 LinEq1:  Iter=  5 NonCon=     1 RMS=7.54D-08 Max=8.18D-07 NDo=     1
 LinEq1:  Iter=  6 NonCon=     1 RMS=1.17D-08 Max=1.03D-07 NDo=     1
 LinEq1:  Iter=  7 NonCon=     1 RMS=3.34D-09 Max=3.73D-08 NDo=     1
 LinEq1:  Iter=  8 NonCon=     1 RMS=1.41D-09 Max=1.67D-08 NDo=     1
 LinEq1:  Iter=  9 NonCon=     1 RMS=4.27D-10 Max=5.21D-09 NDo=     1
 LinEq1:  Iter= 10 NonCon=     0 RMS=9.89D-11 Max=8.44D-10 NDo=     1
 Linear equations converged to 4.000D-10 4.000D-09 after    10 iterations.
 Angle between quadratic step and gradient=  53.69 degrees.
     ILin= 1 X=0.000D+00 Y=-4.753130920543D+02 DE= 0.00D+00 F= -2.95D-04
     ILin= 2 X=1.000D+00 Y=-4.753132369418D+02 DE=-1.45D-04 F=  8.56D-06 OKLS=T
     Accept linear search using points  1 and  2.
     An  expanding polynomial of degree  2 produced  0.9726
     Minimum is close to point  2 DX= -2.74D-02 DF= -1.17D-07 DXR=  2.82D-02 DFR=  8.09D-04 which will be used.
 Iteration   7 EE= -475.313236941823     Delta-E=       -0.000144887525 Grad=2.095D-04 Max rot=    0.0058 deg.
 QCNR:  CnvC1=4.00D-10 CnvC2=4.00D-09
 LinEq1:  Iter=  0 NonCon=     1 RMS=9.13D-06 Max=2.24D-04 NDo=     1
 LinEq1:  Iter=  1 NonCon=     1 RMS=1.95D-06 Max=4.31D-05 NDo=     1
 LinEq1:  Iter=  2 NonCon=     1 RMS=6.64D-07 Max=6.26D-06 NDo=     1
 LinEq1:  Iter=  3 NonCon=     1 RMS=1.24D-07 Max=1.57D-06 NDo=     1
 LinEq1:  Iter=  4 NonCon=     1 RMS=3.80D-08 Max=3.56D-07 NDo=     1
 LinEq1:  Iter=  5 NonCon=     1 RMS=1.11D-08 Max=1.11D-07 NDo=     1
 LinEq1:  Iter=  6 NonCon=     1 RMS=2.57D-09 Max=2.09D-08 NDo=     1
 LinEq1:  Iter=  7 NonCon=     1 RMS=6.01D-10 Max=5.96D-09 NDo=     1
 LinEq1:  Iter=  8 NonCon=     0 RMS=1.26D-10 Max=9.79D-10 NDo=     1
 Linear equations converged to 4.000D-10 4.000D-09 after     8 iterations.
 Angle between quadratic step and gradient=  33.60 degrees.
     ILin= 1 X=0.000D+00 Y=-4.753132369418D+02 DE= 0.00D+00 F= -4.00D-07
     ILin= 2 X=1.000D+00 Y=-4.753132371421D+02 DE=-2.00D-07 F= -7.18D-10 OKLS=T
     Reject lnstep IMin12=  1  2 Big=T Turn=F Min= 1.002D+00 FVal=-4.753132371421D+02 Lims=  0.00D+00  1.00D+00
     ILin= 3 X=2.000D+00 Y=-4.753132369437D+02 DE=-1.91D-09 F=  3.97D-07
     An  expanding polynomial of degree  3 produced  1.0024
     Minimum is close to point  2 DX=  2.40D-03 DF= -1.14D-12 DXR=  2.39D-03 DFR=  5.68D-06 which will be used.
 Iteration   8 EE= -475.313237142130     Delta-E=       -0.000000200307 Grad=3.793D-07 Max rot=    0.0000 deg.
 Rotation gradient small -- convergence achieved.
 SCF Done:  E(UHF) =  -475.313237142     a.u. after    8 cycles
            Convg  =    0.3793D-06                    42 Fock formations.
              S**2 =  0.7475                  -V/T =  2.0004
 <Sx>= 0.0000 <Sy>= 0.0000 <Sz>= 0.0000 <S**2>= 0.7475 S= 0.4988
 <L.S>=  0.00000000000    
 Annihilation of the first spin contaminant:
 S**2 before annihilation     0.7475,   after     0.1074
 Leave Link  508 at Tue Jan  3 09:05:32 2023, MaxMem=   536870912 cpu:               0.8 elap:               0.6
 (Enter /opt/software/gaussian/g16.c01/l801.exe)
 Range of M.O.s used for correlation:     1    66
 NBasis=    66 NAE=    16 NBE=    16 NFC=     0 NFV=     0
 NROrb=     66 NOA=    16 NOB=    16 NVA=    50 NVB=    50
 Leave Link  801 at Tue Jan  3 09:05:32 2023, MaxMem=   536870912 cpu:               0.1 elap:               0.0
 (Enter /opt/software/gaussian/g16.c01/l914.exe)
 UHF ground state
 Doing stability rather than CIS.
 Keep R1 and R2 ints in memory in canonical form, NReq=5745465.
 FoFCou: FMM=F IPFlag=           0 FMFlag=           0 FMFlg1=           0
         NFxFlg=           0 DoJE=F BraDBF=F KetDBF=F FulRan=T
         wScrn=  0.000000 ICntrl=       600 IOpCl=  0 I1Cent=           0 NGrid=           0
         NMat0=    1 NMatS0=   2211 NMatT0=    0 NMatD0=    1 NMtDS0=    0 NMtDT0=    0
 Symmetry not used in FoFCou.
 Two-electron integral symmetry not used.
 MDV=   536870912 DFT=F DoStab=T Mixed=F DoRPA=F DoScal=F NonHer=F
 Making orbital integer symmetry assigments:
    12 initial guesses have been made.
 Convergence on wavefunction:    0.001000000000000
 Davidson Disk Diagonalization:  ConvIn= 1.00D-03 SkipCon=T Conv= 1.00D-03.
 Max sub-space:  2000 roots to seek:    12 dimension of matrix:         1600
 Iteration     1 Dimension    12 NMult     0 NNew     12
 CISAX will form    12 AO SS matrices at one time.
 NMat=    12 NSing=    12 JSym2X= 0.
 Excitation Energies [eV] at current iteration:
 Root      1 :     4.611323788692185
 Root      2 :     6.123723522809446
 Root      3 :     6.672362706426604
 Root      4 :     7.454645382876592
 Root      5 :     7.625025227459442
 Root      6 :     7.851689402197066
 Root      7 :     7.947475267076447
 Root      8 :     8.250197384031139
 Root      9 :     8.652188591651377
 Root     10 :     9.810160229702159
 Root     11 :     9.882708278199049
 Root     12 :    12.301606999583978
 Iteration     2 Dimension    24 NMult    12 NNew     12
 CISAX will form    12 AO SS matrices at one time.
 NMat=    12 NSing=    12 JSym2X= 0.
 Root      1 not converged, maximum delta is    0.078116339450492
 Excitation Energies [eV] at current iteration:
 Root      1 :     3.589828838471293   Change is   -1.021494950220892
 Root      2 :     4.034460034991071   Change is   -2.089263487818375
 Root      3 :     5.846524764154320   Change is   -0.825837942272284
 Root      4 :     6.427366910993016   Change is   -1.197658316466426
 Root      5 :     6.592097457995489   Change is   -0.862547924881103
 Root      6 :     6.941309288904786   Change is   -0.910380113292280
 Root      7 :     7.132276142414678   Change is   -0.815199124661769
 Root      8 :     7.552667375619993   Change is   -0.697530008411146
 Root      9 :     8.274401499781423   Change is   -0.377787091869955
 Root     10 :     8.852023998483979   Change is   -0.958136231218181
 Root     11 :     9.367173767790270   Change is   -0.515534510408779
 Root     12 :    10.559476761067678   Change is   -1.742130238516300
 Iteration     3 Dimension    27 NMult    24 NNew      3
 CISAX will form     3 AO SS matrices at one time.
 NMat=     3 NSing=     3 JSym2X= 0.
 Root      1 not converged, maximum delta is    0.015390243456733
 Excitation Energies [eV] at current iteration:
 Root      1 :     3.521753789651739   Change is   -0.068075048819554
 Root      2 :     3.856675285370165   Change is   -0.177784749620906
 Root      3 :     5.801361808228062   Change is   -0.045162955926257
 Iteration     4 Dimension    30 NMult    27 NNew      3
 CISAX will form     3 AO SS matrices at one time.
 NMat=     3 NSing=     3 JSym2X= 0.
 Root      1 not converged, maximum delta is    0.007984243414023
 Excitation Energies [eV] at current iteration:
 Root      1 :     3.505881378780089   Change is   -0.015872410871650
 Root      2 :     3.845064294958616   Change is   -0.011610990411548
 Root      3 :     5.792550622245027   Change is   -0.008811185983035
 Iteration     5 Dimension    33 NMult    30 NNew      3
 CISAX will form     3 AO SS matrices at one time.
 NMat=     3 NSing=     3 JSym2X= 0.
 Root      1 not converged, maximum delta is    0.004195205859849
 Excitation Energies [eV] at current iteration:
 Root      1 :     3.501614046426002   Change is   -0.004267332354087
 Root      2 :     3.843694357205124   Change is   -0.001369937753492
 Root      3 :     5.790765012348738   Change is   -0.001785609896289
 Iteration     6 Dimension    36 NMult    33 NNew      3
 CISAX will form     3 AO SS matrices at one time.
 NMat=     3 NSing=     3 JSym2X= 0.
 Root      1 not converged, maximum delta is    0.002150578067994
 Excitation Energies [eV] at current iteration:
 Root      1 :     3.500845005724301   Change is   -0.000769040701701
 Root      2 :     3.843316361320722   Change is   -0.000377995884402
 Root      3 :     5.790566163117605   Change is   -0.000198849231134
 Iteration     7 Dimension    39 NMult    36 NNew      3
 CISAX will form     3 AO SS matrices at one time.
 NMat=     3 NSing=     3 JSym2X= 0.
 Root      1 has converged.
 Excitation Energies [eV] at current iteration:
 Root      1 :     3.500776100864433   Change is   -0.000068904859868
 Root      2 :     3.843262839921145   Change is   -0.000053521399577
 Root      3 :     5.790542764667947   Change is   -0.000023398449658
 Convergence achieved on expansion vectors.
 ***********************************************************************
 Stability analysis using <AA,BB:AA,BB> singles matrix:
 ***********************************************************************
 1PDM for each excited state written to RWF  633
 Ground to excited state transition densities written to RWF  633

 Eigenvectors of the stability matrix:
 
 Excited state symmetry could not be determined.
 Eigenvector   1:  1.829-?Sym  Eigenvalue= 0.1286512  <S**2>=0.586
     16A -> 17A        0.68093
     16B -> 17B        0.68164
 The wavefunction is stable under the perturbations considered.
 Leave Link  914 at Tue Jan  3 09:05:32 2023, MaxMem=   536870912 cpu:               0.8 elap:               0.4
 (Enter /opt/software/gaussian/g16.c01/l508.exe)
 The wavefunction is already stable.
 Leave Link  508 at Tue Jan  3 09:05:32 2023, MaxMem=   536870912 cpu:               0.0 elap:               0.0
 (Enter /opt/software/gaussian/g16.c01/l601.exe)
 Copying SCF densities to generalized density rwf, IOpCl= 1 IROHF=0.

 **********************************************************************

            Population analysis using the SCF Density.

 **********************************************************************

 Alpha  occ. eigenvalues --  -91.95029 -11.25443 -11.23308  -8.98739  -6.67598
 Alpha  occ. eigenvalues --   -6.67341  -6.67278  -1.11073  -0.93026  -0.75925
 Alpha  occ. eigenvalues --   -0.63560  -0.61851  -0.55506  -0.49541  -0.44908
 Alpha  occ. eigenvalues --   -0.31093
 Alpha virt. eigenvalues --    0.13145   0.19618   0.21716   0.22310   0.25852
 Alpha virt. eigenvalues --    0.32055   0.37772   0.47491   0.57494   0.57985
 Alpha virt. eigenvalues --    0.65445   0.67900   0.68544   0.73213   0.78711
 Alpha virt. eigenvalues --    0.86556   0.86827   0.88586   0.89453   0.90764
 Alpha virt. eigenvalues --    0.92140   0.99036   1.02619   1.03910   1.15103
 Alpha virt. eigenvalues --    1.27247   1.37314   1.42369   1.46341   1.47036
 Alpha virt. eigenvalues --    1.81812   1.82064   1.82979   1.84931   1.94771
 Alpha virt. eigenvalues --    1.96098   2.26944   2.29763   2.32101   2.33787
 Alpha virt. eigenvalues --    2.36926   2.41378   2.51794   2.55701   2.69486
 Alpha virt. eigenvalues --    2.76106   3.18137   3.22569   3.24924   3.26388
  Beta  occ. eigenvalues --  -91.95029 -11.25442 -11.23309  -8.98739  -6.67598
  Beta  occ. eigenvalues --   -6.67341  -6.67278  -1.11074  -0.93025  -0.75925
  Beta  occ. eigenvalues --   -0.63560  -0.61852  -0.55506  -0.49542  -0.44908
  Beta  occ. eigenvalues --   -0.31091
  Beta virt. eigenvalues --    0.13144   0.19618   0.21716   0.22309   0.25852
  Beta virt. eigenvalues --    0.32055   0.37772   0.47491   0.57494   0.57985
  Beta virt. eigenvalues --    0.65446   0.67900   0.68543   0.73213   0.78713
  Beta virt. eigenvalues --    0.86556   0.86828   0.88586   0.89451   0.90764
  Beta virt. eigenvalues --    0.92141   0.99036   1.02619   1.03910   1.15103
  Beta virt. eigenvalues --    1.27247   1.37314   1.42370   1.46341   1.47036
  Beta virt. eigenvalues --    1.81811   1.82065   1.82980   1.84929   1.94772
  Beta virt. eigenvalues --    1.96097   2.26946   2.29763   2.32105   2.33786
  Beta virt. eigenvalues --    2.36922   2.41378   2.51793   2.55702   2.69488
  Beta virt. eigenvalues --    2.76104   3.18137   3.22567   3.24925   3.26388
          Condensed to atoms (all electrons):
               1          2          3          4          5          6
     1  C    5.128319   0.316235  -0.055979   0.421771   0.408056  -0.002738
     2  S    0.316235  15.443027   0.316226  -0.035398  -0.025666  -0.025665
     3  C   -0.055979   0.316226   5.128328   0.002840  -0.002736   0.408059
     4  H    0.421771  -0.035398   0.002840   0.524666  -0.016350  -0.000024
     5  H    0.408056  -0.025666  -0.002736  -0.016350   0.541290   0.002840
     6  H   -0.002738  -0.025665   0.408059  -0.000024   0.002840   0.541294
     7  H    0.002840  -0.035398   0.421775  -0.000108  -0.000024  -0.016351
               7
     1  C    0.002840
     2  S   -0.035398
     3  C    0.421775
     4  H   -0.000108
     5  H   -0.000024
     6  H   -0.016351
     7  H    0.524666
          Atomic-Atomic Spin Densities.
               1          2          3          4          5          6
     1  C    1.108665  -0.171947   0.000001   0.000519   0.000994  -0.000506
     2  S   -0.171947  -0.000088   0.171982  -0.000255  -0.000679   0.000680
     3  C    0.000001   0.171982  -1.108641  -0.000421   0.000506  -0.000996
     4  H    0.000519  -0.000255  -0.000421  -0.070638  -0.000663   0.000030
     5  H    0.000994  -0.000679   0.000506  -0.000663  -0.072709   0.000000
     6  H   -0.000506   0.000680  -0.000996   0.000030   0.000000   0.072706
     7  H    0.000421   0.000256  -0.000521   0.000000  -0.000030   0.000664
               7
     1  C    0.000421
     2  S    0.000256
     3  C   -0.000521
     4  H    0.000000
     5  H   -0.000030
     6  H    0.000664
     7  H    0.070633
 Mulliken charges and spin densities:
               1          2
     1  C   -0.218504   0.938148
     2  S    0.046639  -0.000050
     3  C   -0.218513  -0.938090
     4  H    0.102603  -0.071428
     5  H    0.092589  -0.072581
     6  H    0.092585   0.072578
     7  H    0.102601   0.071423
 Sum of Mulliken charges =   0.00000  -0.00000
 Mulliken charges and spin densities with hydrogens summed into heavy atoms:
               1          2
     1  C   -0.023311   0.794139
     2  S    0.046639  -0.000050
     3  C   -0.023327  -0.794089
 Electronic spatial extent (au):  <R**2>=            871.4460
 Charge=              0.0000 electrons
 Dipole moment (field-independent basis, Debye):
    X=             -0.4469    Y=              0.2252    Z=             -0.5945  Tot=              0.7771
 Quadrupole moment (field-independent basis, Debye-Ang):
   XX=            -26.2791   YY=            -28.1679   ZZ=            -25.0455
   XY=              1.0343   XZ=             -1.8426   YZ=             -1.8019
 Traceless Quadrupole moment (field-independent basis, Debye-Ang):
   XX=              0.2184   YY=             -1.6704   ZZ=              1.4521
   XY=              1.0343   XZ=             -1.8426   YZ=             -1.8019
 Octapole moment (field-independent basis, Debye-Ang**2):
  XXX=           -174.2442  YYY=            -20.7456  ZZZ=             26.0730  XYY=            -65.5148
  XXY=             -1.5490  XXZ=              1.8923  XZZ=            -60.9896  YZZ=             -4.4494
  YYZ=              9.4048  XYZ=             -3.1832
 Hexadecapole moment (field-independent basis, Debye-Ang**3):
 XXXX=           -943.6747 YYYY=            -64.2710 ZZZZ=           -118.5382 XXXY=            -38.1206
 XXXZ=             60.1076 YYYX=            -67.6526 YYYZ=             26.0405 ZZZX=             90.2283
 ZZZY=             17.8271 XXYY=           -192.3071 XXZZ=           -193.2172 YYZZ=            -29.4545
 XXYZ=             -1.1317 YYXZ=             31.7274 ZZXY=            -14.9627
 N-N= 1.003080120317D+02 E-N=-1.327734624342D+03  KE= 4.751164795661D+02
                          Isotropic Fermi Contact Couplings
        Atom                 a.u.       MegaHertz       Gauss      10(-4) cm-1
     1  C(13)              0.25478     143.20971      51.10079      47.76962
     2  S(33)             -0.00001      -0.00164      -0.00058      -0.00055
     3  C(13)             -0.25475    -143.19596     -51.09588     -47.76503
     4  H(1)              -0.02070     -46.26570     -16.50875     -15.43258
     5  H(1)              -0.02144     -47.92560     -17.10104     -15.98626
     6  H(1)               0.02144      47.92249      17.09994      15.98522
     7  H(1)               0.02070      46.26211      16.50747      15.43138
 --------------------------------------------------------
       Center         ----  Spin Dipole Couplings  ----
                      3XX-RR        3YY-RR        3ZZ-RR
 --------------------------------------------------------
     1   Atom       -0.445470      0.677637     -0.232167
     2   Atom       -0.181697      0.031328      0.150369
     3   Atom        0.439557     -0.676577      0.237020
     4   Atom       -0.048736      0.007588      0.041148
     5   Atom       -0.025949     -0.000008      0.025957
     6   Atom        0.018027      0.001378     -0.019405
     7   Atom       -0.065230      0.012079      0.053150
 --------------------------------------------------------
                        XY            XZ            YZ
 --------------------------------------------------------
     1   Atom       -0.083389     -0.033339      0.485992
     2   Atom        0.014772     -0.064343     -0.069956
     3   Atom        0.083702      0.031169     -0.488285
     4   Atom        0.012949     -0.037620     -0.021790
     5   Atom       -0.026340      0.056611     -0.007756
     6   Atom        0.026968     -0.059421      0.004704
     7   Atom       -0.003755     -0.002765     -0.022035
 --------------------------------------------------------


 ---------------------------------------------------------------------------------
              Anisotropic Spin Dipole Couplings in Principal Axis System
 ---------------------------------------------------------------------------------

       Atom             a.u.   MegaHertz   Gauss  10(-4) cm-1        Axes

              Baa    -0.4522   -60.682   -21.653   -20.241  0.9610  0.1660 -0.2211
     1 C(13)  Bbb    -0.4422   -59.341   -21.175   -19.794  0.2683 -0.3666  0.8908
              Bcc     0.8944   120.023    42.827    40.035 -0.0668  0.9154  0.3969
 
              Baa    -0.1937    -7.943    -2.834    -2.650  0.9832 -0.0079  0.1822
     2 S(33)  Bbb    -0.0001    -0.004    -0.001    -0.001 -0.0663  0.9153  0.3972
              Bcc     0.1938     7.947     2.836     2.651 -0.1699 -0.4026  0.8994
 
              Baa    -0.8944  -120.018   -42.825   -40.034 -0.0667  0.9154  0.3969
     3 C(13)  Bbb     0.4422    59.338    21.173    19.793  0.8151 -0.1794  0.5509
              Bcc     0.4522    60.680    21.652    20.241 -0.5755 -0.3603  0.7342
 
              Baa    -0.0627   -33.479   -11.946   -11.167  0.9426 -0.0725  0.3261
     4 H(1)   Bbb    -0.0028    -1.493    -0.533    -0.498 -0.0668  0.9155  0.3967
              Bcc     0.0655    34.972    12.479    11.666 -0.3273 -0.3957  0.8581
 
              Baa    -0.0673   -35.921   -12.818   -11.982  0.8329  0.2702 -0.4830
     5 H(1)   Bbb    -0.0015    -0.774    -0.276    -0.258 -0.0668  0.9154  0.3970
              Bcc     0.0688    36.695    13.094    12.240  0.5494 -0.2984  0.7805
 
              Baa    -0.0688   -36.693   -13.093   -12.240  0.6000 -0.2809  0.7490
     6 H(1)   Bbb     0.0014     0.773     0.276     0.258 -0.0668  0.9155  0.3968
              Bcc     0.0673    35.920    12.817    11.982  0.7972  0.2882 -0.5306
 
              Baa    -0.0655   -34.970   -12.478   -11.665  0.9977  0.0579  0.0340
     7 H(1)   Bbb     0.0028     1.493     0.533     0.498 -0.0667  0.9154  0.3969
              Bcc     0.0627    33.477    11.945    11.167 -0.0081 -0.3983  0.9172
 

 ---------------------------------------------------------------------------------

 No NMR shielding tensors so no spin-rotation constants.
 Leave Link  601 at Tue Jan  3 09:05:32 2023, MaxMem=   536870912 cpu:               0.4 elap:               0.2
 (Enter /opt/software/gaussian/g16.c01/l9999.exe)

 Test job not archived.
 1\1\GINC-GRA774\Stability\UHF\Gen\C2H4S1\BHAVUK\03-Jan-2023\0\\#p uhf/
 gen stable=opt scf=(maxcycle=900,verytightlineq,xqc) integral=grid=ult
 rafine symmetry=None density=current iop(99/18=-1) output=wfn\\0003_q0
 00_m01_k00_opt_uwb97xd_def2svpd/0003_q000_m01_k00_force_uhf_def2svp st
 able-force\\0,1\C,0,0.9838325225,-0.0325586033,0.0488580178\S,0,2.6071
 301422,0.0991997065,0.0187984451\C,0,3.2273228911,0.736197977,-1.34600
 48506\H,0,0.570421034,-0.4575297175,0.9597448627\H,0,0.3438072589,0.27
 82232167,-0.7754915598\H,0,2.615218944,1.0564841772,-2.1877415072\H,0,
 4.3104572053,0.8236432464,-1.365823405\\Version=ES64L-G16RevC.01\HF=-4
 75.3132371\S2=0.747545\S2-1=0.\S2A=0.107385\RMSD=9.483e-09\Dipole=-0.1
 758143,0.0886147,-0.2339074\Quadrupole=0.1623577,-1.2419222,1.0795644,
 0.7689972,-1.3699283,-1.3396619\PG=Unknown\\@

 Writing a WFN file to "0003_q000_m01_k00_force_uhf_def2svp.wfn"


 THE ONLY DIFFERENCE BETWEEN ECCENTRICS AND JOGGERS
 IS THAT JOGGERS WEAR SWEATBANDS WHEN THEY RUN IN THE RAIN.
 Job cpu time:       0 days  0 hours  0 minutes  5.9 seconds.
 Elapsed time:       0 days  0 hours  0 minutes  3.1 seconds.
 File lengths (MBytes):  RWF=     59 Int=      0 D2E=      0 Chk=      2 Scr=      1
 Normal termination of Gaussian 16 at Tue Jan  3 09:05:32 2023.
 Initial command:
 /opt/software/gaussian/g16.c01/l1.exe "/localscratch/bhavuk.2151381.0/Gau-13363.inp" -scrdir="/localscratch/bhavuk.2151381.0/"
 Entering Link 1 = /opt/software/gaussian/g16.c01/l1.exe PID=     13413.
  
 Copyright (c) 1988-2019, Gaussian, Inc.  All Rights Reserved.
  
 This is part of the Gaussian(R) 16 program.  It is based on
 the Gaussian(R) 09 system (copyright 2009, Gaussian, Inc.),
 the Gaussian(R) 03 system (copyright 2003, Gaussian, Inc.),
 the Gaussian(R) 98 system (copyright 1998, Gaussian, Inc.),
 the Gaussian(R) 94 system (copyright 1995, Gaussian, Inc.),
 the Gaussian 92(TM) system (copyright 1992, Gaussian, Inc.),
 the Gaussian 90(TM) system (copyright 1990, Gaussian, Inc.),
 the Gaussian 88(TM) system (copyright 1988, Gaussian, Inc.),
 the Gaussian 86(TM) system (copyright 1986, Carnegie Mellon
 University), and the Gaussian 82(TM) system (copyright 1983,
 Carnegie Mellon University). Gaussian is a federally registered
 trademark of Gaussian, Inc.
  
 This software contains proprietary and confidential information,
 including trade secrets, belonging to Gaussian, Inc.
  
 This software is provided under written license and may be
 used, copied, transmitted, or stored only in accord with that
 written license.
  
 The following legend is applicable only to US Government
 contracts under FAR:
  
                    RESTRICTED RIGHTS LEGEND
  
 Use, reproduction and disclosure by the US Government is
 subject to restrictions as set forth in subparagraphs (a)
 and (c) of the Commercial Computer Software - Restricted
 Rights clause in FAR 52.227-19.
  
 Gaussian, Inc.
 340 Quinnipiac St., Bldg. 40, Wallingford CT 06492
  
  
 ---------------------------------------------------------------
 Warning -- This program may not be used in any manner that
 competes with the business of Gaussian, Inc. or will provide
 assistance to any competitor of Gaussian, Inc.  The licensee
 of this program is prohibited from giving any competitor of
 Gaussian, Inc. access to this program.  By using this program,
 the user acknowledges that Gaussian, Inc. is engaged in the
 business of creating and licensing software in the field of
 computational chemistry and represents and warrants to the
 licensee that it is not a competitor of Gaussian, Inc. and that
 it will not use this program in any manner prohibited above.
 ---------------------------------------------------------------
  

 Cite this work as:
 Gaussian 16, Revision C.01,
 M. J. Frisch, G. W. Trucks, H. B. Schlegel, G. E. Scuseria, 
 M. A. Robb, J. R. Cheeseman, G. Scalmani, V. Barone, 
 G. A. Petersson, H. Nakatsuji, X. Li, M. Caricato, A. V. Marenich, 
 J. Bloino, B. G. Janesko, R. Gomperts, B. Mennucci, H. P. Hratchian, 
 J. V. Ortiz, A. F. Izmaylov, J. L. Sonnenberg, D. Williams-Young, 
 F. Ding, F. Lipparini, F. Egidi, J. Goings, B. Peng, A. Petrone, 
 T. Henderson, D. Ranasinghe, V. G. Zakrzewski, J. Gao, N. Rega, 
 G. Zheng, W. Liang, M. Hada, M. Ehara, K. Toyota, R. Fukuda, 
 J. Hasegawa, M. Ishida, T. Nakajima, Y. Honda, O. Kitao, H. Nakai, 
 T. Vreven, K. Throssell, J. A. Montgomery, Jr., J. E. Peralta, 
 F. Ogliaro, M. J. Bearpark, J. J. Heyd, E. N. Brothers, K. N. Kudin, 
 V. N. Staroverov, T. A. Keith, R. Kobayashi, J. Normand, 
 K. Raghavachari, A. P. Rendell, J. C. Burant, S. S. Iyengar, 
 J. Tomasi, M. Cossi, J. M. Millam, M. Klene, C. Adamo, R. Cammi, 
 J. W. Ochterski, R. L. Martin, K. Morokuma, O. Farkas, 
 J. B. Foresman, and D. J. Fox, Gaussian, Inc., Wallingford CT, 2019.
 
 ******************************************
 Gaussian 16:  ES64L-G16RevC.01  3-Jul-2019
                 3-Jan-2023 
 ******************************************
 %chk=0003_q000_m01_k00_force_uhf_def2svp.chk
 %nprocshared=2
 Will use up to    2 processors via shared memory.
 %mem=4GB
 ----------------------------------------------------------------------
 #p uhf/chkbasis force guess=read geom=check scf=(maxcycle=900,verytigh
 tlineq,xqc) integral=grid=ultrafine symmetry=None density=current pop=
 (cm5,hlygat,mbs,npa) output=wfx
 ----------------------------------------------------------------------
 1/10=7,29=2,30=1,38=1/1,3;
 2/12=2,15=3,40=1/2;
 3/5=7,6=2,11=2,14=-4,25=1,30=1,67=1,71=1,75=-5,116=2/1,2,3;
 4/5=1/1;
 5/5=2,7=900,8=3,13=1,17=3,38=6/2,8;
 6/7=2,8=2,9=2,10=2,15=8,20=15,22=-1,27=100,28=1,40=-1,79=1/1,2,7;
 7/29=1,30=1/1,2,3,16;
 1/10=7,30=1/3;
 99/6=200/99;
 Leave Link    1 at Tue Jan  3 09:05:33 2023, MaxMem=   536870912 cpu:               0.2 elap:               0.1
 (Enter /opt/software/gaussian/g16.c01/l101.exe)
 ----------------------------------------------------------------------
 0003_q000_m01_k00_opt_uwb97xd_def2svpd/0003_q000_m01_k00_force_uhf_def
 2svp stable-force
 ----------------------------------------------------------------------
 Structure from the checkpoint file:  "0003_q000_m01_k00_force_uhf_def2svp.chk"
 Charge =  0 Multiplicity = 1
 Z-Matrix found in chk file.
 C,0,0.9838325225,-0.0325586033,0.0488580178
 S,0,2.6071301422,0.0991997065,0.0187984451
 C,0,3.2273228911,0.736197977,-1.3460048506
 H,0,0.570421034,-0.4575297175,0.9597448627
 H,0,0.3438072589,0.2782232167,-0.7754915598
 H,0,2.615218944,1.0564841772,-2.1877415072
 H,0,4.3104572053,0.8236432464,-1.365823405
 Recover connectivity data from disk.
 ITRead=  0  0  0  0  0  0  0
 MicOpt= -1 -1 -1 -1 -1 -1 -1
 NAtoms=      7 NQM=        7 NQMF=       0 NMMI=      0 NMMIF=      0
                NMic=       0 NMicF=      0.
                    Isotopes and Nuclear Properties:
 (Nuclear quadrupole moments (NQMom) in fm**2, nuclear magnetic moments (NMagM)
  in nuclear magnetons)

  Atom         1           2           3           4           5           6           7
 IAtWgt=          12          32          12           1           1           1           1
 AtmWgt=  12.0000000  31.9720718  12.0000000   1.0078250   1.0078250   1.0078250   1.0078250
 NucSpn=           0           0           0           1           1           1           1
 AtZEff=   3.6000000  13.6000000   3.6000000   1.0000000   1.0000000   1.0000000   1.0000000
 NQMom=    0.0000000   0.0000000   0.0000000   0.0000000   0.0000000   0.0000000   0.0000000
 NMagM=    0.0000000   0.0000000   0.0000000   2.7928460   2.7928460   2.7928460   2.7928460
 AtZNuc=   6.0000000  16.0000000   6.0000000   1.0000000   1.0000000   1.0000000   1.0000000
 Leave Link  101 at Tue Jan  3 09:05:33 2023, MaxMem=   536870912 cpu:               0.4 elap:               0.2
 (Enter /opt/software/gaussian/g16.c01/l103.exe)

 GradGradGradGradGradGradGradGradGradGradGradGradGradGradGradGradGradGrad
 Berny optimization.
 Initialization pass.
 Trust Radius=3.00D-01 FncErr=1.00D-07 GrdErr=1.00D-07 EigMax=2.50D+02 EigMin=1.00D-04
 Number of steps in this run=      2 maximum allowed number of steps=      2.
 GradGradGradGradGradGradGradGradGradGradGradGradGradGradGradGradGradGrad

 Leave Link  103 at Tue Jan  3 09:05:33 2023, MaxMem=   536870912 cpu:               0.1 elap:               0.0
 (Enter /opt/software/gaussian/g16.c01/l202.exe)
                          Input orientation:                          
 ---------------------------------------------------------------------
 Center     Atomic      Atomic             Coordinates (Angstroms)
 Number     Number       Type             X           Y           Z
 ---------------------------------------------------------------------
      1          6           0        0.983833   -0.032559    0.048858
      2         16           0        2.607130    0.099200    0.018798
      3          6           0        3.227323    0.736198   -1.346005
      4          1           0        0.570421   -0.457530    0.959745
      5          1           0        0.343807    0.278223   -0.775492
      6          1           0        2.615219    1.056484   -2.187742
      7          1           0        4.310457    0.823643   -1.365823
 ---------------------------------------------------------------------
                    Distance matrix (angstroms):
                    1          2          3          4          5
     1  C    0.000000
     2  S    1.628913   0.000000
     3  C    2.751341   1.628832   0.000000
     4  H    1.086841   2.311604   3.714915   0.000000
     5  H    1.088931   2.405323   2.974876   1.898350   0.000000
     6  H    2.974864   2.405260   1.088933   4.047234   2.785579
     7  H    3.714948   2.311562   1.086839   4.586670   4.047257
                    6          7
     6  H    0.000000
     7  H    1.898314   0.000000
 Symmetry turned off by external request.
 Stoichiometry    C2H4S
 Rotational constants (GHZ):          32.8865896           8.4327606           6.7117401
 Leave Link  202 at Tue Jan  3 09:05:33 2023, MaxMem=   536870912 cpu:               0.0 elap:               0.0
 (Enter /opt/software/gaussian/g16.c01/l301.exe)
 Basis read from chk: "0003_q000_m01_k00_force_uhf_def2svp.chk" (5D, 7F)
 No pseudopotential information found on chk file.
    66 basis functions,   115 primitive gaussians,    69 cartesian basis functions
    16 alpha electrons       16 beta electrons
       nuclear repulsion energy       100.3080120317 Hartrees.
 IExCor=    0 DFT=F Ex=HF Corr=None ExCW=0 ScaHFX=  1.000000
 ScaDFX=  1.000000  1.000000  1.000000  1.000000 ScalE2=  1.000000  1.000000
 IRadAn=      5 IRanWt=     -1 IRanGd=            0 ICorTp=0 IEmpDi=  4
 NAtoms=    7 NActive=    7 NUniq=    7 SFac= 1.00D+00 NAtFMM=   60 NAOKFM=F Big=F
 Integral buffers will be    131072 words long.
 Raffenetti 2 integral format.
 Two-electron integral symmetry is turned off.
 No density basis found on file  20724.
 Leave Link  301 at Tue Jan  3 09:05:33 2023, MaxMem=   536870912 cpu:               0.1 elap:               0.1
 (Enter /opt/software/gaussian/g16.c01/l302.exe)
 NPDir=0 NMtPBC=     1 NCelOv=     1 NCel=       1 NClECP=     1 NCelD=      1
         NCelK=      1 NCelE2=     1 NClLst=     1 CellRange=     0.0.
 One-electron integrals computed using PRISM.
 NBasis=    66 RedAO= T EigKep=  6.57D-03  NBF=    66
 NBsUse=    66 1.00D-06 EigRej= -1.00D+00 NBFU=    66
 Leave Link  302 at Tue Jan  3 09:05:33 2023, MaxMem=   536870912 cpu:               0.2 elap:               0.1
 (Enter /opt/software/gaussian/g16.c01/l303.exe)
 DipDrv:  MaxL=1.
 Leave Link  303 at Tue Jan  3 09:05:33 2023, MaxMem=   536870912 cpu:               0.1 elap:               0.0
 (Enter /opt/software/gaussian/g16.c01/l401.exe)
 Initial guess from the checkpoint file:  "0003_q000_m01_k00_force_uhf_def2svp.chk"
 B after Tr=     0.000000    0.000000    0.000000
         Rot=    1.000000    0.000000    0.000000    0.000000 Ang=   0.00 deg.
 Guess basis will be translated and rotated to current coordinates.
 JPrj=2 DoOrth=T DoCkMO=T.
 Initial guess <Sx>= 0.0000 <Sy>= 0.0000 <Sz>= 0.0000 <S**2>= 0.7475 S= 0.4988
 Leave Link  401 at Tue Jan  3 09:05:33 2023, MaxMem=   536870912 cpu:               0.2 elap:               0.1
 (Enter /opt/software/gaussian/g16.c01/l502.exe)
 Keep R1 and R2 ints in memory in canonical form, NReq=5745125.
 FoFCou: FMM=F IPFlag=           0 FMFlag=           0 FMFlg1=           0
         NFxFlg=           0 DoJE=F BraDBF=F KetDBF=F FulRan=T
         wScrn=  0.000000 ICntrl=       600 IOpCl=  0 I1Cent=           0 NGrid=           0
         NMat0=    1 NMatS0=   2211 NMatT0=    0 NMatD0=    1 NMtDS0=    0 NMtDT0=    0
 Symmetry not used in FoFCou.
 Two-electron integral symmetry not used.
 UHF open shell SCF:
 Using DIIS extrapolation, IDIIS=  1040.
 NGot=   536870912 LenX=   531969369 LenY=   531964167
 Requested convergence on RMS density matrix=1.00D-08 within 128 cycles.
 Requested convergence on MAX density matrix=1.00D-06.
 Requested convergence on             energy=1.00D-06.
 No special actions if energy rises.

 Cycle   1  Pass 1  IDiag  1:
 E= -475.313237142217    
 DIIS: error= 6.79D-08 at cycle   1 NSaved=   1.
 NSaved= 1 IEnMin= 1 EnMin= -475.313237142217     IErMin= 1 ErrMin= 6.79D-08
 ErrMax= 6.79D-08  0.00D+00 EMaxC= 1.00D-01 BMatC= 2.88D-13 BMatP= 2.88D-13
 IDIUse=1 WtCom= 1.00D+00 WtEn= 0.00D+00
 Coeff-Com:  0.100D+01
 Coeff:      0.100D+01
 Gap=     0.442 Goal=   None    Shift=    0.000
 Gap=     0.442 Goal=   None    Shift=    0.000
 RMSDP=9.26D-09 MaxDP=1.37D-07              OVMax= 4.46D-07

 SCF Done:  E(UHF) =  -475.313237142     A.U. after    1 cycles
            NFock=  1  Conv=0.93D-08     -V/T= 2.0004
 <Sx>= 0.0000 <Sy>= 0.0000 <Sz>= 0.0000 <S**2>= 0.7475 S= 0.4988
 <L.S>=  0.00000000000    
 KE= 4.751164791401D+02 PE=-1.327734623918D+03 EE= 2.769968956041D+02
 Annihilation of the first spin contaminant:
 S**2 before annihilation     0.7475,   after     0.1074
 Leave Link  502 at Tue Jan  3 09:05:34 2023, MaxMem=   536870912 cpu:               0.4 elap:               0.2
 (Enter /opt/software/gaussian/g16.c01/l508.exe)
 QCSCF skips out because SCF is already converged.
 Leave Link  508 at Tue Jan  3 09:05:34 2023, MaxMem=   536870912 cpu:               0.0 elap:               0.0
 (Enter /opt/software/gaussian/g16.c01/l601.exe)
 Copying SCF densities to generalized density rwf, IOpCl= 1 IROHF=0.

 **********************************************************************

            Population analysis using the SCF Density.

 **********************************************************************

 Alpha  occ. eigenvalues --  -91.95029 -11.25443 -11.23308  -8.98739  -6.67598
 Alpha  occ. eigenvalues --   -6.67341  -6.67278  -1.11073  -0.93026  -0.75925
 Alpha  occ. eigenvalues --   -0.63560  -0.61851  -0.55506  -0.49541  -0.44908
 Alpha  occ. eigenvalues --   -0.31093
 Alpha virt. eigenvalues --    0.13145   0.19618   0.21716   0.22310   0.25852
 Alpha virt. eigenvalues --    0.32055   0.37772   0.47491   0.57494   0.57985
 Alpha virt. eigenvalues --    0.65445   0.67900   0.68544   0.73213   0.78711
 Alpha virt. eigenvalues --    0.86556   0.86827   0.88586   0.89453   0.90764
 Alpha virt. eigenvalues --    0.92140   0.99036   1.02619   1.03910   1.15103
 Alpha virt. eigenvalues --    1.27247   1.37314   1.42369   1.46341   1.47036
 Alpha virt. eigenvalues --    1.81812   1.82064   1.82979   1.84931   1.94771
 Alpha virt. eigenvalues --    1.96098   2.26944   2.29763   2.32101   2.33787
 Alpha virt. eigenvalues --    2.36926   2.41378   2.51794   2.55701   2.69486
 Alpha virt. eigenvalues --    2.76106   3.18137   3.22569   3.24924   3.26388
  Beta  occ. eigenvalues --  -91.95029 -11.25442 -11.23309  -8.98739  -6.67598
  Beta  occ. eigenvalues --   -6.67341  -6.67278  -1.11074  -0.93025  -0.75925
[...]
    56    H    5  pz     Ryd( 2p)     0.00037       2.37392
 
    57    H    6  S      Val( 1S)     0.42064       0.12811
    58    H    6  S      Ryd( 2S)     0.00060       0.42059
    59    H    6  px     Ryd( 2p)     0.00020       2.23239
    60    H    6  py     Ryd( 2p)     0.00007       1.95819
    61    H    6  pz     Ryd( 2p)     0.00044       2.40586
 
    62    H    7  S      Val( 1S)     0.41272       0.13499
    63    H    7  S      Ryd( 2S)     0.00025       0.41225
    64    H    7  px     Ryd( 2p)     0.00070       2.67953
    65    H    7  py     Ryd( 2p)     0.00003       1.90383
    66    H    7  pz     Ryd( 2p)     0.00002       2.01150


 Summary of Natural Population Analysis:                  
                                                          
                                       Natural Population 
                Natural  -----------------------------------------------
    Atom  No    Charge         Core      Valence    Rydberg      Total
 -----------------------------------------------------------------------
      C    1   -0.73804      0.99972     2.72676    0.01156     3.73804
      S    2    0.23293      4.99924     2.72494    0.04289     7.76707
      C    3    0.09460      0.99973     1.89538    0.01028     2.90540
      H    4    0.12615      0.00000     0.37271    0.00114     0.37385
      H    5    0.12004      0.00000     0.37852    0.00144     0.37996
      H    6    0.07804      0.00000     0.42064    0.00131     0.42196
      H    7    0.08628      0.00000     0.41272    0.00099     0.41372
 =======================================================================
   * Total *   -0.00000      6.99870     8.93168    0.06962    16.00000

                                 Natural Population      
 --------------------------------------------------------
   Core                       6.99870 ( 99.9814% of   7)
   Valence                    8.93168 ( 99.2409% of   9)
   Natural Minimal Basis     15.93038 ( 99.5649% of  16)
   Natural Rydberg Basis      0.06962 (  0.4351% of  16)
 --------------------------------------------------------

    Atom  No          Natural Electron Configuration
 ----------------------------------------------------------------------------
      C    1      [core]2S( 0.60)2p( 2.13)3p( 0.01)
      S    2      [core]3S( 0.74)3p( 1.98)4S( 0.01)3d( 0.03)4p( 0.01)
      C    3      [core]2S( 0.54)2p( 1.36)3p( 0.01)
      H    4            1S( 0.37)
      H    5            1S( 0.38)
      H    6            1S( 0.42)
      H    7            1S( 0.41)


 NBO analysis skipped by request.


 ***************************************************
 *******         Beta  spin orbitals         *******
 ***************************************************


 NATURAL POPULATIONS:  Natural atomic orbital occupancies 
                                                          
   NAO  Atom  No  lang   Type(AO)    Occupancy      Energy
 ----------------------------------------------------------
     1    C    1  S      Cor( 1S)     0.99973     -11.13213
     2    C    1  S      Val( 2S)     0.53626      -0.26714
     3    C    1  S      Ryd( 3S)     0.00081       0.70245
     4    C    1  px     Val( 2p)     0.50863      -0.07518
     5    C    1  px     Ryd( 3p)     0.00275       0.69543
     6    C    1  py     Val( 2p)     0.30656       0.04457
     7    C    1  py     Ryd( 3p)     0.00243       0.78698
     8    C    1  pz     Val( 2p)     0.54387      -0.02062
     9    C    1  pz     Ryd( 3p)     0.00155       0.90443
    10    C    1  dxy    Ryd( 3d)     0.00073       2.30203
    11    C    1  dxz    Ryd( 3d)     0.00048       2.65807
    12    C    1  dyz    Ryd( 3d)     0.00042       2.43138
    13    C    1  dx2y2  Ryd( 3d)     0.00065       2.49336
    14    C    1  dz2    Ryd( 3d)     0.00047       2.51636
 
    15    S    2  S      Cor( 1S)     1.00000     -91.12874
    16    S    2  S      Cor( 2S)     0.99949      -9.51648
    17    S    2  S      Val( 3S)     0.74143      -0.76897
    18    S    2  S      Ryd( 4S)     0.00514       0.72035
    19    S    2  px     Cor( 2p)     0.99989      -6.66476
    20    S    2  px     Val( 3p)     0.57227      -0.16145
    21    S    2  px     Ryd( 4p)     0.00324       1.07860
    22    S    2  py     Cor( 2p)     0.99995      -6.66526
    23    S    2  py     Val( 3p)     0.73924      -0.27184
    24    S    2  py     Ryd( 4p)     0.00252       0.99453
    25    S    2  pz     Cor( 2p)     0.99992      -6.66420
    26    S    2  pz     Val( 3p)     0.67205      -0.22814
    27    S    2  pz     Ryd( 4p)     0.00237       1.05667
    28    S    2  dxy    Ryd( 3d)     0.00707       0.96992
    29    S    2  dxz    Ryd( 3d)     0.00356       1.11614
    30    S    2  dyz    Ryd( 3d)     0.00490       1.03429
    31    S    2  dx2y2  Ryd( 3d)     0.00699       1.15860
    32    S    2  dz2    Ryd( 3d)     0.00709       1.11076
 
    33    C    3  S      Cor( 1S)     0.99972     -11.15071
    34    C    3  S      Val( 2S)     0.59587      -0.41013
    35    C    3  S      Ryd( 3S)     0.00086       0.67523
    36    C    3  px     Val( 2p)     0.61590      -0.09850
    37    C    3  px     Ryd( 3p)     0.00169       0.88256
    38    C    3  py     Val( 2p)     0.89273      -0.32708
    39    C    3  py     Ryd( 3p)     0.00441       0.68654
    40    C    3  pz     Val( 2p)     0.62227      -0.15528
    41    C    3  pz     Ryd( 3p)     0.00300       0.72091
    42    C    3  dxy    Ryd( 3d)     0.00014       2.22724
    43    C    3  dxz    Ryd( 3d)     0.00055       2.59152
    44    C    3  dyz    Ryd( 3d)     0.00026       2.33830
    45    C    3  dx2y2  Ryd( 3d)     0.00023       2.52051
    46    C    3  dz2    Ryd( 3d)     0.00043       2.47803
 
    47    H    4  S      Val( 1S)     0.41273       0.13498
    48    H    4  S      Ryd( 2S)     0.00025       0.41225
    49    H    4  px     Ryd( 2p)     0.00015       2.13657
    50    H    4  py     Ryd( 2p)     0.00012       1.99751
    51    H    4  pz     Ryd( 2p)     0.00047       2.46075
 
    52    H    5  S      Val( 1S)     0.42065       0.12811
    53    H    5  S      Ryd( 2S)     0.00060       0.42058
    54    H    5  px     Ryd( 2p)     0.00028       2.27039
    55    H    5  py     Ryd( 2p)     0.00006       1.95165
    56    H    5  pz     Ryd( 2p)     0.00038       2.37438
 
    57    H    6  S      Val( 1S)     0.37852       0.15998
    58    H    6  S      Ryd( 2S)     0.00059       0.42192
    59    H    6  px     Ryd( 2p)     0.00019       2.23451
    60    H    6  py     Ryd( 2p)     0.00025       1.95266
    61    H    6  pz     Ryd( 2p)     0.00041       2.40544
 
    62    H    7  S      Val( 1S)     0.37271       0.16525
    63    H    7  S      Ryd( 2S)     0.00025       0.41350
    64    H    7  px     Ryd( 2p)     0.00062       2.67885
    65    H    7  py     Ryd( 2p)     0.00022       1.89838
    66    H    7  pz     Ryd( 2p)     0.00005       2.01311


 Summary of Natural Population Analysis:                  
                                                          
                                       Natural Population 
                Natural  -----------------------------------------------
    Atom  No    Charge         Core      Valence    Rydberg      Total
 -----------------------------------------------------------------------
      C    1    0.09465      0.99973     1.89533    0.01028     2.90535
      S    2    0.23288      4.99924     2.72498    0.04289     7.76712
      C    3   -0.73804      0.99972     2.72676    0.01157     3.73804
      H    4    0.08628      0.00000     0.41273    0.00099     0.41372
      H    5    0.07804      0.00000     0.42065    0.00131     0.42196
      H    6    0.12004      0.00000     0.37852    0.00144     0.37996
      H    7    0.12615      0.00000     0.37271    0.00114     0.37385
 =======================================================================
   * Total *   -0.00000      6.99870     8.93168    0.06963    16.00000

                                 Natural Population      
 --------------------------------------------------------
   Core                       6.99870 ( 99.9814% of   7)
   Valence                    8.93168 ( 99.2409% of   9)
   Natural Minimal Basis     15.93037 ( 99.5648% of  16)
   Natural Rydberg Basis      0.06963 (  0.4352% of  16)
 --------------------------------------------------------

    Atom  No          Natural Electron Configuration
 ----------------------------------------------------------------------------
      C    1      [core]2S( 0.54)2p( 1.36)3p( 0.01)
      S    2      [core]3S( 0.74)3p( 1.98)4S( 0.01)3d( 0.03)4p( 0.01)
      C    3      [core]2S( 0.60)2p( 2.13)3p( 0.01)
      H    4            1S( 0.41)
      H    5            1S( 0.42)
      H    6            1S( 0.38)
      H    7            1S( 0.37)


 NBO analysis skipped by request.
 Leave Link  607 at Tue Jan  3 09:05:36 2023, MaxMem=   536870912 cpu:               3.5 elap:               1.8
 (Enter /opt/software/gaussian/g16.c01/l701.exe)
 ... and contract with generalized density number  0.
 Compute integral first derivatives.
 Leave Link  701 at Tue Jan  3 09:05:37 2023, MaxMem=   536870912 cpu:               0.2 elap:               0.1
 (Enter /opt/software/gaussian/g16.c01/l702.exe)
 L702 exits ... SP integral derivatives will be done elsewhere.
 Leave Link  702 at Tue Jan  3 09:05:37 2023, MaxMem=   536870912 cpu:               0.1 elap:               0.0
 (Enter /opt/software/gaussian/g16.c01/l703.exe)
 Integral derivatives from FoFJK, PRISM(SPDF).
 Compute integral first derivatives, UseDBF=F ICtDFT=           0.
 Calling FoFJK, ICntrl=      2127 FMM=F ISym2X=0 I1Cent= 0 IOpClX= 1 NMat=1 NMatS=1 NMatT=0.
 FoFJK:  IHMeth= 1 ICntrl=    2127 DoSepK=F KAlg= 0 I1Cent=           0 FoldK=F
 IRaf=         0 NMat=       1 IRICut=       1 DoRegI=T DoRafI=F ISym2E= 0 IDoP0=0 IntGTp=1.
 FoFCou: FMM=F IPFlag=           0 FMFlag=      100000 FMFlg1=         800
         NFxFlg=           0 DoJE=F BraDBF=F KetDBF=F FulRan=T
         wScrn=  0.000000 ICntrl=      2127 IOpCl=  1 I1Cent=           0 NGrid=           0
         NMat0=    1 NMatS0=      1 NMatT0=    0 NMatD0=    1 NMtDS0=    0 NMtDT0=    0
 Symmetry not used in FoFCou.
 Leave Link  703 at Tue Jan  3 09:05:38 2023, MaxMem=   536870912 cpu:               0.7 elap:               0.3
 (Enter /opt/software/gaussian/g16.c01/l716.exe)
 Dipole        =-1.75813955D-01 8.86144916D-02-2.33906871D-01
 -------------------------------------------------------------------
 Center     Atomic                   Forces (Hartrees/Bohr)
 Number     Number              X              Y              Z
 -------------------------------------------------------------------
      1        6          -0.040209984   -0.000090788   -0.006558316
      2       16           0.030860371   -0.015588376    0.041151027
      3        6           0.007901926    0.016409243   -0.036522993
      4        1           0.000765293    0.002489074   -0.005611872
      5        1           0.001707283   -0.002256218    0.005485571
      6        1           0.004999701   -0.001127658    0.003439917
      7        1          -0.006024589    0.000164724   -0.001383334
 -------------------------------------------------------------------
 Cartesian Forces:  Max     0.041151027 RMS     0.017412327
 Z-matrix is all fixed cartesians, so copy forces.
 Force constants in Cartesian coordinates: 
                1             2             3             4             5 
      1  0.799457D+00
      2  0.386953D-01  0.202300D+00
      3  0.262318D-01 -0.197489D+00  0.573805D+00
      4 -0.458605D+00 -0.232735D-01 -0.165583D-01  0.577555D+00
      5 -0.320482D-01 -0.525335D-01  0.183029D-01  0.867656D-01  0.122175D+00
      6  0.365769D-02  0.197847D-01 -0.872720D-01 -0.110154D+00 -0.165608D+00
      7  0.122699D-02 -0.100692D-01  0.221250D-01 -0.139616D+00 -0.489763D-01
      8 -0.597775D-03  0.748286D-02  0.517705D-03 -0.577409D-01 -0.107626D+00
      9  0.278568D-03 -0.108316D-02  0.102956D-01  0.116790D+00  0.142526D+00
     10 -0.144909D+00 -0.441803D-01  0.836168D-01  0.115252D-02 -0.932375D-02
     11 -0.404522D-01 -0.846163D-01  0.105218D+00 -0.241587D-03  0.264194D-02
     12  0.750267D-01  0.104603D+00 -0.264763D+00  0.410365D-03 -0.299905D-02
     13 -0.197168D+00  0.388020D-01 -0.115426D+00 -0.916549D-03  0.691836D-02
     14  0.343779D-01 -0.722913D-01  0.735979D-01 -0.146773D-02  0.180903D-01
     15 -0.105206D+00  0.743316D-01 -0.232001D+00  0.158269D-03  0.144866D-02
     16 -0.246017D-04  0.336366D-03  0.145813D-03  0.192862D-01 -0.309494D-02
     17  0.337132D-03 -0.460942D-02 -0.199817D-02  0.528610D-02  0.146053D-01
     18  0.146171D-03 -0.199852D-02 -0.866351D-03 -0.120134D-01  0.780803D-02
     19  0.227250D-04 -0.310706D-03 -0.134690D-03  0.114404D-02 -0.240739D-03
     20 -0.312161D-03  0.426801D-02  0.185017D-02 -0.932793D-02  0.264671D-02
     21 -0.135369D-03  0.185083D-02  0.802328D-03  0.213670D-01 -0.147893D-02
                6             7             8             9            10 
      6  0.407473D+00
      7  0.965700D-01  0.667382D+00
      8  0.141042D+00  0.492959D-01  0.225135D+00
      9 -0.351317D+00 -0.206782D-01 -0.248346D+00  0.683203D+00
     10  0.213707D-01  0.228255D-04 -0.312081D-03 -0.135286D-03  0.115530D+00
     11 -0.146606D-02 -0.312069D-03  0.426675D-02  0.184962D-02  0.445604D-01
     12  0.901525D-02 -0.135235D-03  0.184900D-02  0.801534D-03 -0.864441D-01
     13 -0.191712D-01 -0.246447D-04  0.336954D-03  0.146068D-03  0.282041D-01
     14  0.324183D-04  0.336979D-03 -0.460733D-02 -0.199726D-02  0.925576D-02
     15  0.148968D-01  0.146176D-03 -0.199858D-02 -0.866379D-03 -0.184082D-01
     16  0.731953D-02 -0.179623D+00  0.329496D-01 -0.989913D-01  0.000000D+00
     17  0.921888D-02  0.373763D-01 -0.753070D-01  0.810589D-01  0.000000D+00
     18 -0.181486D-02 -0.109211D+00  0.803191D-01 -0.246533D+00  0.000000D+00
     19  0.407512D-03 -0.349368D+00 -0.239317D-01  0.258983D-02  0.000000D+00
     20 -0.300348D-02 -0.276515D-01 -0.493443D-01  0.259912D-01  0.000000D+00
     21  0.901933D-02  0.111835D-01  0.266169D-01 -0.955832D-01  0.000000D+00
               11            12            13            14            15 
     11  0.698063D-01
     12 -0.111340D+00  0.260624D+00
     13 -0.355446D-02  0.111423D-01  0.169905D+00
     14  0.790132D-02  0.788712D-02 -0.425029D-01  0.509070D-01
     15  0.573850D-02 -0.567740D-02  0.123309D+00 -0.795202D-01  0.223648D+00
     16  0.000000D+00  0.000000D+00  0.000000D+00  0.000000D+00  0.000000D+00
     17  0.000000D+00  0.000000D+00  0.000000D+00  0.000000D+00  0.000000D+00
     18  0.000000D+00  0.000000D+00  0.000000D+00  0.000000D+00  0.000000D+00
     19  0.000000D+00  0.000000D+00  0.000000D+00  0.000000D+00  0.000000D+00
     20  0.000000D+00  0.000000D+00  0.000000D+00  0.000000D+00  0.000000D+00
     21  0.000000D+00  0.000000D+00  0.000000D+00  0.000000D+00  0.000000D+00
               16            17            18            19            20 
     16  0.161831D+00
     17 -0.418445D-01  0.522901D-01
     18  0.120449D+00 -0.826089D-01  0.230340D+00
     19 -0.147004D-02 -0.115499D-02  0.629518D-03  0.349671D+00
     20  0.116534D-01  0.130211D-01 -0.351969D-02  0.256381D-01  0.294086D-01
     21 -0.289230D-01 -0.567069D-02  0.188748D-01 -0.349217D-02 -0.213182D-01
               21 
     21  0.668867D-01
 Leave Link  716 at Tue Jan  3 09:05:38 2023, MaxMem=   536870912 cpu:               0.1 elap:               0.0
 (Enter /opt/software/gaussian/g16.c01/l103.exe)

 GradGradGradGradGradGradGradGradGradGradGradGradGradGradGradGradGradGrad
 Berny optimization.
 Search for a local minimum.
 Step number   1 out of a maximum of    2
 All quantities printed in internal units (Hartrees-Bohrs-Radians)
 Second derivative matrix not updated -- first step.
 ITU=  0
     Eigenvalues ---    0.00860   0.01482   0.01804   0.07108   0.07556
     Eigenvalues ---    0.11270   0.14823   0.15345   0.17618   0.32617
     Eigenvalues ---    0.36576   0.82416   0.92900   1.11635   1.31988
 Angle between quadratic step and forces=  66.12 degrees.
 Linear search not attempted -- first point.
 B after Tr=     0.022420   -0.011287    0.029853
         Rot=    1.000000   -0.000011   -0.000004    0.000009 Ang=  -0.00 deg.
 Variable       Old X    -DE/DX   Delta X   Delta X   Delta X     New X
                                 (Linear)    (Quad)   (Total)
    X1        1.85917  -0.04021   0.00000  -0.01452   0.00790   1.86707
    Y1       -0.06153  -0.00009   0.00000   0.01389   0.00257  -0.05895
    Z1        0.09233  -0.00656   0.00000  -0.03441  -0.00457   0.08776
    X2        4.92676   0.03086   0.00000   0.07382   0.09624   5.02300
    Y2        0.18746  -0.01559   0.00000  -0.03728  -0.04866   0.13880
    Z2        0.03552   0.04115   0.00000   0.09825   0.12806   0.16359
    X3        6.09876   0.00790   0.00000  -0.02998  -0.00756   6.09119
    Y3        1.39121   0.01641   0.00000   0.00858  -0.00275   1.38846
    Z3       -2.54358  -0.03652   0.00000  -0.02486   0.00497  -2.53861
    X4        1.07794   0.00077   0.00000  -0.10738  -0.08496   0.99298
    Y4       -0.86461   0.00249   0.00000   0.03082   0.01947  -0.84513
    Z4        1.81365  -0.00561   0.00000  -0.08890  -0.05907   1.75458
    X5        0.64970   0.00171   0.00000   0.05562   0.07803   0.72774
    Y5        0.52577  -0.00226   0.00000   0.03038   0.01911   0.54488
    Z5       -1.46547   0.00549   0.00000  -0.06072  -0.03086  -1.49633
    X6        4.94205   0.00500   0.00000  -0.08236  -0.05995   4.88210
    Y6        1.99647  -0.00113   0.00000  -0.01695  -0.02823   1.96824
    Z6       -4.13423   0.00344   0.00000   0.02500   0.05485  -4.07938
    X7        8.14558  -0.00602   0.00000  -0.05213  -0.02971   8.11588
    Y7        1.55646   0.00016   0.00000   0.04984   0.03848   1.59494
    Z7       -2.58103  -0.00138   0.00000  -0.12320  -0.09338  -2.67442
         Item               Value     Threshold  Converged?
 Maximum Force            0.041151     0.000450     NO 
 RMS     Force            0.017412     0.000300     NO 
 Maximum Displacement     0.128062     0.001800     NO 
 RMS     Displacement     0.055714     0.001200     NO 
 Predicted change in Energy=-4.447477D-03
 GradGradGradGradGradGradGradGradGradGradGradGradGradGradGradGradGradGrad

 Leave Link  103 at Tue Jan  3 09:05:38 2023, MaxMem=   536870912 cpu:               0.0 elap:               0.0
 (Enter /opt/software/gaussian/g16.c01/l9999.exe)
 Unable to Open any file for archive entry.
 1\1\GINC-GRA774\Force\UHF\Gen\C2H4S1\BHAVUK\03-Jan-2023\0\\#p uhf/chkb
 asis force guess=read geom=check scf=(maxcycle=900,verytightlineq,xqc)
  integral=grid=ultrafine symmetry=None density=current pop=(cm5,hlygat
 ,mbs,npa) output=wfx\\0003_q000_m01_k00_opt_uwb97xd_def2svpd/0003_q000
 _m01_k00_force_uhf_def2svp stable-force\\0,1\C,0.9838325225,-0.0325586
 033,0.0488580178\S,2.6071301422,0.0991997065,0.0187984451\C,3.22732289
 11,0.736197977,-1.3460048506\H,0.570421034,-0.4575297175,0.9597448627\
 H,0.3438072589,0.2782232167,-0.7754915598\H,2.615218944,1.0564841772,-
 2.1877415072\H,4.3104572053,0.8236432464,-1.365823405\\Version=ES64L-G
 16RevC.01\HF=-475.3132371\S2=0.747544\S2-1=0.\S2A=0.107384\RMSD=9.259e
 -09\RMSF=1.741e-02\Dipole=-0.175814,0.0886145,-0.2339069\Quadrupole=0.
 1623601,-1.2419231,1.0795631,0.7689962,-1.3699256,-1.3396615\PG=Unknow
 n\\@
 The archive entry for this job was punched.

 Writing a WFNX file to "0003_q000_m01_k00_force_uhf_def2svp.wfx"


 SI MONUMENTUM REQUIRIS, CIRCUMSPICE
     -- FROM SIR CHRISTOPHER WREN'S TOMBSTONE
 Job cpu time:       0 days  0 hours  0 minutes  8.2 seconds.
 Elapsed time:       0 days  0 hours  0 minutes  4.0 seconds.
 File lengths (MBytes):  RWF=      6 Int=      0 D2E=      0 Chk=      2 Scr=      1
 Normal termination of Gaussian 16 at Tue Jan  3 09:05:38 2023.
