 Entering Gaussian System, Link 0=g16
 Input=0003_q000_m01_k00_force_uhf_def2svpd.com
 Output=0003_q000_m01_k00_force_uhf_def2svpd.log
 Initial command:
 /opt/software/gaussian/g16.c01/l1.exe "/localscratch/bhavuk.2151382.0/Gau-6839.inp" -scrdir="/localscratch/bhavuk.2151382.0/"
 Entering Link 1 = /opt/software/gaussian/g16.c01/l1.exe PID=      6840.
  
 Copyright (c) 1988-2019, Gaussian, Inc.  All Rights Reserved.
  
 This is part of the Gaussian(R) 16 program.  It is based on
 the Gaussian(R) 09 system (copyright 2009, Gaussian, Inc.),
 the Gaussian(R) 03 system (copyright 2003, Gaussian, Inc.),
 the Gaussian(R) 98 system (copyright 1998, Gaussian, Inc.),
 the Gaussian(R) 94 system (copyright 1995, Gaussian, Inc.),
 the Gaussian 92(TM) system (copyright 1992, Gaussian, Inc.),
 the Gaussian 90(TM) system (copyright 1990, Gaussian, Inc.),
 the Gaussian 88(TM) system (copyright 1988, Gaussian, Inc.),
 the Gaussian 86(TM) system (copyright 1986, Carnegie Mellon
 University), and the Gaussian 82(TM) system (copyright 1983,
 Carnegie Mellon University). Gaussian is a federally registered
 trademark of Gaussian, Inc.
  
 This software contains proprietary and confidential information,
 including trade secrets, belonging to Gaussian, Inc.
  
 This software is provided under written license and may be
 used, copied, transmitted, or stored only in accord with that
 written license.
  
 The following legend is applicable only to US Government
 contracts under FAR:
  
                    RESTRICTED RIGHTS LEGEND
  
 Use, reproduction and disclosure by the US Government is
 subject to restrictions as set forth in subparagraphs (a)
 and (c) of the Commercial Computer Software - Restricted
 Rights clause in FAR 52.227-19.
  
 Gaussian, Inc.
 340 Quinnipiac St., Bldg. 40, Wallingford CT 06492
  
  
 ---------------------------------------------------------------
 Warning -- This program may not be used in any manner that
 competes with the business of Gaussian, Inc. or will provide
 assistance to any competitor of Gaussian, Inc.  The licensee
 of this program is prohibited from giving any competitor of
 Gaussian, Inc. access to this program.  By using this program,
 the user acknowledges that Gaussian, Inc. is engaged in the
 business of creating and licensing software in the field of
 computational chemistry and represents and warrants to the
 licensee that it is not a competitor of Gaussian, Inc. and that
 it will not use this program in any manner prohibited above.
 ---------------------------------------------------------------
  

 Cite this work as:
 Gaussian 16, Revision C.01,
 M. J. Frisch, G. W. Trucks, H. B. Schlegel, G. E. Scuseria, 
 M. A. Robb, J. R. Cheeseman, G. Scalmani, V. Barone, 
 G. A. Petersson, H. Nakatsuji, X. Li, M. Caricato, A. V. Marenich, 
 J. Bloino, B. G. Janesko, R. Gomperts, B. Mennucci, H. P. Hratchian, 
 J. V. Ortiz, A. F. Izmaylov, J. L. Sonnenberg, D. Williams-Young, 
 F. Ding, F. Lipparini, F. Egidi, J. Goings, B. Peng, A. Petrone, 
 T. Henderson, D. Ranasinghe, V. G. Zakrzewski, J. Gao, N. Rega, 
 G. Zheng, W. Liang, M. Hada, M. Ehara, K. Toyota, R. Fukuda, 
 J. Hasegawa, M. Ishida, T. Nakajima, Y. Honda, O. Kitao, H. Nakai, 
 T. Vreven, K. Throssell, J. A. Montgomery, Jr., J. E. Peralta, 
 F. Ogliaro, M. J. Bearpark, J. J. Heyd, E. N. Brothers, K. N. Kudin, 
 V. N. Staroverov, T. A. Keith, R. Kobayashi, J. Normand, 
 K. Raghavachari, A. P. Rendell, J. C. Burant, S. S. Iyengar, 
 J. Tomasi, M. Cossi, J. M. Millam, M. Klene, C. Adamo, R. Cammi, 
 J. W. Ochterski, R. L. Martin, K. Morokuma, O. Farkas, 
 J. B. Foresman, and D. J. Fox, Gaussian, Inc., Wallingford CT, 2019.
 
 ******************************************
 Gaussian 16:  ES64L-G16RevC.01  3-Jul-2019
                 3-Jan-2023 
 ******************************************
 %chk=0003_q000_m01_k00_force_uhf_def2svpd.chk
 %nprocshared=2
 Will use up to    2 processors via shared memory.
 %mem=4GB
 ----------------------------------------------------------------------
 #p uhf/gen stable=opt scf=(maxcycle=900,verytightlineq,xqc) integral=g
 rid=ultrafine symmetry=None density=current iop(99/18=-1) output=wfn
 ----------------------------------------------------------------------
 1/38=1,172=1/1;
 2/12=2,15=3,17=6,18=5,40=1/2;
 3/5=7,11=2,25=1,30=1,75=-5,116=2/1,2,3;
 4//1;
 5/5=2,7=900,8=3,13=1,17=3,38=5/2,8;
 6/7=2,8=2,9=2,10=2,22=-1,28=1/1;
 8/6=1,10=90,11=11/1;
 9/8=-3,42=1,46=1/14;
 5/5=2,7=900,8=3,17=43,38=5/8(-2);
 6/7=2,8=2,9=2,10=2,22=-1,28=1/1;
 99/5=1,6=100,9=1,18=-1/99;
 Leave Link    1 at Tue Jan  3 09:05:33 2023, MaxMem=   536870912 cpu:               0.1 elap:               0.1
 (Enter /opt/software/gaussian/g16.c01/l101.exe)
 ----------------------------------------------------------------------
 0003_q000_m01_k00_opt_uwb97xd_def2svpd/0003_q000_m01_k00_force_uhf_def
 2svpd stable-force
 ----------------------------------------------------------------------
 Symbolic Z-matrix:
 Charge =  0 Multiplicity = 1
 C                     0.98383  -0.03256   0.04886 
 S                     2.60713   0.0992    0.0188 
 C                     3.22732   0.7362   -1.346 
 H                     0.57042  -0.45753   0.95974 
 H                     0.34381   0.27822  -0.77549 
 H                     2.61522   1.05648  -2.18774 
 H                     4.31046   0.82364  -1.36582 
 
 ITRead=  0  0  0  0  0  0  0
 MicOpt= -1 -1 -1 -1 -1 -1 -1
 NAtoms=      7 NQM=        7 NQMF=       0 NMMI=      0 NMMIF=      0
                NMic=       0 NMicF=      0.
                    Isotopes and Nuclear Properties:
 (Nuclear quadrupole moments (NQMom) in fm**2, nuclear magnetic moments (NMagM)
  in nuclear magnetons)

  Atom         1           2           3           4           5           6           7
 IAtWgt=          12          32          12           1           1           1           1
 AtmWgt=  12.0000000  31.9720718  12.0000000   1.0078250   1.0078250   1.0078250   1.0078250
 NucSpn=           0           0           0           1           1           1           1
 AtZEff=  -0.0000000  -0.0000000  -0.0000000  -0.0000000  -0.0000000  -0.0000000  -0.0000000
 NQMom=    0.0000000   0.0000000   0.0000000   0.0000000   0.0000000   0.0000000   0.0000000
 NMagM=    0.0000000   0.0000000   0.0000000   2.7928460   2.7928460   2.7928460   2.7928460
 AtZNuc=   6.0000000  16.0000000   6.0000000   1.0000000   1.0000000   1.0000000   1.0000000
 Leave Link  101 at Tue Jan  3 09:05:33 2023, MaxMem=   536870912 cpu:               0.5 elap:               0.3
 (Enter /opt/software/gaussian/g16.c01/l202.exe)
                          Input orientation:                          
 ---------------------------------------------------------------------
 Center     Atomic      Atomic             Coordinates (Angstroms)
 Number     Number       Type             X           Y           Z
 ---------------------------------------------------------------------
      1          6           0        0.983833   -0.032559    0.048858
      2         16           0        2.607130    0.099200    0.018798
      3          6           0        3.227323    0.736198   -1.346005
      4          1           0        0.570421   -0.457530    0.959745
      5          1           0        0.343807    0.278223   -0.775492
      6          1           0        2.615219    1.056484   -2.187742
      7          1           0        4.310457    0.823643   -1.365823
 ---------------------------------------------------------------------
                    Distance matrix (angstroms):
                    1          2          3          4          5
     1  C    0.000000
     2  S    1.628913   0.000000
     3  C    2.751341   1.628832   0.000000
     4  H    1.086841   2.311604   3.714915   0.000000
     5  H    1.088931   2.405323   2.974876   1.898350   0.000000
     6  H    2.974864   2.405260   1.088933   4.047234   2.785579
     7  H    3.714948   2.311562   1.086839   4.586670   4.047257
                    6          7
     6  H    0.000000
     7  H    1.898314   0.000000
 Symmetry turned off by external request.
 Stoichiometry    C2H4S
 Rotational constants (GHZ):          32.8865896           8.4327606           6.7117401
 Leave Link  202 at Tue Jan  3 09:05:33 2023, MaxMem=   536870912 cpu:               0.0 elap:               0.0
 (Enter /opt/software/gaussian/g16.c01/l301.exe)
 General basis read from cards:  (5D, 7F)
 Centers:       4      5      6      7
 S 3 1.00
     Exponent=  1.3010701000D+01 Coefficients=  1.9682158000D-02
     Exponent=  1.9622572000D+00 Coefficients=  1.3796524000D-01
     Exponent=  4.4453796000D-01 Coefficients=  4.7831935000D-01
 S 1 1.00
     Exponent=  1.2194962000D-01 Coefficients=  1.0000000000D+00
 P 1 1.00
     Exponent=  8.0000000000D-01 Coefficients=  1.0000000000D+00
 P 1 1.00
     Exponent=  1.1704099050D-01 Coefficients=  1.0000000000D+00
 ****
 Centers:       1      3
 S 5 1.00
     Exponent=  1.2384016938D+03 Coefficients=  5.4568832082D-03
     Exponent=  1.8629004992D+02 Coefficients=  4.0638409211D-02
     Exponent=  4.2251176346D+01 Coefficients=  1.8025593888D-01
     Exponent=  1.1676557932D+01 Coefficients=  4.6315121755D-01
     Exponent=  3.5930506482D+00 Coefficients=  4.4087173314D-01
 S 1 1.00
     Exponent=  4.0245147363D-01 Coefficients=  1.0000000000D+00
 S 1 1.00
     Exponent=  1.3090182668D-01 Coefficients=  1.0000000000D+00
 S 1 1.00
     Exponent=  6.7053540256D-02 Coefficients=  1.0000000000D+00
 P 3 1.00
     Exponent=  9.4680970621D+00 Coefficients=  3.8387871728D-02
     Exponent=  2.0103545142D+00 Coefficients=  2.1117025112D-01
     Exponent=  5.4771004707D-01 Coefficients=  5.1328172114D-01
 P 1 1.00
     Exponent=  1.5268613795D-01 Coefficients=  1.0000000000D+00
 D 1 1.00
     Exponent=  8.0000000000D-01 Coefficients=  1.0000000000D+00
 D 1 1.00
     Exponent=  1.1713185140D-01 Coefficients=  1.0000000000D+00
 ****
 Centers:       2
 S 5 1.00
     Exponent=  9.1849303010D+03 Coefficients= -2.2294387756D-03
     Exponent=  1.3815105503D+03 Coefficients= -1.6683029937D-02
     Exponent=  3.1387147580D+02 Coefficients= -7.5262436116D-02
     Exponent=  8.8053870623D+01 Coefficients= -1.9376827038D-01
     Exponent=  2.7039914905D+01 Coefficients= -1.7718020803D-01
 S 3 1.00
     Exponent=  4.5648731303D+01 Coefficients= -1.0736062573D-01
     Exponent=  4.9664522326D+00 Coefficients=  6.5066293018D-01
     Exponent=  2.0116242047D+00 Coefficients=  5.9712155354D-01
 S 1 1.00
     Exponent=  3.5661077013D-01 Coefficients=  1.0000000000D+00
 S 1 1.00
     Exponent=  1.3507221477D-01 Coefficients=  1.0000000000D+00
 S 1 1.00
     Exponent=  4.4999823506D-02 Coefficients=  1.0000000000D+00
 P 5 1.00
     Exponent=  2.6198233439D+02 Coefficients= -9.2729929822D-03
     Exponent=  6.1306894736D+01 Coefficients= -6.6547669241D-02
     Exponent=  1.9103729887D+01 Coefficients= -2.4828595903D-01
     Exponent=  6.6567720378D+00 Coefficients= -4.8703847402D-01
     Exponent=  2.3959635161D+00 Coefficients= -3.9337850312D-01
 P 1 1.00
     Exponent=  6.1776161679D-01 Coefficients=  1.0000000000D+00
 P 1 1.00
     Exponent=  1.6993376871D-01 Coefficients=  1.0000000000D+00
 P 1 1.00
     Exponent=  4.1706793676D-02 Coefficients=  1.0000000000D+00
 D 1 1.00
     Exponent=  5.5000000000D-01 Coefficients=  1.0000000000D+00
 D 1 1.00
     Exponent=  1.0172853717D-01 Coefficients=  1.0000000000D+00
 ****
 Ernie: Thresh=  0.10000D-02 Tol=  0.10000D-05 Strict=F.
    99 basis functions,   151 primitive gaussians,   105 cartesian basis functions
    16 alpha electrons       16 beta electrons
       nuclear repulsion energy       100.3080120317 Hartrees.
 IExCor=    0 DFT=F Ex=HF Corr=None ExCW=0 ScaHFX=  1.000000
 ScaDFX=  1.000000  1.000000  1.000000  1.000000 ScalE2=  1.000000  1.000000
 IRadAn=      5 IRanWt=     -1 IRanGd=            0 ICorTp=0 IEmpDi=  4
 NAtoms=    7 NActive=    7 NUniq=    7 SFac= 1.00D+00 NAtFMM=   60 NAOKFM=F Big=F
 Integral buffers will be    131072 words long.
 Raffenetti 2 integral format.
 Two-electron integral symmetry is turned off.
 Leave Link  301 at Tue Jan  3 09:05:33 2023, MaxMem=   536870912 cpu:               0.2 elap:               0.1
 (Enter /opt/software/gaussian/g16.c01/l302.exe)
 NPDir=0 NMtPBC=     1 NCelOv=     1 NCel=       1 NClECP=     1 NCelD=      1
         NCelK=      1 NCelE2=     1 NClLst=     1 CellRange=     0.0.
 One-electron integrals computed using PRISM.
 NBasis=    99 RedAO= T EigKep=  4.04D-04  NBF=    99
 NBsUse=    99 1.00D-06 EigRej= -1.00D+00 NBFU=    99
 Leave Link  302 at Tue Jan  3 09:05:33 2023, MaxMem=   536870912 cpu:               0.3 elap:               0.1
 (Enter /opt/software/gaussian/g16.c01/l303.exe)
 DipDrv:  MaxL=1.
 Leave Link  303 at Tue Jan  3 09:05:33 2023, MaxMem=   536870912 cpu:               0.1 elap:               0.1
 (Enter /opt/software/gaussian/g16.c01/l401.exe)
 ExpMin= 4.17D-02 ExpMax= 9.18D+03 ExpMxC= 1.38D+03 IAcc=3 IRadAn=         5 AccDes= 0.00D+00
 Harris functional with IExCor=  205 and IRadAn=       5 diagonalized for initial guess.
 HarFok:  IExCor=  205 AccDes= 0.00D+00 IRadAn=         5 IDoV= 1 UseB2=F ITyADJ=14
 ICtDFT=  3500011 ScaDFX=  1.000000  1.000000  1.000000  1.000000
 FoFCou: FMM=F IPFlag=           0 FMFlag=      100000 FMFlg1=           0
         NFxFlg=           0 DoJE=T BraDBF=F KetDBF=T FulRan=T
         wScrn=  0.000000 ICntrl=       500 IOpCl=  0 I1Cent=   200000004 NGrid=           0
         NMat0=    1 NMatS0=      1 NMatT0=    0 NMatD0=    1 NMtDS0=    0 NMtDT0=    0
 Symmetry not used in FoFCou.
 Harris En= -475.158972228594    
 JPrj=0 DoOrth=F DoCkMO=F.
 Initial guess <Sx>= 0.0000 <Sy>= 0.0000 <Sz>= 0.0000 <S**2>= 0.0000 S= 0.0000
 Leave Link  401 at Tue Jan  3 09:05:34 2023, MaxMem=   536870912 cpu:               0.9 elap:               0.4
 (Enter /opt/software/gaussian/g16.c01/l502.exe)
 Keep R1 and R2 ints in memory in canonical form, NReq=25378423.
 FoFCou: FMM=F IPFlag=           0 FMFlag=           0 FMFlg1=           0
         NFxFlg=           0 DoJE=F BraDBF=F KetDBF=F FulRan=T
         wScrn=  0.000000 ICntrl=       600 IOpCl=  0 I1Cent=           0 NGrid=           0
         NMat0=    1 NMatS0=   4950 NMatT0=    0 NMatD0=    1 NMtDS0=    0 NMtDT0=    0
 Symmetry not used in FoFCou.
 Two-electron integral symmetry not used.
 UHF open shell SCF:
 Using DIIS extrapolation, IDIIS=  1040.
 NGot=   536870912 LenX=   512339727 LenY=   512328261
 Requested convergence on RMS density matrix=1.00D-08 within 128 cycles.
 Requested convergence on MAX density matrix=1.00D-06.
 Requested convergence on             energy=1.00D-06.
 No special actions if energy rises.

 Cycle   1  Pass 1  IDiag  1:
 E= -475.082785296050    
 DIIS: error= 4.71D-02 at cycle   1 NSaved=   1.
 NSaved= 1 IEnMin= 1 EnMin= -475.082785296050     IErMin= 1 ErrMin= 4.71D-02
 ErrMax= 4.71D-02  0.00D+00 EMaxC= 1.00D-01 BMatC= 1.07D+00 BMatP= 1.07D+00
 IDIUse=3 WtCom= 5.29D-01 WtEn= 4.71D-01
 Coeff-Com:  0.100D+01
 Coeff-En:   0.100D+01
 Coeff:      0.100D+01
 Gap=     0.275 Goal=   None    Shift=    0.000
 Gap=     0.275 Goal=   None    Shift=    0.000
 GapD=    0.275 DampG=1.000 DampE=0.500 DampFc=0.5000 IDamp=-1.
 Damping current iteration by 5.00D-01
 RMSDP=1.01D-02 MaxDP=1.51D-01              OVMax= 2.02D-01

 Cycle   2  Pass 1  IDiag  1:
 E= -475.202582082537     Delta-E=       -0.119796786487 Rises=F Damp=T
 DIIS: error= 1.53D-02 at cycle   2 NSaved=   2.
 NSaved= 2 IEnMin= 2 EnMin= -475.202582082537     IErMin= 2 ErrMin= 1.53D-02
 ErrMax= 1.53D-02  0.00D+00 EMaxC= 1.00D-01 BMatC= 1.37D-01 BMatP= 1.07D+00
 IDIUse=3 WtCom= 8.47D-01 WtEn= 1.53D-01
 Coeff-Com: -0.397D+00 0.140D+01
 Coeff-En:   0.000D+00 0.100D+01
 Coeff:     -0.336D+00 0.134D+01
 Gap=     0.372 Goal=   None    Shift=    0.000
 Gap=     0.372 Goal=   None    Shift=    0.000
 RMSDP=4.12D-03 MaxDP=5.22D-02 DE=-1.20D-01 OVMax= 7.69D-02

 Cycle   3  Pass 1  IDiag  1:
 E= -475.301728177481     Delta-E=       -0.099146094944 Rises=F Damp=F
 DIIS: error= 2.12D-03 at cycle   3 NSaved=   3.
 NSaved= 3 IEnMin= 3 EnMin= -475.301728177481     IErMin= 3 ErrMin= 2.12D-03
 ErrMax= 2.12D-03  0.00D+00 EMaxC= 1.00D-01 BMatC= 1.53D-03 BMatP= 1.37D-01
 IDIUse=3 WtCom= 9.79D-01 WtEn= 2.12D-02
 Coeff-Com: -0.168D-01-0.119D-01 0.103D+01
 Coeff-En:   0.000D+00 0.000D+00 0.100D+01
 Coeff:     -0.164D-01-0.117D-01 0.103D+01
 Gap=     0.345 Goal=   None    Shift=    0.000
 Gap=     0.345 Goal=   None    Shift=    0.000
 RMSDP=5.39D-04 MaxDP=1.03D-02 DE=-9.91D-02 OVMax= 9.77D-03

 Cycle   4  Pass 1  IDiag  1:
 E= -475.302317973858     Delta-E=       -0.000589796377 Rises=F Damp=F
 DIIS: error= 8.40D-04 at cycle   4 NSaved=   4.
 NSaved= 4 IEnMin= 4 EnMin= -475.302317973858     IErMin= 4 ErrMin= 8.40D-04
 ErrMax= 8.40D-04  0.00D+00 EMaxC= 1.00D-01 BMatC= 1.34D-04 BMatP= 1.53D-03
 IDIUse=3 WtCom= 9.92D-01 WtEn= 8.40D-03
 Coeff-Com:  0.108D-01-0.322D-01 0.791D-01 0.942D+00
 Coeff-En:   0.000D+00 0.000D+00 0.000D+00 0.100D+01
 Coeff:      0.107D-01-0.319D-01 0.785D-01 0.943D+00
 Gap=     0.346 Goal=   None    Shift=    0.000
 Gap=     0.346 Goal=   None    Shift=    0.000
 RMSDP=1.30D-04 MaxDP=4.14D-03 DE=-5.90D-04 OVMax= 2.52D-03

 Cycle   5  Pass 1  IDiag  1:
 E= -475.302374077419     Delta-E=       -0.000056103561 Rises=F Damp=F
 DIIS: error= 2.11D-04 at cycle   5 NSaved=   5.
 NSaved= 5 IEnMin= 5 EnMin= -475.302374077419     IErMin= 5 ErrMin= 2.11D-04
 ErrMax= 2.11D-04  0.00D+00 EMaxC= 1.00D-01 BMatC= 1.16D-05 BMatP= 1.34D-04
 IDIUse=3 WtCom= 9.98D-01 WtEn= 2.11D-03
 Coeff-Com:  0.301D-02-0.313D-02-0.842D-01-0.671D-01 0.115D+01
 Coeff-En:   0.000D+00 0.000D+00 0.000D+00 0.000D+00 0.100D+01
 Coeff:      0.301D-02-0.313D-02-0.841D-01-0.670D-01 0.115D+01
 Gap=     0.346 Goal=   None    Shift=    0.000
 Gap=     0.346 Goal=   None    Shift=    0.000
 RMSDP=5.12D-05 MaxDP=8.67D-04 DE=-5.61D-05 OVMax= 1.18D-03

 Cycle   6  Pass 1  IDiag  1:
 E= -475.302381709243     Delta-E=       -0.000007631824 Rises=F Damp=F
 DIIS: error= 3.60D-05 at cycle   6 NSaved=   6.
 NSaved= 6 IEnMin= 6 EnMin= -475.302381709243     IErMin= 6 ErrMin= 3.60D-05
 ErrMax= 3.60D-05  0.00D+00 EMaxC= 1.00D-01 BMatC= 5.96D-07 BMatP= 1.16D-05
 IDIUse=1 WtCom= 1.00D+00 WtEn= 0.00D+00
 Coeff-Com:  0.146D-03 0.441D-03-0.860D-02-0.452D-01 0.751D-01 0.978D+00
 Coeff:      0.146D-03 0.441D-03-0.860D-02-0.452D-01 0.751D-01 0.978D+00
 Gap=     0.346 Goal=   None    Shift=    0.000
 Gap=     0.346 Goal=   None    Shift=    0.000
 RMSDP=9.74D-06 MaxDP=1.86D-04 DE=-7.63D-06 OVMax= 2.81D-04

 Cycle   7  Pass 1  IDiag  1:
 E= -475.302382088733     Delta-E=       -0.000000379490 Rises=F Damp=F
 DIIS: error= 1.41D-05 at cycle   7 NSaved=   7.
 NSaved= 7 IEnMin= 7 EnMin= -475.302382088733     IErMin= 7 ErrMin= 1.41D-05
 ErrMax= 1.41D-05  0.00D+00 EMaxC= 1.00D-01 BMatC= 7.42D-08 BMatP= 5.96D-07
 IDIUse=1 WtCom= 1.00D+00 WtEn= 0.00D+00
 Coeff-Com: -0.198D-04-0.387D-03 0.985D-02 0.149D-01-0.113D+00-0.249D+00
 Coeff-Com:  0.134D+01
 Coeff:     -0.198D-04-0.387D-03 0.985D-02 0.149D-01-0.113D+00-0.249D+00
 Coeff:      0.134D+01
 Gap=     0.346 Goal=   None    Shift=    0.000
 Gap=     0.346 Goal=   None    Shift=    0.000
 RMSDP=4.59D-06 MaxDP=1.07D-04 DE=-3.79D-07 OVMax= 1.82D-04

 Cycle   8  Pass 1  IDiag  1:
 E= -475.302382157100     Delta-E=       -0.000000068367 Rises=F Damp=F
 DIIS: error= 4.23D-06 at cycle   8 NSaved=   8.
 NSaved= 8 IEnMin= 8 EnMin= -475.302382157100     IErMin= 8 ErrMin= 4.23D-06
 ErrMax= 4.23D-06  0.00D+00 EMaxC= 1.00D-01 BMatC= 5.21D-09 BMatP= 7.42D-08
 IDIUse=1 WtCom= 1.00D+00 WtEn= 0.00D+00
 Coeff-Com:  0.469D-04-0.241D-04-0.222D-02-0.288D-02 0.347D-01-0.426D-02
 Coeff-Com: -0.423D+00 0.140D+01
 Coeff:      0.469D-04-0.241D-04-0.222D-02-0.288D-02 0.347D-01-0.426D-02
 Coeff:     -0.423D+00 0.140D+01
 Gap=     0.346 Goal=   None    Shift=    0.000
 Gap=     0.346 Goal=   None    Shift=    0.000
 RMSDP=1.48D-06 MaxDP=2.77D-05 DE=-6.84D-08 OVMax= 5.51D-05

 Cycle   9  Pass 1  IDiag  1:
 E= -475.302382162294     Delta-E=       -0.000000005194 Rises=F Damp=F
 DIIS: error= 8.33D-07 at cycle   9 NSaved=   9.
 NSaved= 9 IEnMin= 9 EnMin= -475.302382162294     IErMin= 9 ErrMin= 8.33D-07
 ErrMax= 8.33D-07  0.00D+00 EMaxC= 1.00D-01 BMatC= 2.12D-10 BMatP= 5.21D-09
 IDIUse=1 WtCom= 1.00D+00 WtEn= 0.00D+00
 Coeff-Com: -0.152D-05 0.165D-04-0.316D-03-0.597D-03 0.368D-02 0.115D-01
 Coeff-Com: -0.401D-01-0.681D-01 0.109D+01
 Coeff:     -0.152D-05 0.165D-04-0.316D-03-0.597D-03 0.368D-02 0.115D-01
 Coeff:     -0.401D-01-0.681D-01 0.109D+01
 Gap=     0.346 Goal=   None    Shift=    0.000
 Gap=     0.346 Goal=   None    Shift=    0.000
 RMSDP=2.32D-07 MaxDP=3.56D-06 DE=-5.19D-09 OVMax= 7.16D-06

 Cycle  10  Pass 1  IDiag  1:
 E= -475.302382162447     Delta-E=       -0.000000000152 Rises=F Damp=F
 DIIS: error= 3.88D-07 at cycle  10 NSaved=  10.
 NSaved=10 IEnMin=10 EnMin= -475.302382162447     IErMin=10 ErrMin= 3.88D-07
 ErrMax= 3.88D-07  0.00D+00 EMaxC= 1.00D-01 BMatC= 7.17D-11 BMatP= 2.12D-10
 IDIUse=1 WtCom= 1.00D+00 WtEn= 0.00D+00
 Coeff-Com: -0.660D-05 0.953D-05 0.163D-03 0.132D-03-0.304D-02 0.523D-02
 Coeff-Com:  0.393D-01-0.212D+00 0.447D+00 0.723D+00
 Coeff:     -0.660D-05 0.953D-05 0.163D-03 0.132D-03-0.304D-02 0.523D-02
 Coeff:      0.393D-01-0.212D+00 0.447D+00 0.723D+00
 Gap=     0.346 Goal=   None    Shift=    0.000
 Gap=     0.346 Goal=   None    Shift=    0.000
 RMSDP=7.32D-08 MaxDP=1.17D-06 DE=-1.52D-10 OVMax= 2.36D-06

 Cycle  11  Pass 1  IDiag  1:
 E= -475.302382162474     Delta-E=       -0.000000000027 Rises=F Damp=F
 DIIS: error= 5.80D-08 at cycle  11 NSaved=  11.
 NSaved=11 IEnMin=11 EnMin= -475.302382162474     IErMin=11 ErrMin= 5.80D-08
 ErrMax= 5.80D-08  0.00D+00 EMaxC= 1.00D-01 BMatC= 1.40D-12 BMatP= 7.17D-11
 IDIUse=1 WtCom= 1.00D+00 WtEn= 0.00D+00
 Coeff-Com:  0.188D-05-0.359D-05-0.148D-04 0.162D-04 0.361D-03-0.194D-02
 Coeff-Com: -0.493D-02 0.466D-01-0.174D+00-0.140D+00 0.127D+01
 Coeff:      0.188D-05-0.359D-05-0.148D-04 0.162D-04 0.361D-03-0.194D-02
 Coeff:     -0.493D-02 0.466D-01-0.174D+00-0.140D+00 0.127D+01
 Gap=     0.346 Goal=   None    Shift=    0.000
 Gap=     0.346 Goal=   None    Shift=    0.000
 RMSDP=2.42D-08 MaxDP=4.02D-07 DE=-2.72D-11 OVMax= 6.61D-07

 Cycle  12  Pass 1  IDiag  1:
 E= -475.302382162475     Delta-E=       -0.000000000001 Rises=F Damp=F
 DIIS: error= 5.86D-09 at cycle  12 NSaved=  12.
 NSaved=12 IEnMin=12 EnMin= -475.302382162475     IErMin=12 ErrMin= 5.86D-09
 ErrMax= 5.86D-09  0.00D+00 EMaxC= 1.00D-01 BMatC= 1.86D-14 BMatP= 1.40D-12
 IDIUse=1 WtCom= 1.00D+00 WtEn= 0.00D+00
 Coeff-Com: -0.413D-06 0.847D-06 0.362D-06-0.701D-05-0.287D-04 0.400D-03
 Coeff-Com:  0.579D-03-0.854D-02 0.398D-01 0.261D-01-0.356D+00 0.130D+01
 Coeff:     -0.413D-06 0.847D-06 0.362D-06-0.701D-05-0.287D-04 0.400D-03
 Coeff:      0.579D-03-0.854D-02 0.398D-01 0.261D-01-0.356D+00 0.130D+01
 Gap=     0.346 Goal=   None    Shift=    0.000
 Gap=     0.346 Goal=   None    Shift=    0.000
 RMSDP=2.56D-09 MaxDP=4.97D-08 DE=-1.02D-12 OVMax= 4.64D-08

 SCF Done:  E(UHF) =  -475.302382162     A.U. after   12 cycles
            NFock= 12  Conv=0.26D-08     -V/T= 2.0017
 <Sx>= 0.0000 <Sy>= 0.0000 <Sz>= 0.0000 <S**2>=-0.0000 S=-0.0000
 <L.S>=  0.00000000000    
 KE= 4.745165524464D+02 PE=-1.326474175384D+03 EE= 2.763472287431D+02
 Annihilation of the first spin contaminant:
 S**2 before annihilation    -0.0000,   after     0.0000
 Leave Link  502 at Tue Jan  3 09:05:35 2023, MaxMem=   536870912 cpu:               1.5 elap:               0.9
 (Enter /opt/software/gaussian/g16.c01/l508.exe)
 QCSCF skips out because SCF is already converged.
 Leave Link  508 at Tue Jan  3 09:05:35 2023, MaxMem=   536870912 cpu:               0.0 elap:               0.0
 (Enter /opt/software/gaussian/g16.c01/l601.exe)
 Copying SCF densities to generalized density rwf, IOpCl= 1 IROHF=0.

 **********************************************************************

            Population analysis using the SCF Density.

 **********************************************************************

 Alpha  occ. eigenvalues --  -92.01594 -11.25172 -11.25167  -9.04116  -6.72897
 Alpha  occ. eigenvalues --   -6.72779  -6.72748  -1.12421  -0.93399  -0.76832
 Alpha  occ. eigenvalues --   -0.63830  -0.62478  -0.55797  -0.48972  -0.47088
 Alpha  occ. eigenvalues --   -0.27870
 Alpha virt. eigenvalues --    0.06680   0.09229   0.09893   0.10461   0.12566
 Alpha virt. eigenvalues --    0.15074   0.15658   0.19398   0.21668   0.24822
 Alpha virt. eigenvalues --    0.26710   0.27344   0.29514   0.30975   0.32056
 Alpha virt. eigenvalues --    0.32700   0.32786   0.33397   0.34590   0.35181
 Alpha virt. eigenvalues --    0.39056   0.41012   0.43664   0.43798   0.45362
 Alpha virt. eigenvalues --    0.45830   0.47671   0.49804   0.49839   0.50840
 Alpha virt. eigenvalues --    0.52762   0.55602   0.56060   0.56629   0.57555
 Alpha virt. eigenvalues --    0.59427   0.63860   0.65809   0.67455   0.73432
 Alpha virt. eigenvalues --    0.95421   0.95973   0.99576   1.01313   1.02770
 Alpha virt. eigenvalues --    1.03517   1.06436   1.10466   1.12609   1.16193
 Alpha virt. eigenvalues --    1.18185   1.20859   1.21743   1.25589   1.30341
 Alpha virt. eigenvalues --    1.35778   1.35807   1.44315   1.51931   1.55803
 Alpha virt. eigenvalues --    1.67671   1.71593   1.76215   1.88118   1.89629
 Alpha virt. eigenvalues --    1.95531   2.02067   2.09472   2.12240   2.34438
 Alpha virt. eigenvalues --    2.37364   2.42049   2.42695   2.43738   2.48171
 Alpha virt. eigenvalues --    2.59828   2.60305   2.76548   2.85057   3.31758
 Alpha virt. eigenvalues --    3.32760   3.35207   3.35580
  Beta  occ. eigenvalues --  -92.01594 -11.25172 -11.25167  -9.04116  -6.72897
  Beta  occ. eigenvalues --   -6.72779  -6.72748  -1.12421  -0.93399  -0.76832
  Beta  occ. eigenvalues --   -0.63830  -0.62478  -0.55797  -0.48972  -0.47088
  Beta  occ. eigenvalues --   -0.27870
  Beta virt. eigenvalues --    0.06680   0.09229   0.09893   0.10461   0.12566
  Beta virt. eigenvalues --    0.15074   0.15658   0.19398   0.21668   0.24822
  Beta virt. eigenvalues --    0.26710   0.27344   0.29514   0.30975   0.32056
  Beta virt. eigenvalues --    0.32700   0.32786   0.33397   0.34590   0.35181
  Beta virt. eigenvalues --    0.39056   0.41012   0.43664   0.43798   0.45362
  Beta virt. eigenvalues --    0.45830   0.47671   0.49804   0.49839   0.50840
  Beta virt. eigenvalues --    0.52762   0.55602   0.56060   0.56629   0.57555
  Beta virt. eigenvalues --    0.59427   0.63860   0.65809   0.67455   0.73432
  Beta virt. eigenvalues --    0.95421   0.95973   0.99576   1.01313   1.02770
  Beta virt. eigenvalues --    1.03517   1.06436   1.10466   1.12609   1.16193
  Beta virt. eigenvalues --    1.18185   1.20859   1.21743   1.25589   1.30341
  Beta virt. eigenvalues --    1.35778   1.35807   1.44315   1.51931   1.55803
  Beta virt. eigenvalues --    1.67671   1.71593   1.76215   1.88118   1.89629
  Beta virt. eigenvalues --    1.95531   2.02067   2.09472   2.12240   2.34438
  Beta virt. eigenvalues --    2.37364   2.42049   2.42695   2.43738   2.48171
  Beta virt. eigenvalues --    2.59828   2.60305   2.76548   2.85057   3.31758
  Beta virt. eigenvalues --    3.32760   3.35207   3.35580
          Condensed to atoms (all electrons):
               1          2          3          4          5          6
     1  C    4.774508   0.259935  -0.116795   0.436493   0.451279  -0.028490
     2  S    0.259935  15.686474   0.259937  -0.008863  -0.016675  -0.016718
     3  C   -0.116795   0.259937   4.774495   0.007334  -0.028494   0.451294
     4  H    0.436493  -0.008863   0.007334   0.761002  -0.097320   0.000740
     5  H    0.451279  -0.016675  -0.028494  -0.097320   0.737994  -0.008685
     6  H   -0.028490  -0.016718   0.451294   0.000740  -0.008685   0.737952
     7  H    0.007334  -0.008859   0.436472  -0.000057   0.000741  -0.097314
               7
     1  C    0.007334
     2  S   -0.008859
     3  C    0.436472
     4  H   -0.000057
     5  H    0.000741
     6  H   -0.097314
     7  H    0.760998
          Atomic-Atomic Spin Densities.
               1          2          3          4          5          6
     1  C    0.000000   0.000000   0.000000   0.000000   0.000000   0.000000
     2  S    0.000000   0.000000   0.000000   0.000000   0.000000   0.000000
     3  C    0.000000   0.000000   0.000000   0.000000   0.000000   0.000000
     4  H    0.000000   0.000000   0.000000   0.000000   0.000000   0.000000
     5  H    0.000000   0.000000   0.000000   0.000000   0.000000   0.000000
     6  H    0.000000   0.000000   0.000000   0.000000   0.000000   0.000000
     7  H    0.000000   0.000000   0.000000   0.000000   0.000000   0.000000
               7
     1  C    0.000000
     2  S    0.000000
     3  C    0.000000
     4  H    0.000000
     5  H    0.000000
     6  H    0.000000
     7  H    0.000000
 Mulliken charges and spin densities:
               1          2
     1  C    0.215735   0.000000
     2  S   -0.155230   0.000000
     3  C    0.215757   0.000000
     4  H   -0.099330   0.000000
     5  H   -0.038839   0.000000
     6  H   -0.038779   0.000000
     7  H   -0.099314   0.000000
 Sum of Mulliken charges =  -0.00000   0.00000
 Mulliken charges and spin densities with hydrogens summed into heavy atoms:
               1          2
     1  C    0.077566   0.000000
     2  S   -0.155230   0.000000
     3  C    0.077664   0.000000
 Electronic spatial extent (au):  <R**2>=            872.2061
 Charge=             -0.0000 electrons
 Dipole moment (field-independent basis, Debye):
    X=             -0.1703    Y=              0.0862    Z=             -0.2272  Tot=              0.2967
 Quadrupole moment (field-independent basis, Debye-Ang):
   XX=            -25.7592   YY=            -29.1869   ZZ=            -25.5689
   XY=              0.4600   XZ=             -0.3061   YZ=             -1.9495
 Traceless Quadrupole moment (field-independent basis, Debye-Ang):
   XX=              1.0791   YY=             -2.3486   ZZ=              1.2694
   XY=              0.4600   XZ=             -0.3061   YZ=             -1.9495
 Octapole moment (field-independent basis, Debye-Ang**2):
  XXX=           -176.1003  YYY=            -21.8271  ZZZ=             26.3685  XYY=            -67.6125
  XXY=             -3.8118  XXZ=              7.4089  XZZ=            -62.0568  YZZ=             -3.9032
  YYZ=              9.7978  XYZ=             -3.4210
 Hexadecapole moment (field-independent basis, Debye-Ang**3):
 XXXX=           -967.5825 YYYY=            -70.3478 ZZZZ=           -121.1088 XXXY=            -46.8696
 XXXZ=             80.0999 YYYX=            -71.7535 YYYZ=             26.3731 ZZZX=             92.1586
 ZZZY=             16.4355 XXYY=           -199.0733 XXZZ=           -196.9245 YYZZ=            -30.5042
 XXYZ=             -1.9938 YYXZ=             33.3587 ZZXY=            -13.0345
 N-N= 1.003080120317D+02 E-N=-1.326474175195D+03  KE= 4.745165524464D+02
                          Isotropic Fermi Contact Couplings
        Atom                 a.u.       MegaHertz       Gauss      10(-4) cm-1
     1  C(13)              0.00000       0.00000       0.00000       0.00000
     2  S(33)              0.00000       0.00000       0.00000       0.00000
     3  C(13)              0.00000       0.00000       0.00000       0.00000
     4  H(1)               0.00000       0.00000       0.00000       0.00000
     5  H(1)               0.00000       0.00000       0.00000       0.00000
     6  H(1)               0.00000       0.00000       0.00000       0.00000
     7  H(1)               0.00000       0.00000       0.00000       0.00000
 --------------------------------------------------------
       Center         ----  Spin Dipole Couplings  ----
                      3XX-RR        3YY-RR        3ZZ-RR
 --------------------------------------------------------
     1   Atom        0.000000      0.000000      0.000000
     2   Atom        0.000000      0.000000      0.000000
     3   Atom        0.000000      0.000000      0.000000
     4   Atom        0.000000      0.000000      0.000000
     5   Atom        0.000000      0.000000      0.000000
     6   Atom        0.000000      0.000000      0.000000
     7   Atom        0.000000      0.000000      0.000000
 --------------------------------------------------------
                        XY            XZ            YZ
 --------------------------------------------------------
     1   Atom        0.000000      0.000000      0.000000
     2   Atom        0.000000      0.000000      0.000000
     3   Atom        0.000000      0.000000      0.000000
     4   Atom        0.000000      0.000000      0.000000
     5   Atom        0.000000      0.000000      0.000000
     6   Atom        0.000000      0.000000      0.000000
     7   Atom        0.000000      0.000000      0.000000
 --------------------------------------------------------


 ---------------------------------------------------------------------------------
              Anisotropic Spin Dipole Couplings in Principal Axis System
 ---------------------------------------------------------------------------------

       Atom             a.u.   MegaHertz   Gauss  10(-4) cm-1        Axes

              Baa     0.0000     0.000     0.000     0.000  1.0000  0.0000  0.0000
     1 C(13)  Bbb     0.0000     0.000     0.000     0.000 -0.0000  1.0000  0.0000
              Bcc     0.0000     0.000     0.000     0.000  0.0000  0.0000  1.0000
 
              Baa     0.0000     0.000     0.000     0.000  1.0000  0.0000  0.0000
     2 S(33)  Bbb     0.0000     0.000     0.000     0.000 -0.0000  1.0000  0.0000
              Bcc     0.0000     0.000     0.000     0.000  0.0000  0.0000  1.0000
 
              Baa     0.0000     0.000     0.000     0.000  1.0000  0.0000  0.0000
     3 C(13)  Bbb     0.0000     0.000     0.000     0.000 -0.0000  1.0000  0.0000
              Bcc     0.0000     0.000     0.000     0.000  0.0000  0.0000  1.0000
 
              Baa     0.0000     0.000     0.000     0.000  1.0000  0.0000  0.0000
     4 H(1)   Bbb     0.0000     0.000     0.000     0.000 -0.0000  1.0000  0.0000
              Bcc     0.0000     0.000     0.000     0.000  0.0000  0.0000  1.0000
 
              Baa     0.0000     0.000     0.000     0.000  1.0000  0.0000  0.0000
     5 H(1)   Bbb     0.0000     0.000     0.000     0.000 -0.0000  1.0000  0.0000
              Bcc     0.0000     0.000     0.000     0.000  0.0000  0.0000  1.0000
 
              Baa     0.0000     0.000     0.000     0.000  1.0000  0.0000  0.0000
     6 H(1)   Bbb     0.0000     0.000     0.000     0.000 -0.0000  1.0000  0.0000
              Bcc     0.0000     0.000     0.000     0.000  0.0000  0.0000  1.0000
 
              Baa     0.0000     0.000     0.000     0.000  1.0000  0.0000  0.0000
     7 H(1)   Bbb     0.0000     0.000     0.000     0.000 -0.0000  1.0000  0.0000
              Bcc     0.0000     0.000     0.000     0.000  0.0000  0.0000  1.0000
 

 ---------------------------------------------------------------------------------

 No NMR shielding tensors so no spin-rotation constants.
 Leave Link  601 at Tue Jan  3 09:05:35 2023, MaxMem=   536870912 cpu:               0.3 elap:               0.1
 (Enter /opt/software/gaussian/g16.c01/l801.exe)
 Range of M.O.s used for correlation:     1    99
 NBasis=    99 NAE=    16 NBE=    16 NFC=     0 NFV=     0
 NROrb=     99 NOA=    16 NOB=    16 NVA=    83 NVB=    83

 **** Warning!!: The largest alpha MO coefficient is  0.14148037D+02


 **** Warning!!: The largest beta MO coefficient is  0.14148037D+02

 Leave Link  801 at Tue Jan  3 09:05:35 2023, MaxMem=   536870912 cpu:               0.1 elap:               0.1
 (Enter /opt/software/gaussian/g16.c01/l914.exe)
 UHF ground state
 Doing stability rather than CIS.
 Keep R1 and R2 ints in memory in canonical form, NReq=25378763.
 FoFCou: FMM=F IPFlag=           0 FMFlag=           0 FMFlg1=           0
         NFxFlg=           0 DoJE=F BraDBF=F KetDBF=F FulRan=T
         wScrn=  0.000000 ICntrl=       600 IOpCl=  0 I1Cent=           0 NGrid=           0
         NMat0=    1 NMatS0=   4950 NMatT0=    0 NMatD0=    1 NMtDS0=    0 NMtDT0=    0
 Symmetry not used in FoFCou.
 Two-electron integral symmetry not used.
 MDV=   536870912 DFT=F DoStab=T Mixed=F DoRPA=F DoScal=F NonHer=F
 Making orbital integer symmetry assigments:
    12 initial guesses have been made.
 Convergence on wavefunction:    0.001000000000000
 Davidson Disk Diagonalization:  ConvIn= 1.00D-03 SkipCon=T Conv= 1.00D-03.
 Max sub-space:  2000 roots to seek:    12 dimension of matrix:         2656
 Iteration     1 Dimension    12 NMult     0 NNew     12
 CISAX will form    12 AO SS matrices at one time.
 NMat=    12 NSing=    12 JSym2X= 0.
 New state      1 was old state      2
 Excitation Energies [eV] at current iteration:
 Root      1 :    -1.031353161762781
 Root      2 :     4.907465185590227
 Root      3 :     5.118239561840983
 Root      4 :     5.524163801017236
 Root      5 :     6.054996636074286
 Root      6 :     6.064825571910088
 Root      7 :     6.161938838304368
 Root      8 :     6.404476234055331
 Root      9 :     6.424088659002901
 Root     10 :     7.204743072930275
 Root     11 :     8.304800748566569
 Root     12 :     8.563013786296590
 Iteration     2 Dimension    24 NMult    12 NNew     12
 CISAX will form    12 AO SS matrices at one time.
 NMat=    12 NSing=    12 JSym2X= 0.
 Root      1 not converged, maximum delta is    0.063480427056753
 Excitation Energies [eV] at current iteration:
 Root      1 :    -2.143995894871483   Change is   -1.112642733108702
 Root      2 :     3.955614836699728   Change is   -0.951850348890499
 Root      3 :     4.427700848742964   Change is   -3.877099899823605
 Root      4 :     4.640455404724738   Change is   -0.477784157116245
 Root      5 :     5.329206995317311   Change is   -1.075269238738020
 Root      6 :     5.347331998808434   Change is   -0.176831802208803
 Root      7 :     5.505520431297684   Change is   -0.918568227705217
 Root      8 :     5.555980913958727   Change is   -0.508844657951360
 Root      9 :     5.846673371599176   Change is   -0.208323264475109
 Root     10 :     6.027181537924341   Change is   -0.134757300380027
 Root     11 :     6.434757152363463   Change is   -0.769985920566813
 Root     12 :     7.292183541627232   Change is   -1.270830244669358
 Iteration     3 Dimension    27 NMult    24 NNew      3
 CISAX will form     3 AO SS matrices at one time.
 NMat=     3 NSing=     3 JSym2X= 0.
 Root      1 not converged, maximum delta is    0.016035060376355
 Excitation Energies [eV] at current iteration:
 Root      1 :    -2.196259971701342   Change is   -0.052264076829859
 Root      2 :     3.900484506904402   Change is   -0.055130329795326
 Root      3 :     4.200707672024616   Change is   -0.226993176718348
 Iteration     4 Dimension    30 NMult    27 NNew      3
 CISAX will form     3 AO SS matrices at one time.
 NMat=     3 NSing=     3 JSym2X= 0.
 Root      1 not converged, maximum delta is    0.003003824441381
 Excitation Energies [eV] at current iteration:
 Root      1 :    -2.200038858546168   Change is   -0.003778886844826
 Root      2 :     3.892907782791907   Change is   -0.007576724112495
 Root      3 :     4.169017443104134   Change is   -0.031690228920482
 Iteration     5 Dimension    33 NMult    30 NNew      3
 CISAX will form     3 AO SS matrices at one time.
 NMat=     3 NSing=     3 JSym2X= 0.
 Root      1 has converged.
 Excitation Energies [eV] at current iteration:
 Root      1 :    -2.200206697287700   Change is   -0.000167838741532
 Root      2 :     3.892390688228728   Change is   -0.000517094563180
 Root      3 :     4.163494440139872   Change is   -0.005523002964262
 Convergence achieved on expansion vectors.
 ***********************************************************************
 Stability analysis using <AA,BB:AA,BB> singles matrix:
 ***********************************************************************
 1PDM for each excited state written to RWF  633
 Ground to excited state transition densities written to RWF  633

 Eigenvectors of the stability matrix:
 
 Excited state symmetry could not be determined.
 Eigenvector   1:  3.000-?Sym  Eigenvalue=-0.0808561  <S**2>=2.000
     16A -> 17A        0.65773
     16A -> 27A        0.12498
     16A -> 37A        0.12164
     16B -> 17B       -0.65773
     16B -> 27B       -0.12498
     16B -> 37B       -0.12164
 The wavefunction has an internal instability.
 Leave Link  914 at Tue Jan  3 09:05:37 2023, MaxMem=   536870912 cpu:               2.5 elap:               1.3
 (Enter /opt/software/gaussian/g16.c01/l508.exe)
 Keep R1 and R2 ints in memory in canonical form, NReq=25378823.
 FoFCou: FMM=F IPFlag=           0 FMFlag=           0 FMFlg1=           0
         NFxFlg=           0 DoJE=F BraDBF=F KetDBF=F FulRan=T
         wScrn=  0.000000 ICntrl=       600 IOpCl=  0 I1Cent=           0 NGrid=           0
         NMat0=    1 NMatS0=   4950 NMatT0=    0 NMatD0=    1 NMtDS0=    0 NMtDT0=    0
 Symmetry not used in FoFCou.
 Two-electron integral symmetry not used.
 Very tight linear equation convergence will be used.
 UHF wavefunction.
 Quadratic Convergence SCF Method.
 Line search only if initial step raises energy.
 Perform preliminary linear searches along instability eigenvector.
     ILin= 1 X=0.000D+00 Y=-4.753023821625D+02 DE= 0.00D+00
     ILin= 2 X=1.000D-01 Y=-4.753031781351D+02 DE=-7.96D-04
     ILin= 3 X=1.414D-01 Y=-4.753039491183D+02 DE=-1.57D-03
     ILin= 4 X=2.000D-01 Y=-4.753054169455D+02 DE=-3.03D-03
     ILin= 5 X=2.828D-01 Y=-4.753080617426D+02 DE=-5.68D-03
     ILin= 6 X=4.000D-01 Y=-4.753122325280D+02 DE=-9.85D-03
     ILin= 7 X=5.657D-01 Y=-4.753164410396D+02 DE=-1.41D-02
     ILin= 8 X=8.000D-01 Y=-4.753108407173D+02 DE=-8.46D-03
     An  expanding polynomial of degree  8 produced  0.6124
 Iteration F X= 6.124D-01 EE=-4.753167207258930D+02
     ILin= 1 X=0.000D+00 Y=-4.753023821625D+02 DE= 0.00D+00
     ILin= 2 X=1.000D-01 Y=-4.753031781461D+02 DE=-7.96D-04
     ILin= 3 X=1.414D-01 Y=-4.753039491492D+02 DE=-1.57D-03
 The two search directions are symmetric.
 Iteration B X= 6.124D-01 EE=-4.753167207258930D+02
 Take forward step, X= 6.124D-01 Step= 6.124D-01
 Iteration   1 EE= -475.316720825633                                    Grad=4.919D-02 Max rot=    0.9706 deg.
 Gradient too large for Newton-Raphson -- use scaled steepest descent instead.
 Alpha Gap=     0.424 HL deriv= 3.51D-03
  Beta Gap=     0.424 HL deriv= 3.53D-03
     ILin= 1 X=0.000D+00 Y=-4.753167208256D+02 DE= 0.00D+00 F= -5.32D-03
     ILin= 2 X=3.000D-01 Y=-4.753181617767D+02 DE=-1.44D-03 F= -4.28D-03 OKLS=F
     ILin= 3 X=6.000D-01 Y=-4.753192907811D+02 DE=-2.57D-03 F= -3.24D-03
     ILin= 4 X=1.100D+00 Y=-4.753204777617D+02 DE=-3.76D-03 F= -1.50D-03
     ILin= 5 X=2.200D+00 Y=-4.753200241882D+02 DE=-3.30D-03 F=  2.33D-03
     An  expanding polynomial of degree  5 produced  1.5319
 Iteration   2 EE= -475.320802700836     Delta-E=       -0.004081875203 Grad=2.257D-02 Max rot=    0.4253 deg.
 Gradient too large for Newton-Raphson -- use scaled steepest descent instead.
 Alpha Gap=     0.424 HL deriv= 1.75D-02
  Beta Gap=     0.424 HL deriv= 1.75D-02
     ILin= 1 X=0.000D+00 Y=-4.753208027008D+02 DE= 0.00D+00 F= -1.26D-03
     ILin= 2 X=7.000D-01 Y=-4.753214600548D+02 DE=-6.57D-04 F= -6.14D-04 OKLS=F
     ILin= 3 X=1.400D+00 Y=-4.753216614180D+02 DE=-8.59D-04 F=  3.98D-05
     Accept linear search using points  2 and  3.
     An  expanding polynomial of degree  3 produced  1.2928
     Minimum is close to point  3 DX= -1.07D-01 DF= -3.25D-06 DXR=  8.29D-02 DFR=  3.78D-03 which will be used.
 Iteration   3 EE= -475.321661418028     Delta-E=       -0.000858717191 Grad=2.167D-02 Max rot=    0.2696 deg.
 Gradient too large for Newton-Raphson -- use scaled steepest descent instead.
 Alpha Gap=     0.432 HL deriv= 8.63D-03
  Beta Gap=     0.432 HL deriv= 8.64D-03
     ILin= 1 X=0.000D+00 Y=-4.753216614180D+02 DE= 0.00D+00 F= -8.06D-04
     ILin= 2 X=1.400D+00 Y=-4.753220451970D+02 DE=-3.84D-04 F=  2.57D-04 OKLS=T
     Accept linear search using points  1 and  2.
     An  expanding polynomial of degree  2 produced  1.1829
 Iteration   4 EE= -475.322083159383     Delta-E=       -0.000421741355 Grad=1.424D-02 Max rot=    0.2356 deg.
 Gradient too large for Newton-Raphson -- use scaled steepest descent instead.
 Alpha Gap=     0.433 HL deriv= 9.11D-03
  Beta Gap=     0.433 HL deriv= 9.11D-03
     ILin= 1 X=0.000D+00 Y=-4.753220831594D+02 DE= 0.00D+00 F= -4.52D-04
     ILin= 2 X=1.200D+00 Y=-4.753223232900D+02 DE=-2.40D-04 F=  5.17D-05 OKLS=T
     Accept linear search using points  1 and  2.
     An  expanding polynomial of degree  2 produced  1.1164
     Minimum is close to point  2 DX= -8.36D-02 DF= -1.78D-06 DXR=  7.49D-02 DFR=  7.43D-03 which will be used.
 Iteration   5 EE= -475.322323290021     Delta-E=       -0.000240130638 Grad=1.237D-02 Max rot=    0.1360 deg.
 Gradient too large for Newton-Raphson -- use scaled steepest descent instead.
 Alpha Gap=     0.437 HL deriv= 5.18D-03
  Beta Gap=     0.437 HL deriv= 5.18D-03
     ILin= 1 X=0.000D+00 Y=-4.753223232900D+02 DE= 0.00D+00 F= -2.65D-04
     ILin= 2 X=1.100D+00 Y=-4.753224634815D+02 DE=-1.40D-04 F=  1.02D-05 OKLS=T
     Accept linear search using points  1 and  2.
     An  expanding polynomial of degree  2 produced  1.0683
     Minimum is close to point  2 DX= -3.17D-02 DF= -1.46D-07 DXR=  2.97D-02 DFR=  1.04D-03 which will be used.
 Iteration   6 EE= -475.322463481521     Delta-E=       -0.000140191500 Grad=7.274D-03 Max rot=    0.1278 deg.
 QCNR:  CnvC1=5.15D-10 CnvC2=5.15D-09
 LinEq1:  Iter=  0 NonCon=     1 RMS=2.08D-04 Max=5.87D-03 NDo=     1
 AX will form     1 AO Fock derivatives at one time.
 LinEq1:  Iter=  1 NonCon=     1 RMS=1.02D-04 Max=1.16D-03 NDo=     1
 LinEq1:  Iter=  2 NonCon=     1 RMS=5.79D-06 Max=9.09D-05 NDo=     1
 LinEq1:  Iter=  3 NonCon=     1 RMS=1.07D-06 Max=1.09D-05 NDo=     1
 LinEq1:  Iter=  4 NonCon=     1 RMS=4.65D-07 Max=6.07D-06 NDo=     1
 LinEq1:  Iter=  5 NonCon=     1 RMS=8.46D-08 Max=9.08D-07 NDo=     1
 LinEq1:  Iter=  6 NonCon=     1 RMS=1.48D-08 Max=1.62D-07 NDo=     1
 LinEq1:  Iter=  7 NonCon=     1 RMS=4.54D-09 Max=5.62D-08 NDo=     1
 LinEq1:  Iter=  8 NonCon=     1 RMS=1.80D-09 Max=2.09D-08 NDo=     1
 LinEq1:  Iter=  9 NonCon=     1 RMS=5.53D-10 Max=7.14D-09 NDo=     1
 LinEq1:  Iter= 10 NonCon=     0 RMS=1.35D-10 Max=1.74D-09 NDo=     1
 Linear equations converged to 5.154D-10 5.154D-09 after    10 iterations.
 Angle between quadratic step and gradient=  49.94 degrees.
     ILin= 1 X=0.000D+00 Y=-4.753224634815D+02 DE= 0.00D+00 F= -3.56D-04
     ILin= 2 X=1.000D+00 Y=-4.753226368143D+02 DE=-1.73D-04 F=  1.47D-05 OKLS=T
     Accept linear search using points  1 and  2.
     An  expanding polynomial of degree  2 produced  0.9619
     Minimum is close to point  2 DX= -3.81D-02 DF= -2.79D-07 DXR=  3.96D-02 DFR=  1.61D-03 which will be used.
 Iteration   7 EE= -475.322636814327     Delta-E=       -0.000173332806 Grad=2.889D-04 Max rot=    0.0068 deg.
 QCNR:  CnvC1=5.15D-10 CnvC2=5.15D-09
 LinEq1:  Iter=  0 NonCon=     1 RMS=9.96D-06 Max=2.74D-04 NDo=     1
 LinEq1:  Iter=  1 NonCon=     1 RMS=1.97D-06 Max=4.95D-05 NDo=     1
 LinEq1:  Iter=  2 NonCon=     1 RMS=6.69D-07 Max=6.79D-06 NDo=     1
 LinEq1:  Iter=  3 NonCon=     1 RMS=1.49D-07 Max=1.52D-06 NDo=     1
 LinEq1:  Iter=  4 NonCon=     1 RMS=4.20D-08 Max=3.83D-07 NDo=     1
 LinEq1:  Iter=  5 NonCon=     1 RMS=1.31D-08 Max=1.22D-07 NDo=     1
 LinEq1:  Iter=  6 NonCon=     1 RMS=3.22D-09 Max=2.62D-08 NDo=     1
 LinEq1:  Iter=  7 NonCon=     1 RMS=8.00D-10 Max=5.86D-09 NDo=     1
 LinEq1:  Iter=  8 NonCon=     0 RMS=1.79D-10 Max=1.64D-09 NDo=     1
 Linear equations converged to 5.154D-10 5.154D-09 after     8 iterations.
 Angle between quadratic step and gradient=  32.89 degrees.
     ILin= 1 X=0.000D+00 Y=-4.753226368143D+02 DE= 0.00D+00 F= -8.31D-07
     ILin= 2 X=1.000D+00 Y=-4.753226372305D+02 DE=-4.16D-07 F= -2.32D-09 OKLS=T
     Reject lnstep IMin12=  1  2 Big=T Turn=F Min= 1.003D+00 FVal=-4.753226372305D+02 Lims=  0.00D+00  1.00D+00
     ILin= 3 X=2.000D+00 Y=-4.753226368205D+02 DE=-6.19D-09 F=  8.22D-07
     An  expanding polynomial of degree  3 produced  1.0037
     Minimum is close to point  2 DX=  3.75D-03 DF= -5.85D-12 DXR=  3.73D-03 DFR=  1.41D-05 which will be used.
 Iteration   8 EE= -475.322637230528     Delta-E=       -0.000000416201 Grad=7.971D-07 Max rot=    0.0000 deg.
 QCNR:  CnvC1=7.97D-12 CnvC2=7.97D-11
 LinEq1:  Iter=  0 NonCon=     1 RMS=2.81D-08 Max=8.12D-07 NDo=     1
 LinEq1:  Iter=  1 NonCon=     1 RMS=4.72D-09 Max=6.73D-08 NDo=     1
 LinEq1:  Iter=  2 NonCon=     1 RMS=1.73D-09 Max=3.88D-08 NDo=     1
 LinEq1:  Iter=  3 NonCon=     1 RMS=4.00D-10 Max=3.77D-09 NDo=     1
 LinEq1:  Iter=  4 NonCon=     1 RMS=1.38D-10 Max=1.18D-09 NDo=     1
 LinEq1:  Iter=  5 NonCon=     1 RMS=2.83D-11 Max=3.26D-10 NDo=     1
 LinEq1:  Iter=  6 NonCon=     0 RMS=7.20D-12 Max=6.94D-11 NDo=     1
 Linear equations converged to 7.971D-12 7.971D-11 after     6 iterations.
 Angle between quadratic step and gradient=  31.60 degrees.
     ILin= 1 X=0.000D+00 Y=-4.753226372305D+02 DE= 0.00D+00 F= -6.85D-12
     ILin= 2 X=1.000D+00 Y=-4.753226372305D+02 DE=-4.43D-12
 Iteration   9 EE= -475.322637230532     Delta-E=       -0.000000000004 Grad=6.025D-09 Max rot=    0.0000 deg.
 Rotation gradient small -- convergence achieved.
 SCF Done:  E(UHF) =  -475.322637231     a.u. after    9 cycles
            Convg  =    0.6025D-08                    49 Fock formations.
              S**2 =  0.7408                  -V/T =  2.0009
 <Sx>= 0.0000 <Sy>= 0.0000 <Sz>= 0.0000 <S**2>= 0.7408 S= 0.4954
 <L.S>=  0.00000000000    
 Annihilation of the first spin contaminant:
 S**2 before annihilation     0.7408,   after     0.1325
 Leave Link  508 at Tue Jan  3 09:05:40 2023, MaxMem=   536870912 cpu:               3.2 elap:               2.6
 (Enter /opt/software/gaussian/g16.c01/l801.exe)
 Range of M.O.s used for correlation:     1    99
 NBasis=    99 NAE=    16 NBE=    16 NFC=     0 NFV=     0
 NROrb=     99 NOA=    16 NOB=    16 NVA=    83 NVB=    83

 **** Warning!!: The largest alpha MO coefficient is  0.14048497D+02


 **** Warning!!: The largest beta MO coefficient is  0.14050164D+02

 Leave Link  801 at Tue Jan  3 09:05:40 2023, MaxMem=   536870912 cpu:               0.1 elap:               0.1
 (Enter /opt/software/gaussian/g16.c01/l914.exe)
 UHF ground state
 Doing stability rather than CIS.
 Keep R1 and R2 ints in memory in canonical form, NReq=25378763.
 FoFCou: FMM=F IPFlag=           0 FMFlag=           0 FMFlg1=           0
         NFxFlg=           0 DoJE=F BraDBF=F KetDBF=F FulRan=T
         wScrn=  0.000000 ICntrl=       600 IOpCl=  0 I1Cent=           0 NGrid=           0
         NMat0=    1 NMatS0=   4950 NMatT0=    0 NMatD0=    1 NMtDS0=    0 NMtDT0=    0
 Symmetry not used in FoFCou.
 Two-electron integral symmetry not used.
 MDV=   536870912 DFT=F DoStab=T Mixed=F DoRPA=F DoScal=F NonHer=F
 Making orbital integer symmetry assigments:
    12 initial guesses have been made.
 Convergence on wavefunction:    0.001000000000000
 Davidson Disk Diagonalization:  ConvIn= 1.00D-03 SkipCon=T Conv= 1.00D-03.
 Max sub-space:  2000 roots to seek:    12 dimension of matrix:         2656
 Iteration     1 Dimension    12 NMult     0 NNew     12
 CISAX will form    12 AO SS matrices at one time.
 NMat=    12 NSing=    12 JSym2X= 0.
 Excitation Energies [eV] at current iteration:
 Root      1 :     4.419976844866050
 Root      2 :     6.062000017861605
 Root      3 :     6.195927802291027
 Root      4 :     6.328330558212963
 Root      5 :     6.668199487318532
 Root      6 :     6.735440478090628
 Root      7 :     6.980430424396290
 Root      8 :     6.996221970713706
 Root      9 :     7.358128647803070
 Root     10 :     7.569309581718279
 Root     11 :     7.634594231298562
 Root     12 :     9.526089464200782
 Iteration     2 Dimension    24 NMult    12 NNew     12
 CISAX will form    12 AO SS matrices at one time.
 NMat=    12 NSing=    12 JSym2X= 0.
 Root      1 not converged, maximum delta is    0.035742067063956
 Excitation Energies [eV] at current iteration:
 Root      1 :     3.515269596985058   Change is   -0.904707247880992
 Root      2 :     4.373079163272660   Change is   -2.362361314817968
 Root      3 :     5.385306283063819   Change is   -0.676693734797785
 Root      4 :     5.744347675752279   Change is   -0.451580126538747
 Root      5 :     5.824676986976592   Change is   -0.503653571236371
 Root      6 :     5.962830421556352   Change is   -0.705369065762180
 Root      7 :     6.476696738178394   Change is   -0.881431909624676
 Root      8 :     6.633913839015524   Change is   -0.935395742702754
 Root      9 :     6.695262157171459   Change is   -0.285168267224831
 Root     10 :     6.786149054560589   Change is   -0.210072916153118
 Root     11 :     7.010457376966829   Change is   -0.624136854331732
 Root     12 :     8.206741897176364   Change is   -1.319347567024419
 Iteration     3 Dimension    27 NMult    24 NNew      3
 CISAX will form     3 AO SS matrices at one time.
 NMat=     3 NSing=     3 JSym2X= 0.
 Root      1 not converged, maximum delta is    0.063508385888461
 Excitation Energies [eV] at current iteration:
 Root      1 :     3.281327604739243   Change is   -0.233941992245815
 Root      2 :     3.637800848420029   Change is   -0.735278314852631
 Root      3 :     5.341681876319633   Change is   -0.043624406744186
 Iteration     4 Dimension    30 NMult    27 NNew      3
 CISAX will form     3 AO SS matrices at one time.
 NMat=     3 NSing=     3 JSym2X= 0.
 Root      1 not converged, maximum delta is    0.015800287636352
 Excitation Energies [eV] at current iteration:
 Root      1 :     3.252370599639268   Change is   -0.028957005099975
 Root      2 :     3.505916269081391   Change is   -0.131884579338638
 Root      3 :     5.332850384044004   Change is   -0.008831492275629
 Iteration     5 Dimension    33 NMult    30 NNew      3
 CISAX will form     3 AO SS matrices at one time.
 NMat=     3 NSing=     3 JSym2X= 0.
 Root      1 not converged, maximum delta is    0.006734537533463
 Excitation Energies [eV] at current iteration:
 Root      1 :     3.246519476118542   Change is   -0.005851123520726
 Root      2 :     3.492545398420478   Change is   -0.013370870660913
 Root      3 :     5.331279620953659   Change is   -0.001570763090346
 Iteration     6 Dimension    36 NMult    33 NNew      3
 CISAX will form     3 AO SS matrices at one time.
 NMat=     3 NSing=     3 JSym2X= 0.
 Root      1 not converged, maximum delta is    0.001779104355791
 Excitation Energies [eV] at current iteration:
 Root      1 :     3.245101307994181   Change is   -0.001418168124361
 Root      2 :     3.490259286642963   Change is   -0.002286111777515
 Root      3 :     5.331052638293107   Change is   -0.000226982660552
 Iteration     7 Dimension    39 NMult    36 NNew      3
 CISAX will form     3 AO SS matrices at one time.
 NMat=     3 NSing=     3 JSym2X= 0.
 Root      1 not converged, maximum delta is    0.001027847416345
 Excitation Energies [eV] at current iteration:
 Root      1 :     3.244789683059083   Change is   -0.000311624935098
 Root      2 :     3.489715387332233   Change is   -0.000543899310729
 Root      3 :     5.331029123693926   Change is   -0.000023514599181
 Iteration     8 Dimension    42 NMult    39 NNew      3
 CISAX will form     3 AO SS matrices at one time.
 NMat=     3 NSing=     3 JSym2X= 0.
 Root      1 has converged.
 Excitation Energies [eV] at current iteration:
 Root      1 :     3.244742014530158   Change is   -0.000047668528925
 Root      2 :     3.489616878366450   Change is   -0.000098508965784
 Root      3 :     5.331025686607842   Change is   -0.000003437086083
 Convergence achieved on expansion vectors.
 ***********************************************************************
 Stability analysis using <AA,BB:AA,BB> singles matrix:
 ***********************************************************************
 1PDM for each excited state written to RWF  633
 Ground to excited state transition densities written to RWF  633

 Eigenvectors of the stability matrix:
 
 Excited state symmetry could not be determined.
 Eigenvector   1:  1.853-?Sym  Eigenvalue= 0.1192421  <S**2>=0.609
     16A -> 20A        0.59980
     16A -> 21A       -0.27181
     16A -> 27A        0.10653
     16A -> 35A       -0.10424
     16A -> 37A       -0.11494
     16B -> 20B        0.60069
     16B -> 21B       -0.27202
     16B -> 27B        0.10650
     16B -> 35B       -0.10437
     16B -> 37B       -0.11500
 The wavefunction is stable under the perturbations considered.
 Leave Link  914 at Tue Jan  3 09:05:41 2023, MaxMem=   536870912 cpu:               3.1 elap:               1.6
 (Enter /opt/software/gaussian/g16.c01/l508.exe)
 The wavefunction is already stable.
 Leave Link  508 at Tue Jan  3 09:05:41 2023, MaxMem=   536870912 cpu:               0.0 elap:               0.0
 (Enter /opt/software/gaussian/g16.c01/l601.exe)
 Copying SCF densities to generalized density rwf, IOpCl= 1 IROHF=0.

 **********************************************************************

            Population analysis using the SCF Density.

 **********************************************************************

 Alpha  occ. eigenvalues --  -91.96546 -11.25880 -11.23769  -8.99712  -6.68596
 Alpha  occ. eigenvalues --   -6.68350  -6.68291  -1.11406  -0.93400  -0.76270
 Alpha  occ. eigenvalues --   -0.63867  -0.62249  -0.55853  -0.49693  -0.45300
 Alpha  occ. eigenvalues --   -0.31396
 Alpha virt. eigenvalues --    0.09739   0.10042   0.10381   0.10607   0.13168
 Alpha virt. eigenvalues --    0.15014   0.15596   0.19388   0.22085   0.24769
 Alpha virt. eigenvalues --    0.26678   0.27311   0.29739   0.31238   0.32321
 Alpha virt. eigenvalues --    0.32714   0.33509   0.33628   0.35055   0.35293
 Alpha virt. eigenvalues --    0.39687   0.41167   0.43997   0.44404   0.45556
 Alpha virt. eigenvalues --    0.45793   0.47743   0.49622   0.49923   0.50819
 Alpha virt. eigenvalues --    0.53025   0.55518   0.56197   0.56757   0.57819
 Alpha virt. eigenvalues --    0.59358   0.64201   0.65582   0.67447   0.73751
 Alpha virt. eigenvalues --    0.94779   0.96105   1.00878   1.02430   1.03660
 Alpha virt. eigenvalues --    1.05339   1.07938   1.10326   1.13141   1.16251
 Alpha virt. eigenvalues --    1.18769   1.20600   1.22365   1.27673   1.30826
 Alpha virt. eigenvalues --    1.35803   1.36932   1.44369   1.52322   1.57307
 Alpha virt. eigenvalues --    1.67018   1.73058   1.75994   1.87278   1.89931
 Alpha virt. eigenvalues --    1.95315   2.01840   2.08884   2.12289   2.34208
 Alpha virt. eigenvalues --    2.36438   2.40581   2.43845   2.44121   2.48112
 Alpha virt. eigenvalues --    2.57811   2.61503   2.76458   2.85149   3.31493
 Alpha virt. eigenvalues --    3.32503   3.35015   3.35503
  Beta  occ. eigenvalues --  -91.96546 -11.25879 -11.23770  -8.99712  -6.68596
  Beta  occ. eigenvalues --   -6.68350  -6.68291  -1.11406  -0.93399  -0.76271
  Beta  occ. eigenvalues --   -0.63867  -0.62249  -0.55853  -0.49694  -0.45300
  Beta  occ. eigenvalues --   -0.31394
  Beta virt. eigenvalues --    0.09739   0.10042   0.10381   0.10606   0.13169
  Beta virt. eigenvalues --    0.15014   0.15596   0.19388   0.22086   0.24769
  Beta virt. eigenvalues --    0.26678   0.27311   0.29740   0.31238   0.32321
  Beta virt. eigenvalues --    0.32714   0.33509   0.33628   0.35055   0.35293
  Beta virt. eigenvalues --    0.39687   0.41167   0.43997   0.44404   0.45556
  Beta virt. eigenvalues --    0.45793   0.47743   0.49622   0.49923   0.50819
  Beta virt. eigenvalues --    0.53025   0.55518   0.56197   0.56757   0.57819
  Beta virt. eigenvalues --    0.59358   0.64201   0.65582   0.67447   0.73751
  Beta virt. eigenvalues --    0.94780   0.96105   1.00878   1.02431   1.03660
  Beta virt. eigenvalues --    1.05337   1.07938   1.10326   1.13141   1.16251
  Beta virt. eigenvalues --    1.18770   1.20600   1.22364   1.27673   1.30827
  Beta virt. eigenvalues --    1.35802   1.36933   1.44369   1.52322   1.57307
  Beta virt. eigenvalues --    1.67018   1.73058   1.75994   1.87279   1.89930
  Beta virt. eigenvalues --    1.95315   2.01840   2.08885   2.12288   2.34208
  Beta virt. eigenvalues --    2.36440   2.40584   2.43843   2.44120   2.48112
  Beta virt. eigenvalues --    2.57810   2.61504   2.76460   2.85147   3.31493
  Beta virt. eigenvalues --    3.32503   3.35015   3.35504
          Condensed to atoms (all electrons):
               1          2          3          4          5          6
     1  C    4.884123   0.154518  -0.091944   0.415165   0.435085  -0.027101
     2  S    0.154518  16.057916   0.154500  -0.019761  -0.014174  -0.014217
     3  C   -0.091944   0.154500   4.884124   0.008158  -0.027104   0.435110
     4  H    0.415165  -0.019761   0.008158   0.747388  -0.095871   0.000666
     5  H    0.435085  -0.014174  -0.027104  -0.095871   0.725615  -0.007531
     6  H   -0.027101  -0.014217   0.435110   0.000666  -0.007531   0.725592
     7  H    0.008159  -0.019762   0.415146   0.000080   0.000667  -0.095870
               7
     1  C    0.008159
     2  S   -0.019762
     3  C    0.415146
     4  H    0.000080
     5  H    0.000667
     6  H   -0.095870
     7  H    0.747407
          Atomic-Atomic Spin Densities.
               1          2          3          4          5          6
     1  C    1.115502  -0.138262   0.000001   0.015930   0.015492  -0.001419
     2  S   -0.138262  -0.000094   0.138293  -0.003782  -0.012445   0.012446
     3  C    0.000001   0.138293  -1.115461  -0.001910   0.001419  -0.015494
     4  H    0.015930  -0.003782  -0.001910  -0.123724   0.007043  -0.001028
     5  H    0.015492  -0.012445   0.001419   0.007043  -0.114949   0.000000
     6  H   -0.001419   0.012446  -0.015494  -0.001028   0.000000   0.114941
     7  H    0.001909   0.003783  -0.015930   0.000000   0.001027  -0.007039
               7
     1  C    0.001909
     2  S    0.003783
     3  C   -0.015930
     4  H    0.000000
     5  H    0.001027
     6  H   -0.007039
     7  H    0.123713
 Mulliken charges and spin densities:
               1          2
     1  C    0.221996   1.009154
     2  S   -0.299019  -0.000062
     3  C    0.222010  -1.009081
     4  H   -0.055825  -0.107469
     5  H   -0.016687  -0.102411
     6  H   -0.016648   0.102407
     7  H   -0.055827   0.107463
 Sum of Mulliken charges =   0.00000  -0.00000
 Mulliken charges and spin densities with hydrogens summed into heavy atoms:
               1          2
     1  C    0.149484   0.799273
     2  S   -0.299019  -0.000062
     3  C    0.149535  -0.799211
 Electronic spatial extent (au):  <R**2>=            872.1456
 Charge=              0.0000 electrons
 Dipole moment (field-independent basis, Debye):
    X=             -0.5225    Y=              0.2633    Z=             -0.6952  Tot=              0.9086
 Quadrupole moment (field-independent basis, Debye-Ang):
   XX=            -26.6168   YY=            -28.7009   ZZ=            -25.1159
   XY=              1.1783   XZ=             -2.1069   YZ=             -2.0662
 Traceless Quadrupole moment (field-independent basis, Debye-Ang):
   XX=              0.1944   YY=             -1.8897   ZZ=              1.6953
   XY=              1.1783   XZ=             -2.1069   YZ=             -2.0662
 Octapole moment (field-independent basis, Debye-Ang**2):
  XXX=           -175.9860  YYY=            -20.7311  ZZZ=             25.5463  XYY=            -66.9621
  XXY=             -1.0382  XXZ=              1.0954  XZZ=            -61.0633  YZZ=             -4.3512
  YYZ=              9.1712  XYZ=             -3.9617
 Hexadecapole moment (field-independent basis, Debye-Ang**3):
 XXXX=           -954.2711 YYYY=            -67.6909 ZZZZ=           -119.8653 XXXY=            -36.3987
 XXXZ=             57.6276 YYYX=            -67.6537 YYYZ=             25.3736 ZZZX=             88.8410
 ZZZY=             17.2523 XXYY=           -196.9975 XXZZ=           -193.6660 YYZZ=            -30.2145
 XXYZ=             -3.5367 YYXZ=             31.1584 ZZXY=            -14.5668
 N-N= 1.003080120317D+02 E-N=-1.327346779055D+03  KE= 4.748970187231D+02
                          Isotropic Fermi Contact Couplings
        Atom                 a.u.       MegaHertz       Gauss      10(-4) cm-1
     1  C(13)              0.25315     142.29418      50.77410      47.46423
     2  S(33)             -0.00001      -0.00133      -0.00048      -0.00044
     3  C(13)             -0.25312    -142.28030     -50.76915     -47.45960
     4  H(1)              -0.02025     -45.26120     -16.15032     -15.09751
     5  H(1)              -0.02141     -47.85025     -17.07416     -15.96112
     6  H(1)               0.02141      47.84693      17.07297      15.96002
     7  H(1)               0.02025      45.25764      16.14905      15.09632
 --------------------------------------------------------
       Center         ----  Spin Dipole Couplings  ----
                      3XX-RR        3YY-RR        3ZZ-RR
 --------------------------------------------------------
     1   Atom       -0.442277      0.672901     -0.230624
     2   Atom       -0.169682      0.029268      0.140414
     3   Atom        0.436169     -0.671806      0.235637
     4   Atom       -0.049104      0.007810      0.041294
     5   Atom       -0.025917      0.000372      0.025545
     6   Atom        0.018305      0.000945     -0.019250
     7   Atom       -0.065329      0.011938      0.053391
 --------------------------------------------------------
                        XY            XZ            YZ
 --------------------------------------------------------
     1   Atom       -0.082576     -0.033623      0.482582
     2   Atom        0.013797     -0.060084     -0.065329
     3   Atom        0.082906      0.031384     -0.484948
     4   Atom        0.012927     -0.037671     -0.021753
     5   Atom       -0.026233      0.056278     -0.007368
     6   Atom        0.026835     -0.058978      0.004435
     7   Atom       -0.003695     -0.002879     -0.022251
 --------------------------------------------------------


 ---------------------------------------------------------------------------------
              Anisotropic Spin Dipole Couplings in Principal Axis System
 ---------------------------------------------------------------------------------

       Atom             a.u.   MegaHertz   Gauss  10(-4) cm-1        Axes

              Baa    -0.4487   -60.212   -21.485   -20.085  0.9729  0.1480 -0.1776
     1 C(13)  Bbb    -0.4394   -58.969   -21.042   -19.670  0.2213 -0.3743  0.9005
              Bcc     0.8882   119.181    42.527    39.755 -0.0668  0.9154  0.3969
 
              Baa    -0.1809    -7.418    -2.647    -2.474  0.9832 -0.0079  0.1822
     2 S(33)  Bbb    -0.0001    -0.003    -0.001    -0.001 -0.0663  0.9153  0.3973
              Bcc     0.1810     7.421     2.648     2.476 -0.1699 -0.4027  0.8994
 
              Baa    -0.8881  -119.176   -42.525   -39.753 -0.0667  0.9154  0.3969
     3 C(13)  Bbb     0.4394    58.966    21.041    19.669  0.8420 -0.1617  0.5146
              Bcc     0.4487    60.210    21.484    20.084 -0.5353 -0.3685  0.7600
 
              Baa    -0.0631   -33.661   -12.011   -11.228  0.9429 -0.0721  0.3252
     4 H(1)   Bbb    -0.0026    -1.366    -0.487    -0.456 -0.0668  0.9155  0.3967
              Bcc     0.0656    35.026    12.498    11.684 -0.3264 -0.3958  0.8584
 
              Baa    -0.0672   -35.831   -12.786   -11.952  0.8323  0.2705 -0.4838
     5 H(1)   Bbb    -0.0009    -0.485    -0.173    -0.162 -0.0668  0.9154  0.3970
              Bcc     0.0681    36.317    12.959    12.114  0.5503 -0.2981  0.7800
 
              Baa    -0.0681   -36.315   -12.958   -12.113  0.5992 -0.2812  0.7496
     6 H(1)   Bbb     0.0009     0.485     0.173     0.162 -0.0668  0.9155  0.3968
              Bcc     0.0672    35.830    12.785    11.952  0.7978  0.2879 -0.5298
 
              Baa    -0.0656   -35.024   -12.497   -11.683  0.9977  0.0575  0.0349
     7 H(1)   Bbb     0.0026     1.365     0.487     0.455 -0.0667  0.9154  0.3969
              Bcc     0.0631    33.659    12.010    11.227 -0.0091 -0.3984  0.9172
 

 ---------------------------------------------------------------------------------

 No NMR shielding tensors so no spin-rotation constants.
 Leave Link  601 at Tue Jan  3 09:05:41 2023, MaxMem=   536870912 cpu:               0.4 elap:               0.2
 (Enter /opt/software/gaussian/g16.c01/l9999.exe)

 Test job not archived.
 1\1\GINC-GRA782\Stability\UHF\Gen\C2H4S1\BHAVUK\03-Jan-2023\0\\#p uhf/
 gen stable=opt scf=(maxcycle=900,verytightlineq,xqc) integral=grid=ult
 rafine symmetry=None density=current iop(99/18=-1) output=wfn\\0003_q0
 00_m01_k00_opt_uwb97xd_def2svpd/0003_q000_m01_k00_force_uhf_def2svpd s
 table-force\\0,1\C,0,0.9838325225,-0.0325586033,0.0488580178\S,0,2.607
 1301422,0.0991997065,0.0187984451\C,0,3.2273228911,0.736197977,-1.3460
 048506\H,0,0.570421034,-0.4575297175,0.9597448627\H,0,0.3438072589,0.2
 782232167,-0.7754915598\H,0,2.615218944,1.0564841772,-2.1877415072\H,0
 ,4.3104572053,0.8236432464,-1.365823405\\Version=ES64L-G16RevC.01\HF=-
 475.3226372\S2=0.740817\S2-1=0.\S2A=0.132473\RMSD=1.169e-10\Dipole=-0.
 2055518,0.1035874,-0.2735087\Quadrupole=0.1445405,-1.4049298,1.2603893
 ,0.8760624,-1.5664267,-1.5361814\PG=Unknown\\@

 Writing a WFN file to "0003_q000_m01_k00_force_uhf_def2svpd.wfn"


 ... THIS SEEMS PLAINLY ABSURD; BUT WHOEVER WISHES TO BECOME A 
 PHILOSOPHER MUST LEARN NOT TO BE FRIGHTENED BY ABSURDITIES.

                          -- BERTRAND RUSSELL
 Job cpu time:       0 days  0 hours  0 minutes 13.8 seconds.
 Elapsed time:       0 days  0 hours  0 minutes  7.9 seconds.
 File lengths (MBytes):  RWF=     85 Int=      0 D2E=      0 Chk=      3 Scr=      1
 Normal termination of Gaussian 16 at Tue Jan  3 09:05:42 2023.
 Initial command:
 /opt/software/gaussian/g16.c01/l1.exe "/localscratch/bhavuk.2151382.0/Gau-6839.inp" -scrdir="/localscratch/bhavuk.2151382.0/"
 Entering Link 1 = /opt/software/gaussian/g16.c01/l1.exe PID=      6914.
  
 Copyright (c) 1988-2019, Gaussian, Inc.  All Rights Reserved.
  
 This is part of the Gaussian(R) 16 program.  It is based on
 the Gaussian(R) 09 system (copyright 2009, Gaussian, Inc.),
 the Gaussian(R) 03 system (copyright 2003, Gaussian, Inc.),
 the Gaussian(R) 98 system (copyright 1998, Gaussian, Inc.),
 the Gaussian(R) 94 system (copyright 1995, Gaussian, Inc.),
 the Gaussian 92(TM) system (copyright 1992, Gaussian, Inc.),
 the Gaussian 90(TM) system (copyright 1990, Gaussian, Inc.),
 the Gaussian 88(TM) system (copyright 1988, Gaussian, Inc.),
 the Gaussian 86(TM) system (copyright 1986, Carnegie Mellon
 University), and the Gaussian 82(TM) system (copyright 1983,
 Carnegie Mellon University). Gaussian is a federally registered
 trademark of Gaussian, Inc.
  
 This software contains proprietary and confidential information,
 including trade secrets, belonging to Gaussian, Inc.
  
 This software is provided under written license and may be
 used, copied, transmitted, or stored only in accord with that
 written license.
  
 The following legend is applicable only to US Government
 contracts under FAR:
  
                    RESTRICTED RIGHTS LEGEND
  
 Use, reproduction and disclosure by the US Government is
 subject to restrictions as set forth in subparagraphs (a)
 and (c) of the Commercial Computer Software - Restricted
 Rights clause in FAR 52.227-19.
  
 Gaussian, Inc.
 340 Quinnipiac St., Bldg. 40, Wallingford CT 06492
  
  
 ---------------------------------------------------------------
 Warning -- This program may not be used in any manner that
 competes with the business of Gaussian, Inc. or will provide
 assistance to any competitor of Gaussian, Inc.  The licensee
 of this program is prohibited from giving any competitor of
 Gaussian, Inc. access to this program.  By using this program,
 the user acknowledges that Gaussian, Inc. is engaged in the
 business of creating and licensing software in the field of
 computational chemistry and represents and warrants to the
 licensee that it is not a competitor of Gaussian, Inc. and that
 it will not use this program in any manner prohibited above.
 ---------------------------------------------------------------
  

 Cite this work as:
 Gaussian 16, Revision C.01,
 M. J. Frisch, G. W. Trucks, H. B. Schlegel, G. E. Scuseria, 
 M. A. Robb, J. R. Cheeseman, G. Scalmani, V. Barone, 
 G. A. Petersson, H. Nakatsuji, X. Li, M. Caricato, A. V. Marenich, 
 J. Bloino, B. G. Janesko, R. Gomperts, B. Mennucci, H. P. Hratchian, 
 J. V. Ortiz, A. F. Izmaylov, J. L. Sonnenberg, D. Williams-Young, 
 F. Ding, F. Lipparini, F. Egidi, J. Goings, B. Peng, A. Petrone, 
 T. Henderson, D. Ranasinghe, V. G. Zakrzewski, J. Gao, N. Rega, 
 G. Zheng, W. Liang, M. Hada, M. Ehara, K. Toyota, R. Fukuda, 
 J. Hasegawa, M. Ishida, T. Nakajima, Y. Honda, O. Kitao, H. Nakai, 
 T. Vreven, K. Throssell, J. A. Montgomery, Jr., J. E. Peralta, 
 F. Ogliaro, M. J. Bearpark, J. J. Heyd, E. N. Brothers, K. N. Kudin, 
 V. N. Staroverov, T. A. Keith, R. Kobayashi, J. Normand, 
 K. Raghavachari, A. P. Rendell, J. C. Burant, S. S. Iyengar, 
 J. Tomasi, M. Cossi, J. M. Millam, M. Klene, C. Adamo, R. Cammi, 
 J. W. Ochterski, R. L. Martin, K. Morokuma, O. Farkas, 
 J. B. Foresman, and D. J. Fox, Gaussian, Inc., Wallingford CT, 2019.
 
 ******************************************
 Gaussian 16:  ES64L-G16RevC.01  3-Jul-2019
                 3-Jan-2023 
 ******************************************
 %chk=0003_q000_m01_k00_force_uhf_def2svpd.chk
 %nprocshared=2
 Will use up to    2 processors via shared memory.
 %mem=4GB
 ----------------------------------------------------------------------
 #p uhf/chkbasis force guess=read geom=check scf=(maxcycle=900,verytigh
 tlineq,xqc) integral=grid=ultrafine symmetry=None density=current pop=
 (cm5,hlygat,mbs,npa) output=wfx
 ----------------------------------------------------------------------
 1/10=7,29=2,30=1,38=1/1,3;
 2/12=2,15=3,40=1/2;
 3/5=7,6=2,11=2,14=-4,25=1,30=1,67=1,71=1,75=-5,116=2/1,2,3;
 4/5=1/1;
 5/5=2,7=900,8=3,13=1,17=3,38=6/2,8;
 6/7=2,8=2,9=2,10=2,15=8,20=15,22=-1,27=100,28=1,40=-1,79=1/1,2,7;
 7/29=1,30=1/1,2,3,16;
 1/10=7,30=1/3;
 99/6=200/99;
 Leave Link    1 at Tue Jan  3 09:05:42 2023, MaxMem=   536870912 cpu:               0.2 elap:               0.1
 (Enter /opt/software/gaussian/g16.c01/l101.exe)
 ----------------------------------------------------------------------
 0003_q000_m01_k00_opt_uwb97xd_def2svpd/0003_q000_m01_k00_force_uhf_def
 2svpd stable-force
 ----------------------------------------------------------------------
 Structure from the checkpoint file:  "0003_q000_m01_k00_force_uhf_def2svpd.chk"
 Charge =  0 Multiplicity = 1
 Z-Matrix found in chk file.
 C,0,0.9838325225,-0.0325586033,0.0488580178
 S,0,2.6071301422,0.0991997065,0.0187984451
 C,0,3.2273228911,0.736197977,-1.3460048506
 H,0,0.570421034,-0.4575297175,0.9597448627
 H,0,0.3438072589,0.2782232167,-0.7754915598
 H,0,2.615218944,1.0564841772,-2.1877415072
 H,0,4.3104572053,0.8236432464,-1.365823405
 Recover connectivity data from disk.
 ITRead=  0  0  0  0  0  0  0
 MicOpt= -1 -1 -1 -1 -1 -1 -1
 NAtoms=      7 NQM=        7 NQMF=       0 NMMI=      0 NMMIF=      0
                NMic=       0 NMicF=      0.
                    Isotopes and Nuclear Properties:
 (Nuclear quadrupole moments (NQMom) in fm**2, nuclear magnetic moments (NMagM)
  in nuclear magnetons)

  Atom         1           2           3           4           5           6           7
 IAtWgt=          12          32          12           1           1           1           1
 AtmWgt=  12.0000000  31.9720718  12.0000000   1.0078250   1.0078250   1.0078250   1.0078250
 NucSpn=           0           0           0           1           1           1           1
 AtZEff=   3.6000000  13.6000000   3.6000000   1.0000000   1.0000000   1.0000000   1.0000000
 NQMom=    0.0000000   0.0000000   0.0000000   0.0000000   0.0000000   0.0000000   0.0000000
 NMagM=    0.0000000   0.0000000   0.0000000   2.7928460   2.7928460   2.7928460   2.7928460
 AtZNuc=   6.0000000  16.0000000   6.0000000   1.0000000   1.0000000   1.0000000   1.0000000
 Leave Link  101 at Tue Jan  3 09:05:42 2023, MaxMem=   536870912 cpu:               0.4 elap:               0.2
 (Enter /opt/software/gaussian/g16.c01/l103.exe)

 GradGradGradGradGradGradGradGradGradGradGradGradGradGradGradGradGradGrad
 Berny optimization.
 Initialization pass.
 Trust Radius=3.00D-01 FncErr=1.00D-07 GrdErr=1.00D-07 EigMax=2.50D+02 EigMin=1.00D-04
 Number of steps in this run=      2 maximum allowed number of steps=      2.
 GradGradGradGradGradGradGradGradGradGradGradGradGradGradGradGradGradGrad

 Leave Link  103 at Tue Jan  3 09:05:42 2023, MaxMem=   536870912 cpu:               0.0 elap:               0.0
 (Enter /opt/software/gaussian/g16.c01/l202.exe)
                          Input orientation:                          
 ---------------------------------------------------------------------
 Center     Atomic      Atomic             Coordinates (Angstroms)
 Number     Number       Type             X           Y           Z
 ---------------------------------------------------------------------
      1          6           0        0.983833   -0.032559    0.048858
      2         16           0        2.607130    0.099200    0.018798
      3          6           0        3.227323    0.736198   -1.346005
      4          1           0        0.570421   -0.457530    0.959745
      5          1           0        0.343807    0.278223   -0.775492
      6          1           0        2.615219    1.056484   -2.187742
      7          1           0        4.310457    0.823643   -1.365823
 ---------------------------------------------------------------------
                    Distance matrix (angstroms):
                    1          2          3          4          5
     1  C    0.000000
     2  S    1.628913   0.000000
     3  C    2.751341   1.628832   0.000000
     4  H    1.086841   2.311604   3.714915   0.000000
     5  H    1.088931   2.405323   2.974876   1.898350   0.000000
     6  H    2.974864   2.405260   1.088933   4.047234   2.785579
     7  H    3.714948   2.311562   1.086839   4.586670   4.047257
                    6          7
     6  H    0.000000
     7  H    1.898314   0.000000
 Symmetry turned off by external request.
 Stoichiometry    C2H4S
 Rotational constants (GHZ):          32.8865896           8.4327606           6.7117401
 Leave Link  202 at Tue Jan  3 09:05:42 2023, MaxMem=   536870912 cpu:               0.0 elap:               0.0
 (Enter /opt/software/gaussian/g16.c01/l301.exe)
 Basis read from chk: "0003_q000_m01_k00_force_uhf_def2svpd.chk" (5D, 7F)
 No pseudopotential information found on chk file.
    99 basis functions,   151 primitive gaussians,   105 cartesian basis functions
    16 alpha electrons       16 beta electrons
       nuclear repulsion energy       100.3080120317 Hartrees.
 IExCor=    0 DFT=F Ex=HF Corr=None ExCW=0 ScaHFX=  1.000000
 ScaDFX=  1.000000  1.000000  1.000000  1.000000 ScalE2=  1.000000  1.000000
 IRadAn=      5 IRanWt=     -1 IRanGd=            0 ICorTp=0 IEmpDi=  4
 NAtoms=    7 NActive=    7 NUniq=    7 SFac= 1.00D+00 NAtFMM=   60 NAOKFM=F Big=F
 Integral buffers will be    131072 words long.
 Raffenetti 2 integral format.
 Two-electron integral symmetry is turned off.
 No density basis found on file  20724.
 Leave Link  301 at Tue Jan  3 09:05:42 2023, MaxMem=   536870912 cpu:               0.1 elap:               0.1
 (Enter /opt/software/gaussian/g16.c01/l302.exe)
 NPDir=0 NMtPBC=     1 NCelOv=     1 NCel=       1 NClECP=     1 NCelD=      1
[...]
 ----------------------------------------------------------------------------
      C    1      [core]2S( 0.61)2p( 2.13)3p( 0.01)
      S    2      [core]3S( 0.74)3p( 1.96)5S( 0.01)4d( 0.03)5p( 0.01)
      C    3      [core]2S( 0.55)2p( 1.37)3p( 0.01)4d( 0.01)
      H    4            1S( 0.37)
      H    5            1S( 0.37)
      H    6            1S( 0.42)
      H    7            1S( 0.41)


 NBO analysis skipped by request.


 ***************************************************
 *******         Beta  spin orbitals         *******
 ***************************************************


 NATURAL POPULATIONS:  Natural atomic orbital occupancies 
                                                          
   NAO  Atom  No  lang   Type(AO)    Occupancy      Energy
 ----------------------------------------------------------
     1    C    1  S      Cor( 1S)     0.99981     -11.13205
     2    C    1  S      Val( 2S)     0.54550      -0.31160
     3    C    1  S      Ryd( 4S)     0.00059       1.02077
     4    C    1  S      Ryd( 3S)     0.00003       0.86740
     5    C    1  px     Val( 2p)     0.50628      -0.08900
     6    C    1  px     Ryd( 3p)     0.00234       0.92701
     7    C    1  py     Val( 2p)     0.31406       0.03332
     8    C    1  py     Ryd( 3p)     0.00298       0.92206
     9    C    1  pz     Val( 2p)     0.54884      -0.03926
    10    C    1  pz     Ryd( 3p)     0.00160       1.06250
    11    C    1  dxy    Ryd( 4d)     0.00202       1.91201
    12    C    1  dxy    Ryd( 3d)     0.00017       0.99963
    13    C    1  dxz    Ryd( 4d)     0.00082       2.40111
    14    C    1  dxz    Ryd( 3d)     0.00013       1.13142
    15    C    1  dyz    Ryd( 4d)     0.00069       1.87350
    16    C    1  dyz    Ryd( 3d)     0.00012       1.13417
    17    C    1  dx2y2  Ryd( 4d)     0.00233       2.12338
    18    C    1  dx2y2  Ryd( 3d)     0.00005       0.98843
    19    C    1  dz2    Ryd( 4d)     0.00130       2.12307
    20    C    1  dz2    Ryd( 3d)     0.00008       1.02702
 
    21    S    2  S      Cor( 1S)     1.00000     -91.07870
    22    S    2  S      Cor( 2S)     0.99952      -9.58371
    23    S    2  S      Val( 3S)     0.74401      -0.78543
    24    S    2  S      Ryd( 5S)     0.00507       0.93271
    25    S    2  S      Ryd( 4S)     0.00009       0.35426
    26    S    2  px     Cor( 2p)     0.99987      -6.67438
    27    S    2  px     Val( 3p)     0.56458      -0.16261
    28    S    2  px     Ryd( 5p)     0.00331       1.14104
    29    S    2  px     Ryd( 4p)     0.00006       0.29794
    30    S    2  py     Cor( 2p)     0.99994      -6.67521
    31    S    2  py     Val( 3p)     0.73005      -0.27187
    32    S    2  py     Ryd( 5p)     0.00320       1.01088
    33    S    2  py     Ryd( 4p)     0.00006       0.29863
    34    S    2  pz     Cor( 2p)     0.99991      -6.67400
    35    S    2  pz     Val( 3p)     0.66640      -0.22979
    36    S    2  pz     Ryd( 5p)     0.00256       1.09774
    37    S    2  pz     Ryd( 4p)     0.00006       0.29757
    38    S    2  dxy    Ryd( 4d)     0.00790       0.94224
    39    S    2  dxy    Ryd( 3d)     0.00004       0.70489
    40    S    2  dxz    Ryd( 4d)     0.00353       1.12887
    41    S    2  dxz    Ryd( 3d)     0.00005       0.77700
    42    S    2  dyz    Ryd( 4d)     0.00546       0.94764
    43    S    2  dyz    Ryd( 3d)     0.00010       0.74207
    44    S    2  dx2y2  Ryd( 4d)     0.00768       1.12326
    45    S    2  dx2y2  Ryd( 3d)     0.00008       0.79643
    46    S    2  dz2    Ryd( 4d)     0.00745       1.10289
    47    S    2  dz2    Ryd( 3d)     0.00010       0.76057
 
    48    C    3  S      Cor( 1S)     0.99981     -11.15031
    49    C    3  S      Val( 2S)     0.60553      -0.45472
    50    C    3  S      Ryd( 4S)     0.00059       0.99474
    51    C    3  S      Ryd( 3S)     0.00003       0.86537
    52    C    3  px     Val( 2p)     0.61865      -0.11577
    53    C    3  px     Ryd( 3p)     0.00168       1.05295
    54    C    3  py     Val( 2p)     0.89016      -0.33080
    55    C    3  py     Ryd( 3p)     0.00374       0.83204
    56    C    3  pz     Val( 2p)     0.61970      -0.16679
    57    C    3  pz     Ryd( 3p)     0.00253       0.93036
    58    C    3  dxy    Ryd( 4d)     0.00039       1.83661
    59    C    3  dxy    Ryd( 3d)     0.00004       0.96854
    60    C    3  dxz    Ryd( 4d)     0.00171       2.33043
    61    C    3  dxz    Ryd( 3d)     0.00012       1.01176
    62    C    3  dyz    Ryd( 4d)     0.00079       1.90073
    63    C    3  dyz    Ryd( 3d)     0.00007       1.00789
    64    C    3  dx2y2  Ryd( 4d)     0.00032       1.96706
    65    C    3  dx2y2  Ryd( 3d)     0.00016       1.25754
    66    C    3  dz2    Ryd( 4d)     0.00098       2.17415
    67    C    3  dz2    Ryd( 3d)     0.00004       1.00588
 
    68    H    4  S      Val( 1S)     0.40589       0.10702
    69    H    4  S      Ryd( 2S)     0.00024       0.55930
    70    H    4  px     Ryd( 2p)     0.00123       0.92701
    71    H    4  px     Ryd( 3p)     0.00017       1.80732
    72    H    4  py     Ryd( 2p)     0.00031       0.90263
    73    H    4  py     Ryd( 3p)     0.00002       1.71017
    74    H    4  pz     Ryd( 2p)     0.00084       1.16719
    75    H    4  pz     Ryd( 3p)     0.00012       1.82086
 
    76    H    5  S      Val( 1S)     0.41532       0.10228
    77    H    5  S      Ryd( 2S)     0.00047       0.59872
    78    H    5  px     Ryd( 2p)     0.00080       1.27524
    79    H    5  px     Ryd( 3p)     0.00016       1.64881
    80    H    5  py     Ryd( 2p)     0.00011       1.00203
    81    H    5  py     Ryd( 3p)     0.00002       1.59698
    82    H    5  pz     Ryd( 2p)     0.00064       1.28830
    83    H    5  pz     Ryd( 3p)     0.00009       1.70241
 
    84    H    6  S      Val( 1S)     0.37348       0.13319
    85    H    6  S      Ryd( 2S)     0.00051       0.59864
    86    H    6  px     Ryd( 2p)     0.00065       1.18453
    87    H    6  px     Ryd( 3p)     0.00014       1.69348
    88    H    6  py     Ryd( 2p)     0.00018       1.01116
    89    H    6  py     Ryd( 3p)     0.00024       1.58652
    90    H    6  pz     Ryd( 2p)     0.00085       1.36107
    91    H    6  pz     Ryd( 3p)     0.00019       1.66501
 
    92    H    7  S      Val( 1S)     0.36607       0.13630
    93    H    7  S      Ryd( 2S)     0.00032       0.55933
    94    H    7  px     Ryd( 2p)     0.00108       1.29745
    95    H    7  px     Ryd( 3p)     0.00020       1.88112
    96    H    7  py     Ryd( 2p)     0.00026       0.83242
    97    H    7  py     Ryd( 3p)     0.00024       1.69438
    98    H    7  pz     Ryd( 2p)     0.00111       0.85830
    99    H    7  pz     Ryd( 3p)     0.00018       1.75961

 WARNING:  Population inversion found on atom  C    1
           Population inversion found on atom  S    2
           Population inversion found on atom  C    3
           Population inversion found on atom  H    6


 Summary of Natural Population Analysis:                  
                                                          
                                       Natural Population 
                Natural  -----------------------------------------------
    Atom  No    Charge         Core      Valence    Rydberg      Total
 -----------------------------------------------------------------------
      C    1    0.07023      0.99981     1.91469    0.01527     2.92977
      S    2    0.24893      4.99923     2.70503    0.04681     7.75107
      C    3   -0.74704      0.99981     2.73405    0.01319     3.74704
      H    4    0.09117      0.00000     0.40589    0.00294     0.40883
      H    5    0.08240      0.00000     0.41532    0.00228     0.41760
      H    6    0.12377      0.00000     0.37348    0.00275     0.37623
      H    7    0.13055      0.00000     0.36607    0.00339     0.36945
 =======================================================================
   * Total *    0.00000      6.99885     8.91452    0.08663    16.00000

                                 Natural Population      
 --------------------------------------------------------
   Core                       6.99885 ( 99.9836% of   7)
   Valence                    8.91452 ( 99.0503% of   9)
   Natural Minimal Basis     15.91337 ( 99.4586% of  16)
   Natural Rydberg Basis      0.08663 (  0.5414% of  16)
 --------------------------------------------------------

    Atom  No          Natural Electron Configuration
 ----------------------------------------------------------------------------
      C    1      [core]2S( 0.55)2p( 1.37)3p( 0.01)4d( 0.01)
      S    2      [core]3S( 0.74)3p( 1.96)5S( 0.01)4d( 0.03)5p( 0.01)
      C    3      [core]2S( 0.61)2p( 2.13)3p( 0.01)
      H    4            1S( 0.41)
      H    5            1S( 0.42)
      H    6            1S( 0.37)
      H    7            1S( 0.37)


 NBO analysis skipped by request.
 Leave Link  607 at Tue Jan  3 09:05:46 2023, MaxMem=   536870912 cpu:               3.6 elap:               1.8
 (Enter /opt/software/gaussian/g16.c01/l701.exe)
 ... and contract with generalized density number  0.
 Compute integral first derivatives.
 Leave Link  701 at Tue Jan  3 09:05:47 2023, MaxMem=   536870912 cpu:               0.2 elap:               0.1
 (Enter /opt/software/gaussian/g16.c01/l702.exe)
 L702 exits ... SP integral derivatives will be done elsewhere.
 Leave Link  702 at Tue Jan  3 09:05:47 2023, MaxMem=   536870912 cpu:               0.1 elap:               0.0
 (Enter /opt/software/gaussian/g16.c01/l703.exe)
 Integral derivatives from FoFJK, PRISM(SPDF).
 Compute integral first derivatives, UseDBF=F ICtDFT=           0.
 Calling FoFJK, ICntrl=      2127 FMM=F ISym2X=0 I1Cent= 0 IOpClX= 1 NMat=1 NMatS=1 NMatT=0.
 FoFJK:  IHMeth= 1 ICntrl=    2127 DoSepK=F KAlg= 0 I1Cent=           0 FoldK=F
 IRaf=         0 NMat=       1 IRICut=       1 DoRegI=T DoRafI=F ISym2E= 0 IDoP0=0 IntGTp=1.
 FoFCou: FMM=F IPFlag=           0 FMFlag=      100000 FMFlg1=         800
         NFxFlg=           0 DoJE=F BraDBF=F KetDBF=F FulRan=T
         wScrn=  0.000000 ICntrl=      2127 IOpCl=  1 I1Cent=           0 NGrid=           0
         NMat0=    1 NMatS0=      1 NMatT0=    0 NMatD0=    1 NMtDS0=    0 NMtDT0=    0
 Symmetry not used in FoFCou.
 Leave Link  703 at Tue Jan  3 09:05:48 2023, MaxMem=   536870912 cpu:               1.8 elap:               0.9
 (Enter /opt/software/gaussian/g16.c01/l716.exe)
 Dipole        =-2.05551752D-01 1.03587413D-01-2.73508689D-01
 -------------------------------------------------------------------
 Center     Atomic                   Forces (Hartrees/Bohr)
 Number     Number              X              Y              Z
 -------------------------------------------------------------------
      1        6          -0.041429296   -0.000201359   -0.006508724
      2       16           0.031117306   -0.015717110    0.041491496
      3        6           0.008395138    0.016884898   -0.037537439
      4        1           0.001266180    0.002826118   -0.006304923
      5        1           0.002266028   -0.002428939    0.005977842
      6        1           0.005301043   -0.001388349    0.004092119
      7        1          -0.006916398    0.000024741   -0.001210372
 -------------------------------------------------------------------
 Cartesian Forces:  Max     0.041491496 RMS     0.017798440
 Z-matrix is all fixed cartesians, so copy forces.
 Force constants in Cartesian coordinates: 
                1             2             3             4             5 
      1  0.799457D+00
      2  0.386953D-01  0.202300D+00
      3  0.262318D-01 -0.197489D+00  0.573805D+00
      4 -0.458605D+00 -0.232735D-01 -0.165583D-01  0.577555D+00
      5 -0.320482D-01 -0.525335D-01  0.183029D-01  0.867656D-01  0.122175D+00
      6  0.365769D-02  0.197847D-01 -0.872720D-01 -0.110154D+00 -0.165608D+00
      7  0.122699D-02 -0.100692D-01  0.221250D-01 -0.139616D+00 -0.489763D-01
      8 -0.597775D-03  0.748286D-02  0.517705D-03 -0.577409D-01 -0.107626D+00
      9  0.278568D-03 -0.108316D-02  0.102956D-01  0.116790D+00  0.142526D+00
     10 -0.144909D+00 -0.441803D-01  0.836168D-01  0.115252D-02 -0.932375D-02
     11 -0.404522D-01 -0.846163D-01  0.105218D+00 -0.241587D-03  0.264194D-02
     12  0.750267D-01  0.104603D+00 -0.264763D+00  0.410365D-03 -0.299905D-02
     13 -0.197168D+00  0.388020D-01 -0.115426D+00 -0.916549D-03  0.691836D-02
     14  0.343779D-01 -0.722913D-01  0.735979D-01 -0.146773D-02  0.180903D-01
     15 -0.105206D+00  0.743316D-01 -0.232001D+00  0.158269D-03  0.144866D-02
     16 -0.246017D-04  0.336366D-03  0.145813D-03  0.192862D-01 -0.309494D-02
     17  0.337132D-03 -0.460942D-02 -0.199817D-02  0.528610D-02  0.146053D-01
     18  0.146171D-03 -0.199852D-02 -0.866351D-03 -0.120134D-01  0.780803D-02
     19  0.227250D-04 -0.310706D-03 -0.134690D-03  0.114404D-02 -0.240739D-03
     20 -0.312161D-03  0.426801D-02  0.185017D-02 -0.932793D-02  0.264671D-02
     21 -0.135369D-03  0.185083D-02  0.802328D-03  0.213670D-01 -0.147893D-02
                6             7             8             9            10 
      6  0.407473D+00
      7  0.965700D-01  0.667382D+00
      8  0.141042D+00  0.492959D-01  0.225135D+00
      9 -0.351317D+00 -0.206782D-01 -0.248346D+00  0.683203D+00
     10  0.213707D-01  0.228255D-04 -0.312081D-03 -0.135286D-03  0.115530D+00
     11 -0.146606D-02 -0.312069D-03  0.426675D-02  0.184962D-02  0.445604D-01
     12  0.901525D-02 -0.135235D-03  0.184900D-02  0.801534D-03 -0.864441D-01
     13 -0.191712D-01 -0.246447D-04  0.336954D-03  0.146068D-03  0.282041D-01
     14  0.324183D-04  0.336979D-03 -0.460733D-02 -0.199726D-02  0.925576D-02
     15  0.148968D-01  0.146176D-03 -0.199858D-02 -0.866379D-03 -0.184082D-01
     16  0.731953D-02 -0.179623D+00  0.329496D-01 -0.989913D-01  0.000000D+00
     17  0.921888D-02  0.373763D-01 -0.753070D-01  0.810589D-01  0.000000D+00
     18 -0.181486D-02 -0.109211D+00  0.803191D-01 -0.246533D+00  0.000000D+00
     19  0.407512D-03 -0.349368D+00 -0.239317D-01  0.258983D-02  0.000000D+00
     20 -0.300348D-02 -0.276515D-01 -0.493443D-01  0.259912D-01  0.000000D+00
     21  0.901933D-02  0.111835D-01  0.266169D-01 -0.955832D-01  0.000000D+00
               11            12            13            14            15 
     11  0.698063D-01
     12 -0.111340D+00  0.260624D+00
     13 -0.355446D-02  0.111423D-01  0.169905D+00
     14  0.790132D-02  0.788712D-02 -0.425029D-01  0.509070D-01
     15  0.573850D-02 -0.567740D-02  0.123309D+00 -0.795202D-01  0.223648D+00
     16  0.000000D+00  0.000000D+00  0.000000D+00  0.000000D+00  0.000000D+00
     17  0.000000D+00  0.000000D+00  0.000000D+00  0.000000D+00  0.000000D+00
     18  0.000000D+00  0.000000D+00  0.000000D+00  0.000000D+00  0.000000D+00
     19  0.000000D+00  0.000000D+00  0.000000D+00  0.000000D+00  0.000000D+00
     20  0.000000D+00  0.000000D+00  0.000000D+00  0.000000D+00  0.000000D+00
     21  0.000000D+00  0.000000D+00  0.000000D+00  0.000000D+00  0.000000D+00
               16            17            18            19            20 
     16  0.161831D+00
     17 -0.418445D-01  0.522901D-01
     18  0.120449D+00 -0.826089D-01  0.230340D+00
     19 -0.147004D-02 -0.115499D-02  0.629518D-03  0.349671D+00
     20  0.116534D-01  0.130211D-01 -0.351969D-02  0.256381D-01  0.294086D-01
     21 -0.289230D-01 -0.567069D-02  0.188748D-01 -0.349217D-02 -0.213182D-01
               21 
     21  0.668867D-01
 Leave Link  716 at Tue Jan  3 09:05:48 2023, MaxMem=   536870912 cpu:               0.1 elap:               0.1
 (Enter /opt/software/gaussian/g16.c01/l103.exe)

 GradGradGradGradGradGradGradGradGradGradGradGradGradGradGradGradGradGrad
 Berny optimization.
 Search for a local minimum.
 Step number   1 out of a maximum of    2
 All quantities printed in internal units (Hartrees-Bohrs-Radians)
 Second derivative matrix not updated -- first step.
 ITU=  0
     Eigenvalues ---    0.00860   0.01482   0.01804   0.07108   0.07556
     Eigenvalues ---    0.11270   0.14823   0.15345   0.17618   0.32617
     Eigenvalues ---    0.36576   0.82416   0.92900   1.11635   1.31988
 Angle between quadratic step and forces=  66.49 degrees.
 Linear search not attempted -- first point.
 B after Tr=     0.022629   -0.011392    0.030130
         Rot=    1.000000   -0.000011   -0.000004    0.000008 Ang=  -0.00 deg.
 Variable       Old X    -DE/DX   Delta X   Delta X   Delta X     New X
                                 (Linear)    (Quad)   (Total)
    X1        1.85917  -0.04143   0.00000  -0.01401   0.00862   1.86780
    Y1       -0.06153  -0.00020   0.00000   0.01450   0.00308  -0.05845
    Z1        0.09233  -0.00651   0.00000  -0.03573  -0.00562   0.08671
    X2        4.92676   0.03112   0.00000   0.07480   0.09743   5.02419
    Y2        0.18746  -0.01572   0.00000  -0.03778  -0.04926   0.13820
    Z2        0.03552   0.04149   0.00000   0.09956   0.12965   0.16517
    X3        6.09876   0.00840   0.00000  -0.03152  -0.00889   6.08986
    Y3        1.39121   0.01688   0.00000   0.00849  -0.00295   1.38826
    Z3       -2.54358  -0.03754   0.00000  -0.02490   0.00521  -2.53837
    X4        1.07794   0.00127   0.00000  -0.10608  -0.08345   0.99449
    Y4       -0.86461   0.00283   0.00000   0.03246   0.02101  -0.84360
    Z4        1.81365  -0.00630   0.00000  -0.09244  -0.06234   1.75131
    X5        0.64970   0.00227   0.00000   0.05981   0.08243   0.73213
    Y5        0.52577  -0.00243   0.00000   0.03122   0.01985   0.54561
    Z5       -1.46547   0.00598   0.00000  -0.06197  -0.03183  -1.49730
    X6        4.94205   0.00530   0.00000  -0.08517  -0.06254   4.87951
    Y6        1.99647  -0.00139   0.00000  -0.01849  -0.02988   1.96659
    Z6       -4.13423   0.00409   0.00000   0.02810   0.05823  -4.07600
    X7        8.14558  -0.00692   0.00000  -0.05624  -0.03361   8.11198
    Y7        1.55646   0.00002   0.00000   0.04962   0.03815   1.59461
    Z7       -2.58103  -0.00121   0.00000  -0.12339  -0.09329  -2.67433
         Item               Value     Threshold  Converged?
 Maximum Force            0.041491     0.000450     NO 
 RMS     Force            0.017798     0.000300     NO 
 Maximum Displacement     0.129647     0.001800     NO 
 RMS     Displacement     0.056877     0.001200     NO 
 Predicted change in Energy=-4.566786D-03
 GradGradGradGradGradGradGradGradGradGradGradGradGradGradGradGradGradGrad

 Leave Link  103 at Tue Jan  3 09:05:48 2023, MaxMem=   536870912 cpu:               0.0 elap:               0.0
 (Enter /opt/software/gaussian/g16.c01/l9999.exe)
 Unable to Open any file for archive entry.
 1\1\GINC-GRA782\Force\UHF\Gen\C2H4S1\BHAVUK\03-Jan-2023\0\\#p uhf/chkb
 asis force guess=read geom=check scf=(maxcycle=900,verytightlineq,xqc)
  integral=grid=ultrafine symmetry=None density=current pop=(cm5,hlygat
 ,mbs,npa) output=wfx\\0003_q000_m01_k00_opt_uwb97xd_def2svpd/0003_q000
 _m01_k00_force_uhf_def2svpd stable-force\\0,1\C,0.9838325225,-0.032558
 6033,0.0488580178\S,2.6071301422,0.0991997065,0.0187984451\C,3.2273228
 911,0.736197977,-1.3460048506\H,0.570421034,-0.4575297175,0.9597448627
 \H,0.3438072589,0.2782232167,-0.7754915598\H,2.615218944,1.0564841772,
 -2.1877415072\H,4.3104572053,0.8236432464,-1.365823405\\Version=ES64L-
 G16RevC.01\HF=-475.3226372\S2=0.740817\S2-1=0.\S2A=0.132473\RMSD=0.000
 e+00\RMSF=1.780e-02\Dipole=-0.2055518,0.1035874,-0.2735087\Quadrupole=
 0.1445405,-1.4049298,1.2603893,0.8760624,-1.5664267,-1.5361814\PG=Unkn
 own\\@
 The archive entry for this job was punched.

 Writing a WFNX file to "0003_q000_m01_k00_force_uhf_def2svpd.wfx"


 CONFIDENCE IS WHAT YOU FEEL BEFORE YOU FULLY
 COMPREHEND THE SITUATION.
 Job cpu time:       0 days  0 hours  0 minutes 10.7 seconds.
 Elapsed time:       0 days  0 hours  0 minutes  5.1 seconds.
 File lengths (MBytes):  RWF=     10 Int=      0 D2E=      0 Chk=      3 Scr=      1
 Normal termination of Gaussian 16 at Tue Jan  3 09:05:48 2023.
