 Entering Gaussian System, Link 0=g16
 Input=0003_q000_m01_k00_force_ub3lyp_def2tzvpd.com
 Output=0003_q000_m01_k00_force_ub3lyp_def2tzvpd.log
 Initial command:
 /opt/software/gaussian/g16.c01/l1.exe "/localscratch/bhavuk.2151378.0/Gau-13120.inp" -scrdir="/localscratch/bhavuk.2151378.0/"
 Entering Link 1 = /opt/software/gaussian/g16.c01/l1.exe PID=     13122.
  
 Copyright (c) 1988-2019, Gaussian, Inc.  All Rights Reserved.
  
 This is part of the Gaussian(R) 16 program.  It is based on
 the Gaussian(R) 09 system (copyright 2009, Gaussian, Inc.),
 the Gaussian(R) 03 system (copyright 2003, Gaussian, Inc.),
 the Gaussian(R) 98 system (copyright 1998, Gaussian, Inc.),
 the Gaussian(R) 94 system (copyright 1995, Gaussian, Inc.),
 the Gaussian 92(TM) system (copyright 1992, Gaussian, Inc.),
 the Gaussian 90(TM) system (copyright 1990, Gaussian, Inc.),
 the Gaussian 88(TM) system (copyright 1988, Gaussian, Inc.),
 the Gaussian 86(TM) system (copyright 1986, Carnegie Mellon
 University), and the Gaussian 82(TM) system (copyright 1983,
 Carnegie Mellon University). Gaussian is a federally registered
 trademark of Gaussian, Inc.
  
 This software contains proprietary and confidential information,
 including trade secrets, belonging to Gaussian, Inc.
  
 This software is provided under written license and may be
 used, copied, transmitted, or stored only in accord with that
 written license.
  
 The following legend is applicable only to US Government
 contracts under FAR:
  
                    RESTRICTED RIGHTS LEGEND
  
 Use, reproduction and disclosure by the US Government is
 subject to restrictions as set forth in subparagraphs (a)
 and (c) of the Commercial Computer Software - Restricted
 Rights clause in FAR 52.227-19.
  
 Gaussian, Inc.
 340 Quinnipiac St., Bldg. 40, Wallingford CT 06492
  
  
 ---------------------------------------------------------------
 Warning -- This program may not be used in any manner that
 competes with the business of Gaussian, Inc. or will provide
 assistance to any competitor of Gaussian, Inc.  The licensee
 of this program is prohibited from giving any competitor of
 Gaussian, Inc. access to this program.  By using this program,
 the user acknowledges that Gaussian, Inc. is engaged in the
 business of creating and licensing software in the field of
 computational chemistry and represents and warrants to the
 licensee that it is not a competitor of Gaussian, Inc. and that
 it will not use this program in any manner prohibited above.
 ---------------------------------------------------------------
  

 Cite this work as:
 Gaussian 16, Revision C.01,
 M. J. Frisch, G. W. Trucks, H. B. Schlegel, G. E. Scuseria, 
 M. A. Robb, J. R. Cheeseman, G. Scalmani, V. Barone, 
 G. A. Petersson, H. Nakatsuji, X. Li, M. Caricato, A. V. Marenich, 
 J. Bloino, B. G. Janesko, R. Gomperts, B. Mennucci, H. P. Hratchian, 
 J. V. Ortiz, A. F. Izmaylov, J. L. Sonnenberg, D. Williams-Young, 
 F. Ding, F. Lipparini, F. Egidi, J. Goings, B. Peng, A. Petrone, 
 T. Henderson, D. Ranasinghe, V. G. Zakrzewski, J. Gao, N. Rega, 
 G. Zheng, W. Liang, M. Hada, M. Ehara, K. Toyota, R. Fukuda, 
 J. Hasegawa, M. Ishida, T. Nakajima, Y. Honda, O. Kitao, H. Nakai, 
 T. Vreven, K. Throssell, J. A. Montgomery, Jr., J. E. Peralta, 
 F. Ogliaro, M. J. Bearpark, J. J. Heyd, E. N. Brothers, K. N. Kudin, 
 V. N. Staroverov, T. A. Keith, R. Kobayashi, J. Normand, 
 K. Raghavachari, A. P. Rendell, J. C. Burant, S. S. Iyengar, 
 J. Tomasi, M. Cossi, J. M. Millam, M. Klene, C. Adamo, R. Cammi, 
 J. W. Ochterski, R. L. Martin, K. Morokuma, O. Farkas, 
 J. B. Foresman, and D. J. Fox, Gaussian, Inc., Wallingford CT, 2019.
 
 ******************************************
 Gaussian 16:  ES64L-G16RevC.01  3-Jul-2019
                 3-Jan-2023 
 ******************************************
 %chk=0003_q000_m01_k00_force_ub3lyp_def2tzvpd.chk
 %nprocshared=2
 Will use up to    2 processors via shared memory.
 %mem=4GB
 ----------------------------------------------------------------------
 #p ub3lyp/gen stable=opt scf=(maxcycle=900,verytightlineq,xqc) integra
 l=grid=ultrafine symmetry=None density=current iop(99/18=-1) output=wf
 n
 ----------------------------------------------------------------------
 1/38=1,172=1/1;
 2/12=2,15=3,17=6,18=5,40=1/2;
 3/5=7,11=2,25=1,30=1,74=-5,75=-5,116=2/1,2,3;
 4//1;
 5/5=2,7=900,8=3,13=1,17=3,38=5/2,8;
 6/7=2,8=2,9=2,10=2,22=-1,28=1/1;
 8/6=1,10=90,11=11/1;
 9/8=-3,42=1,46=1/14;
 5/5=2,7=900,8=3,17=43,38=5/8(-2);
 6/7=2,8=2,9=2,10=2,22=-1,28=1/1;
 99/5=1,6=100,9=1,18=-1/99;
 Leave Link    1 at Tue Jan  3 09:05:21 2023, MaxMem=   536870912 cpu:               0.1 elap:               0.1
 (Enter /opt/software/gaussian/g16.c01/l101.exe)
 ----------------------------------------------------------------------
 0003_q000_m01_k00_opt_uwb97xd_def2svpd/0003_q000_m01_k00_force_ub3lyp_
 def2tzvpd stable-force
 ----------------------------------------------------------------------
 Symbolic Z-matrix:
 Charge =  0 Multiplicity = 1
 C                     0.98383  -0.03256   0.04886 
 S                     2.60713   0.0992    0.0188 
 C                     3.22732   0.7362   -1.346 
 H                     0.57042  -0.45753   0.95974 
 H                     0.34381   0.27822  -0.77549 
 H                     2.61522   1.05648  -2.18774 
 H                     4.31046   0.82364  -1.36582 
 
 ITRead=  0  0  0  0  0  0  0
 MicOpt= -1 -1 -1 -1 -1 -1 -1
 NAtoms=      7 NQM=        7 NQMF=       0 NMMI=      0 NMMIF=      0
                NMic=       0 NMicF=      0.
                    Isotopes and Nuclear Properties:
 (Nuclear quadrupole moments (NQMom) in fm**2, nuclear magnetic moments (NMagM)
  in nuclear magnetons)

  Atom         1           2           3           4           5           6           7
 IAtWgt=          12          32          12           1           1           1           1
 AtmWgt=  12.0000000  31.9720718  12.0000000   1.0078250   1.0078250   1.0078250   1.0078250
 NucSpn=           0           0           0           1           1           1           1
 AtZEff=  -0.0000000  -0.0000000  -0.0000000  -0.0000000  -0.0000000  -0.0000000  -0.0000000
 NQMom=    0.0000000   0.0000000   0.0000000   0.0000000   0.0000000   0.0000000   0.0000000
 NMagM=    0.0000000   0.0000000   0.0000000   2.7928460   2.7928460   2.7928460   2.7928460
 AtZNuc=   6.0000000  16.0000000   6.0000000   1.0000000   1.0000000   1.0000000   1.0000000
 Leave Link  101 at Tue Jan  3 09:05:21 2023, MaxMem=   536870912 cpu:               0.4 elap:               0.2
 (Enter /opt/software/gaussian/g16.c01/l202.exe)
                          Input orientation:                          
 ---------------------------------------------------------------------
 Center     Atomic      Atomic             Coordinates (Angstroms)
 Number     Number       Type             X           Y           Z
 ---------------------------------------------------------------------
      1          6           0        0.983833   -0.032559    0.048858
      2         16           0        2.607130    0.099200    0.018798
      3          6           0        3.227323    0.736198   -1.346005
      4          1           0        0.570421   -0.457530    0.959745
      5          1           0        0.343807    0.278223   -0.775492
      6          1           0        2.615219    1.056484   -2.187742
      7          1           0        4.310457    0.823643   -1.365823
 ---------------------------------------------------------------------
                    Distance matrix (angstroms):
                    1          2          3          4          5
     1  C    0.000000
     2  S    1.628913   0.000000
     3  C    2.751341   1.628832   0.000000
     4  H    1.086841   2.311604   3.714915   0.000000
     5  H    1.088931   2.405323   2.974876   1.898350   0.000000
     6  H    2.974864   2.405260   1.088933   4.047234   2.785579
     7  H    3.714948   2.311562   1.086839   4.586670   4.047257
                    6          7
     6  H    0.000000
     7  H    1.898314   0.000000
 Symmetry turned off by external request.
 Stoichiometry    C2H4S
 Rotational constants (GHZ):          32.8865896           8.4327606           6.7117401
 Leave Link  202 at Tue Jan  3 09:05:21 2023, MaxMem=   536870912 cpu:               0.0 elap:               0.0
 (Enter /opt/software/gaussian/g16.c01/l301.exe)
 General basis read from cards:  (5D, 7F)
 Centers:       4      5      6      7
 S 3 1.00
     Exponent=  3.4061341000D+01 Coefficients=  6.0251978000D-03
     Exponent=  5.1235746000D+00 Coefficients=  4.5021094000D-02
     Exponent=  1.1646626000D+00 Coefficients=  2.0189726000D-01
 S 1 1.00
     Exponent=  3.2723041000D-01 Coefficients=  1.0000000000D+00
 S 1 1.00
     Exponent=  1.0307241000D-01 Coefficients=  1.0000000000D+00
 P 1 1.00
     Exponent=  8.0000000000D-01 Coefficients=  1.0000000000D+00
 P 1 1.00
     Exponent=  9.5774129632D-02 Coefficients=  1.0000000000D+00
 ****
 Centers:       1      3
 S 6 1.00
     Exponent=  1.3575349682D+04 Coefficients=  2.2245814352D-04
     Exponent=  2.0352333680D+03 Coefficients=  1.7232738252D-03
     Exponent=  4.6322562359D+02 Coefficients=  8.9255715314D-03
     Exponent=  1.3120019598D+02 Coefficients=  3.5727984502D-02
     Exponent=  4.2853015891D+01 Coefficients=  1.1076259931D-01
     Exponent=  1.5584185766D+01 Coefficients=  2.4295627626D-01
 S 2 1.00
     Exponent=  6.2067138508D+00 Coefficients=  4.1440263448D-01
     Exponent=  2.5764896527D+00 Coefficients=  2.3744968655D-01
 S 1 1.00
     Exponent=  5.7696339419D-01 Coefficients=  1.0000000000D+00
 S 1 1.00
     Exponent=  2.2972831358D-01 Coefficients=  1.0000000000D+00
 S 1 1.00
     Exponent=  9.5164440028D-02 Coefficients=  1.0000000000D+00
 S 1 1.00
     Exponent=  4.8475401370D-02 Coefficients=  1.0000000000D+00
 P 4 1.00
     Exponent=  3.4697232244D+01 Coefficients=  5.3333657805D-03
     Exponent=  7.9582622826D+00 Coefficients=  3.5864109092D-02
     Exponent=  2.3780826883D+00 Coefficients=  1.4215873329D-01
     Exponent=  8.1433208183D-01 Coefficients=  3.4270471845D-01
 P 1 1.00
     Exponent=  2.8887547253D-01 Coefficients=  4.6445822433D-01
 P 1 1.00
     Exponent=  1.0056823671D-01 Coefficients=  2.4955789874D-01
 D 1 1.00
     Exponent=  1.0970000000D+00 Coefficients=  1.0000000000D+00
 D 1 1.00
     Exponent=  3.1800000000D-01 Coefficients=  1.0000000000D+00
 D 1 1.00
     Exponent=  9.0985336424D-02 Coefficients=  1.0000000000D+00
 F 1 1.00
     Exponent=  7.6100000000D-01 Coefficients=  1.0000000000D+00
 ****
 Centers:       2
 S 7 1.00
     Exponent=  6.0700928104D+04 Coefficients=  5.4695944225D-04
     Exponent=  9.1026106854D+03 Coefficients=  4.2297224557D-03
     Exponent=  2.0714166009D+03 Coefficients=  2.1747824159D-02
     Exponent=  5.8602476821D+02 Coefficients=  8.5100053589D-02
     Exponent=  1.9055395021D+02 Coefficients=  2.4799128459D-01
     Exponent=  6.7630384260D+01 Coefficients=  4.6703640406D-01
     Exponent=  2.5127306905D+01 Coefficients=  3.6434587550D-01
 S 3 1.00
     Exponent=  1.1257463010D+02 Coefficients=  2.1670040240D-02
     Exponent=  3.4795554217D+01 Coefficients=  9.3602301760D-02
     Exponent=  6.5115556215D+00 Coefficients= -2.6068001422D-01
 S 2 1.00
     Exponent=  3.2399032261D+00 Coefficients=  1.2842089435D+00
     Exponent=  1.5477160881D+00 Coefficients=  6.6036416584D-01
 S 1 1.00
     Exponent=  4.0541030112D-01 Coefficients=  1.0000000000D+00
 S 1 1.00
     Exponent=  1.4550651059D-01 Coefficients=  1.0000000000D+00
 S 1 1.00
     Exponent=  5.0178839540D-02 Coefficients=  1.0000000000D+00
 P 5 1.00
     Exponent=  5.6436716027D+02 Coefficients=  2.4796796317D-03
     Exponent=  1.3342624379D+02 Coefficients=  1.9677930250D-02
     Exponent=  4.2468271189D+01 Coefficients=  8.9980008258D-02
     Exponent=  1.5616527580D+01 Coefficients=  2.5705880575D-01
     Exponent=  6.1093988469D+00 Coefficients=  4.3515167292D-01
 P 1 1.00
     Exponent=  2.4404160198D+00 Coefficients=  3.4883240595D-01
 P 1 1.00
     Exponent=  8.3882201296D-01 Coefficients=  1.0000000000D+00
 P 1 1.00
     Exponent=  3.1288746900D-01 Coefficients=  1.0000000000D+00
 P 1 1.00
     Exponent=  1.0770109004D-01 Coefficients=  1.0000000000D+00
 P 1 1.00
     Exponent=  3.0359833649D-02 Coefficients=  1.0000000000D+00
 D 2 1.00
     Exponent=  3.7560000000D+00 Coefficients=  2.0000000000D-01
     Exponent=  8.1200000000D-01 Coefficients=  1.0000000000D+00
 D 1 1.00
     Exponent=  2.7300000000D-01 Coefficients=  1.0000000000D+00
 D 1 1.00
     Exponent=  8.1547024970D-02 Coefficients=  1.0000000000D+00
 F 1 1.00
     Exponent=  5.5700000000D-01 Coefficients=  1.0000000000D+00
 ****
 Ernie: Thresh=  0.10000D-02 Tol=  0.10000D-05 Strict=F.
   156 basis functions,   239 primitive gaussians,   174 cartesian basis functions
    16 alpha electrons       16 beta electrons
       nuclear repulsion energy       100.3080120317 Hartrees.
 IExCor=  402 DFT=T Ex+Corr=B3LYP ExCW=0 ScaHFX=  0.200000
 ScaDFX=  0.800000  0.720000  1.000000  0.810000 ScalE2=  1.000000  1.000000
 IRadAn=      5 IRanWt=     -1 IRanGd=            0 ICorTp=0 IEmpDi=  4
 NAtoms=    7 NActive=    7 NUniq=    7 SFac= 1.00D+00 NAtFMM=   60 NAOKFM=F Big=F
 Integral buffers will be    131072 words long.
 Raffenetti 2 integral format.
 Two-electron integral symmetry is turned off.
 Leave Link  301 at Tue Jan  3 09:05:21 2023, MaxMem=   536870912 cpu:               0.2 elap:               0.1
 (Enter /opt/software/gaussian/g16.c01/l302.exe)
 NPDir=0 NMtPBC=     1 NCelOv=     1 NCel=       1 NClECP=     1 NCelD=      1
         NCelK=      1 NCelE2=     1 NClLst=     1 CellRange=     0.0.
 One-electron integrals computed using PRISM.
 NBasis=   156 RedAO= T EigKep=  4.53D-05  NBF=   156
 NBsUse=   156 1.00D-06 EigRej= -1.00D+00 NBFU=   156
 Precomputing XC quadrature grid using
 IXCGrd= 4 IRadAn=           5 IRanWt=          -1 IRanGd=           0 AccXCQ= 0.00D+00.
 Generated NRdTot=       0 NPtTot=           0 NUsed=           0 NTot=          32
 NSgBfM=   174   173   173   174   174 MxSgAt=     7 MxSgA2=     7.
 Leave Link  302 at Tue Jan  3 09:05:21 2023, MaxMem=   536870912 cpu:               0.4 elap:               0.2
 (Enter /opt/software/gaussian/g16.c01/l303.exe)
 DipDrv:  MaxL=1.
 Leave Link  303 at Tue Jan  3 09:05:21 2023, MaxMem=   536870912 cpu:               0.1 elap:               0.0
 (Enter /opt/software/gaussian/g16.c01/l401.exe)
 ExpMin= 3.04D-02 ExpMax= 6.07D+04 ExpMxC= 2.07D+03 IAcc=3 IRadAn=         5 AccDes= 0.00D+00
 Harris functional with IExCor=  402 and IRadAn=       5 diagonalized for initial guess.
 HarFok:  IExCor=  402 AccDes= 0.00D+00 IRadAn=         5 IDoV= 1 UseB2=F ITyADJ=14
 ICtDFT=  3500011 ScaDFX=  1.000000  1.000000  1.000000  1.000000
 FoFCou: FMM=F IPFlag=           0 FMFlag=      100000 FMFlg1=           0
         NFxFlg=           0 DoJE=T BraDBF=F KetDBF=T FulRan=T
         wScrn=  0.000000 ICntrl=       500 IOpCl=  0 I1Cent=   200000004 NGrid=           0
         NMat0=    1 NMatS0=      1 NMatT0=    0 NMatD0=    1 NMtDS0=    0 NMtDT0=    0
 Symmetry not used in FoFCou.
 Harris En= -476.801696635485    
 JPrj=0 DoOrth=F DoCkMO=F.
 Initial guess <Sx>= 0.0000 <Sy>= 0.0000 <Sz>= 0.0000 <S**2>=-0.0000 S=-0.0000
 Leave Link  401 at Tue Jan  3 09:05:22 2023, MaxMem=   536870912 cpu:               1.8 elap:               0.9
 (Enter /opt/software/gaussian/g16.c01/l502.exe)
 Keep R1 and R2 ints in memory in canonical form, NReq=152656988.
 FoFCou: FMM=F IPFlag=           0 FMFlag=           0 FMFlg1=           0
         NFxFlg=           0 DoJE=F BraDBF=F KetDBF=F FulRan=T
         wScrn=  0.000000 ICntrl=       600 IOpCl=  0 I1Cent=           0 NGrid=           0
         NMat0=    1 NMatS0=  12246 NMatT0=    0 NMatD0=    1 NMtDS0=    0 NMtDT0=    0
 Symmetry not used in FoFCou.
 Two-electron integral symmetry not used.
 UHF open shell SCF:
 Using DIIS extrapolation, IDIIS=  1040.
 NGot=   536870912 LenX=   386831154 LenY=   386800437
 Requested convergence on RMS density matrix=1.00D-08 within 128 cycles.
 Requested convergence on MAX density matrix=1.00D-06.
 Requested convergence on             energy=1.00D-06.
 No special actions if energy rises.

 Cycle   1  Pass 1  IDiag  1:
 E= -476.591893756436    
 DIIS: error= 4.52D-02 at cycle   1 NSaved=   1.
 NSaved= 1 IEnMin= 1 EnMin= -476.591893756436     IErMin= 1 ErrMin= 4.52D-02
 ErrMax= 4.52D-02  0.00D+00 EMaxC= 1.00D-01 BMatC= 8.86D-01 BMatP= 8.86D-01
 IDIUse=3 WtCom= 5.48D-01 WtEn= 4.52D-01
 Coeff-Com:  0.100D+01
 Coeff-En:   0.100D+01
 Coeff:      0.100D+01
 Gap=     0.039 Goal=   None    Shift=    0.000
 Gap=     0.039 Goal=   None    Shift=    0.000
 GapD=    0.039 DampG=0.250 DampE=0.500 DampFc=0.2500 IDamp=-1.
 Damping current iteration by 2.50D-01
 RMSDP=4.29D-03 MaxDP=1.28D-01              OVMax= 3.90D-01

 Cycle   2  Pass 1  IDiag  1:
 E= -476.670341092467     Delta-E=       -0.078447336031 Rises=F Damp=T
 DIIS: error= 1.85D-02 at cycle   2 NSaved=   2.
 NSaved= 2 IEnMin= 2 EnMin= -476.670341092467     IErMin= 2 ErrMin= 1.85D-02
 ErrMax= 1.85D-02  0.00D+00 EMaxC= 1.00D-01 BMatC= 1.58D-01 BMatP= 8.86D-01
 IDIUse=3 WtCom= 8.15D-01 WtEn= 1.85D-01
 Coeff-Com: -0.644D+00 0.164D+01
 Coeff-En:   0.000D+00 0.100D+01
 Coeff:     -0.525D+00 0.153D+01
 Gap=     0.132 Goal=   None    Shift=    0.000
 Gap=     0.132 Goal=   None    Shift=    0.000
 RMSDP=1.14D-03 MaxDP=3.31D-02 DE=-7.84D-02 OVMax= 2.24D-01

 Cycle   3  Pass 1  IDiag  1:
 E= -476.789240241128     Delta-E=       -0.118899148661 Rises=F Damp=F
 DIIS: error= 5.37D-03 at cycle   3 NSaved=   3.
 NSaved= 3 IEnMin= 3 EnMin= -476.789240241128     IErMin= 3 ErrMin= 5.37D-03
 ErrMax= 5.37D-03  0.00D+00 EMaxC= 1.00D-01 BMatC= 1.02D-02 BMatP= 1.58D-01
 IDIUse=3 WtCom= 9.46D-01 WtEn= 5.37D-02
 Coeff-Com: -0.587D-01 0.298D+00 0.761D+00
 Coeff-En:   0.000D+00 0.000D+00 0.100D+01
 Coeff:     -0.555D-01 0.282D+00 0.774D+00
 Gap=     0.144 Goal=   None    Shift=    0.000
 Gap=     0.144 Goal=   None    Shift=    0.000
 RMSDP=3.20D-04 MaxDP=6.63D-03 DE=-1.19D-01 OVMax= 1.87D-02

 Cycle   4  Pass 1  IDiag  1:
 E= -476.791547763059     Delta-E=       -0.002307521931 Rises=F Damp=F
 DIIS: error= 1.52D-03 at cycle   4 NSaved=   4.
 NSaved= 4 IEnMin= 4 EnMin= -476.791547763059     IErMin= 4 ErrMin= 1.52D-03
 ErrMax= 1.52D-03  0.00D+00 EMaxC= 1.00D-01 BMatC= 9.13D-04 BMatP= 1.02D-02
 IDIUse=3 WtCom= 9.85D-01 WtEn= 1.52D-02
 Coeff-Com:  0.361D-01-0.356D-01 0.288D+00 0.711D+00
 Coeff-En:   0.000D+00 0.000D+00 0.000D+00 0.100D+01
 Coeff:      0.356D-01-0.350D-01 0.284D+00 0.716D+00
 Gap=     0.145 Goal=   None    Shift=    0.000
 Gap=     0.145 Goal=   None    Shift=    0.000
 RMSDP=9.21D-05 MaxDP=3.59D-03 DE=-2.31D-03 OVMax= 5.23D-03

 Cycle   5  Pass 1  IDiag  1:
 E= -476.791791805862     Delta-E=       -0.000244042803 Rises=F Damp=F
 DIIS: error= 2.57D-04 at cycle   5 NSaved=   5.
 NSaved= 5 IEnMin= 5 EnMin= -476.791791805862     IErMin= 5 ErrMin= 2.57D-04
 ErrMax= 2.57D-04  0.00D+00 EMaxC= 1.00D-01 BMatC= 3.28D-05 BMatP= 9.13D-04
 IDIUse=3 WtCom= 9.97D-01 WtEn= 2.57D-03
 Coeff-Com:  0.168D-01-0.214D-01 0.105D+00 0.289D+00 0.611D+00
 Coeff-En:   0.000D+00 0.000D+00 0.000D+00 0.000D+00 0.100D+01
 Coeff:      0.168D-01-0.213D-01 0.104D+00 0.288D+00 0.612D+00
 Gap=     0.145 Goal=   None    Shift=    0.000
 Gap=     0.145 Goal=   None    Shift=    0.000
 RMSDP=1.82D-05 MaxDP=8.64D-04 DE=-2.44D-04 OVMax= 1.07D-03

 Cycle   6  Pass 1  IDiag  1:
 E= -476.791799577256     Delta-E=       -0.000007771393 Rises=F Damp=F
 DIIS: error= 6.80D-05 at cycle   6 NSaved=   6.
 NSaved= 6 IEnMin= 6 EnMin= -476.791799577256     IErMin= 6 ErrMin= 6.80D-05
 ErrMax= 6.80D-05  0.00D+00 EMaxC= 1.00D-01 BMatC= 2.22D-06 BMatP= 3.28D-05
 IDIUse=1 WtCom= 1.00D+00 WtEn= 0.00D+00
 Coeff-Com:  0.351D-02-0.535D-02 0.132D-01 0.344D-01 0.215D+00 0.739D+00
 Coeff:      0.351D-02-0.535D-02 0.132D-01 0.344D-01 0.215D+00 0.739D+00
 Gap=     0.145 Goal=   None    Shift=    0.000
 Gap=     0.145 Goal=   None    Shift=    0.000
 RMSDP=6.24D-06 MaxDP=2.99D-04 DE=-7.77D-06 OVMax= 7.17D-04

 Cycle   7  Pass 1  IDiag  1:
 E= -476.791799774462     Delta-E=       -0.000000197206 Rises=F Damp=F
 DIIS: error= 8.83D-05 at cycle   7 NSaved=   7.
 NSaved= 7 IEnMin= 7 EnMin= -476.791799774462     IErMin= 6 ErrMin= 6.80D-05
 ErrMax= 8.83D-05  0.00D+00 EMaxC= 1.00D-01 BMatC= 1.36D-06 BMatP= 2.22D-06
 IDIUse=1 WtCom= 1.00D+00 WtEn= 0.00D+00
 Coeff-Com:  0.191D-02-0.307D-02 0.560D-02 0.131D-01 0.127D+00 0.534D+00
 Coeff-Com:  0.322D+00
 Coeff:      0.191D-02-0.307D-02 0.560D-02 0.131D-01 0.127D+00 0.534D+00
 Coeff:      0.322D+00
 Gap=     0.145 Goal=   None    Shift=    0.000
 Gap=     0.145 Goal=   None    Shift=    0.000
 RMSDP=3.19D-06 MaxDP=9.36D-05 DE=-1.97D-07 OVMax= 5.46D-04

 Cycle   8  Pass 1  IDiag  1:
 E= -476.791800164074     Delta-E=       -0.000000389612 Rises=F Damp=F
 DIIS: error= 1.94D-05 at cycle   8 NSaved=   8.
 NSaved= 8 IEnMin= 8 EnMin= -476.791800164074     IErMin= 8 ErrMin= 1.94D-05
 ErrMax= 1.94D-05  0.00D+00 EMaxC= 1.00D-01 BMatC= 7.77D-08 BMatP= 1.36D-06
 IDIUse=1 WtCom= 1.00D+00 WtEn= 0.00D+00
 Coeff-Com:  0.292D-03-0.511D-03 0.479D-03-0.571D-03 0.156D-01 0.119D+00
 Coeff-Com:  0.204D+00 0.662D+00
 Coeff:      0.292D-03-0.511D-03 0.479D-03-0.571D-03 0.156D-01 0.119D+00
 Coeff:      0.204D+00 0.662D+00
 Gap=     0.145 Goal=   None    Shift=    0.000
 Gap=     0.145 Goal=   None    Shift=    0.000
 RMSDP=7.78D-07 MaxDP=1.83D-05 DE=-3.90D-07 OVMax= 1.01D-04

 Cycle   9  Pass 1  IDiag  1:
 E= -476.791800187517     Delta-E=       -0.000000023443 Rises=F Damp=F
 DIIS: error= 5.70D-07 at cycle   9 NSaved=   9.
 NSaved= 9 IEnMin= 9 EnMin= -476.791800187517     IErMin= 9 ErrMin= 5.70D-07
 ErrMax= 5.70D-07  0.00D+00 EMaxC= 1.00D-01 BMatC= 2.77D-10 BMatP= 7.77D-08
 IDIUse=1 WtCom= 1.00D+00 WtEn= 0.00D+00
 Coeff-Com: -0.487D-04 0.773D-04-0.183D-03-0.864D-03-0.278D-02-0.453D-03
 Coeff-Com:  0.211D-01 0.106D+00 0.877D+00
 Coeff:     -0.487D-04 0.773D-04-0.183D-03-0.864D-03-0.278D-02-0.453D-03
 Coeff:      0.211D-01 0.106D+00 0.877D+00
 Gap=     0.145 Goal=   None    Shift=    0.000
 Gap=     0.145 Goal=   None    Shift=    0.000
 RMSDP=7.54D-08 MaxDP=1.78D-06 DE=-2.34D-08 OVMax= 4.78D-06

 Cycle  10  Pass 1  IDiag  1:
 E= -476.791800187571     Delta-E=       -0.000000000054 Rises=F Damp=F
 DIIS: error= 2.52D-07 at cycle  10 NSaved=  10.
 NSaved=10 IEnMin=10 EnMin= -476.791800187571     IErMin=10 ErrMin= 2.52D-07
 ErrMax= 2.52D-07  0.00D+00 EMaxC= 1.00D-01 BMatC= 2.11D-11 BMatP= 2.77D-10
 IDIUse=1 WtCom= 1.00D+00 WtEn= 0.00D+00
 Coeff-Com:  0.322D-06-0.327D-06-0.170D-04-0.363D-04-0.310D-03-0.335D-02
 Coeff-Com: -0.261D-02-0.278D-02 0.852D-01 0.924D+00
 Coeff:      0.322D-06-0.327D-06-0.170D-04-0.363D-04-0.310D-03-0.335D-02
 Coeff:     -0.261D-02-0.278D-02 0.852D-01 0.924D+00
 Gap=     0.145 Goal=   None    Shift=    0.000
 Gap=     0.145 Goal=   None    Shift=    0.000
 RMSDP=1.41D-08 MaxDP=6.70D-07 DE=-5.41D-11 OVMax= 6.88D-07

 Cycle  11  Pass 1  IDiag  1:
 E= -476.791800187582     Delta-E=       -0.000000000011 Rises=F Damp=F
 DIIS: error= 1.55D-08 at cycle  11 NSaved=  11.
 NSaved=11 IEnMin=11 EnMin= -476.791800187582     IErMin=11 ErrMin= 1.55D-08
 ErrMax= 1.55D-08  0.00D+00 EMaxC= 1.00D-01 BMatC= 5.76D-14 BMatP= 2.11D-11
 IDIUse=1 WtCom= 1.00D+00 WtEn= 0.00D+00
 Coeff-Com:  0.567D-06-0.793D-06-0.978D-07 0.506D-05 0.305D-05-0.191D-03
 Coeff-Com: -0.520D-03-0.197D-02-0.559D-02 0.779D-01 0.930D+00
 Coeff:      0.567D-06-0.793D-06-0.978D-07 0.506D-05 0.305D-05-0.191D-03
 Coeff:     -0.520D-03-0.197D-02-0.559D-02 0.779D-01 0.930D+00
 Gap=     0.145 Goal=   None    Shift=    0.000
 Gap=     0.145 Goal=   None    Shift=    0.000
 RMSDP=1.46D-09 MaxDP=3.25D-08 DE=-1.11D-11 OVMax= 8.10D-08

 SCF Done:  E(UB3LYP) =  -476.791800188     A.U. after   11 cycles
            NFock= 11  Conv=0.15D-08     -V/T= 2.0025
 <Sx>= 0.0000 <Sy>= 0.0000 <Sz>= 0.0000 <S**2>=-0.0000 S=-0.0000
 <L.S>=  0.00000000000    
 KE= 4.755906531191D+02 PE=-1.328858243437D+03 EE= 2.761677780984D+02
 Annihilation of the first spin contaminant:
 S**2 before annihilation    -0.0000,   after    -0.0000
 Leave Link  502 at Tue Jan  3 09:05:43 2023, MaxMem=   536870912 cpu:              39.3 elap:              21.1
 (Enter /opt/software/gaussian/g16.c01/l508.exe)
 QCSCF skips out because SCF is already converged.
 Leave Link  508 at Tue Jan  3 09:05:43 2023, MaxMem=   536870912 cpu:               0.0 elap:               0.0
 (Enter /opt/software/gaussian/g16.c01/l601.exe)
 Copying SCF densities to generalized density rwf, IOpCl= 1 IROHF=0.

 **********************************************************************

            Population analysis using the SCF Density.

 **********************************************************************

 Alpha  occ. eigenvalues --  -88.91973 -10.18752 -10.18751  -7.99226  -5.95317
 Alpha  occ. eigenvalues --   -5.95269  -5.94959  -0.85258  -0.70015  -0.57520
 Alpha  occ. eigenvalues --   -0.47267  -0.46421  -0.40846  -0.36241  -0.33726
 Alpha  occ. eigenvalues --   -0.20465
 Alpha virt. eigenvalues --   -0.05982   0.00751   0.01368   0.02243   0.03918
 Alpha virt. eigenvalues --    0.05713   0.06279   0.07419   0.07728   0.10444
 Alpha virt. eigenvalues --    0.13044   0.13321   0.13707   0.14852   0.16374
 Alpha virt. eigenvalues --    0.17066   0.18616   0.19193   0.19714   0.20317
 Alpha virt. eigenvalues --    0.21974   0.24581   0.25499   0.26331   0.28013
 Alpha virt. eigenvalues --    0.29154   0.29448   0.29758   0.30370   0.32910
 Alpha virt. eigenvalues --    0.33032   0.34953   0.35712   0.35975   0.37504
 Alpha virt. eigenvalues --    0.37868   0.38501   0.39470   0.41843   0.44592
 Alpha virt. eigenvalues --    0.45357   0.47178   0.49435   0.50522   0.50678
 Alpha virt. eigenvalues --    0.51649   0.52651   0.54679   0.57965   0.61278
 Alpha virt. eigenvalues --    0.61853   0.64272   0.67330   0.68997   0.69248
 Alpha virt. eigenvalues --    0.69812   0.71901   0.74685   0.80757   0.83401
 Alpha virt. eigenvalues --    0.84267   0.91017   0.95705   0.97933   0.98521
 Alpha virt. eigenvalues --    1.07563   1.10829   1.11584   1.14825   1.19455
 Alpha virt. eigenvalues --    1.22980   1.52482   1.54785   1.56069   1.58869
 Alpha virt. eigenvalues --    1.60669   1.61260   1.61769   1.65421   1.69666
 Alpha virt. eigenvalues --    1.71841   1.76589   1.82440   1.83601   1.84492
 Alpha virt. eigenvalues --    1.86371   1.86678   1.87846   1.93361   1.94631
 Alpha virt. eigenvalues --    1.99520   2.07058   2.08981   2.11216   2.11824
 Alpha virt. eigenvalues --    2.19048   2.19577   2.21576   2.38942   2.40005
 Alpha virt. eigenvalues --    2.48811   2.51718   2.56760   2.64485   2.67605
 Alpha virt. eigenvalues --    2.72253   2.77547   2.79781   2.83023   2.90647
 Alpha virt. eigenvalues --    3.05965   3.10278   3.11166   3.13747   3.16429
 Alpha virt. eigenvalues --    3.19981   3.20718   3.31685   3.31700   3.37502
 Alpha virt. eigenvalues --    3.40583   3.40897   3.48715   3.49141   3.55010
 Alpha virt. eigenvalues --    3.63332   3.69030   3.70932   3.87026   3.92710
 Alpha virt. eigenvalues --    4.19843   4.21883   4.59580   4.60964   8.93247
 Alpha virt. eigenvalues --    9.22175   9.57108  20.72138  22.19829  22.24505
  Beta  occ. eigenvalues --  -88.91973 -10.18752 -10.18751  -7.99226  -5.95317
  Beta  occ. eigenvalues --   -5.95269  -5.94959  -0.85258  -0.70015  -0.57520
  Beta  occ. eigenvalues --   -0.47267  -0.46421  -0.40846  -0.36241  -0.33726
  Beta  occ. eigenvalues --   -0.20465
  Beta virt. eigenvalues --   -0.05982   0.00751   0.01368   0.02243   0.03918
  Beta virt. eigenvalues --    0.05713   0.06279   0.07419   0.07728   0.10444
  Beta virt. eigenvalues --    0.13044   0.13321   0.13707   0.14852   0.16374
  Beta virt. eigenvalues --    0.17066   0.18616   0.19193   0.19714   0.20317
  Beta virt. eigenvalues --    0.21974   0.24581   0.25499   0.26331   0.28013
  Beta virt. eigenvalues --    0.29154   0.29448   0.29758   0.30370   0.32910
  Beta virt. eigenvalues --    0.33032   0.34953   0.35712   0.35975   0.37504
  Beta virt. eigenvalues --    0.37868   0.38501   0.39470   0.41843   0.44592
  Beta virt. eigenvalues --    0.45357   0.47178   0.49435   0.50522   0.50678
  Beta virt. eigenvalues --    0.51649   0.52651   0.54679   0.57965   0.61278
  Beta virt. eigenvalues --    0.61853   0.64272   0.67330   0.68997   0.69248
  Beta virt. eigenvalues --    0.69812   0.71901   0.74685   0.80757   0.83401
  Beta virt. eigenvalues --    0.84267   0.91017   0.95705   0.97933   0.98521
  Beta virt. eigenvalues --    1.07563   1.10829   1.11584   1.14825   1.19455
  Beta virt. eigenvalues --    1.22980   1.52482   1.54785   1.56069   1.58869
  Beta virt. eigenvalues --    1.60669   1.61260   1.61769   1.65421   1.69666
  Beta virt. eigenvalues --    1.71841   1.76589   1.82440   1.83601   1.84492
  Beta virt. eigenvalues --    1.86371   1.86678   1.87846   1.93361   1.94631
  Beta virt. eigenvalues --    1.99520   2.07058   2.08981   2.11216   2.11824
  Beta virt. eigenvalues --    2.19048   2.19577   2.21576   2.38942   2.40005
  Beta virt. eigenvalues --    2.48811   2.51718   2.56760   2.64485   2.67605
  Beta virt. eigenvalues --    2.72253   2.77547   2.79781   2.83023   2.90647
  Beta virt. eigenvalues --    3.05965   3.10278   3.11166   3.13747   3.16429
  Beta virt. eigenvalues --    3.19981   3.20718   3.31685   3.31700   3.37502
  Beta virt. eigenvalues --    3.40583   3.40897   3.48715   3.49141   3.55010
  Beta virt. eigenvalues --    3.63332   3.69030   3.70932   3.87026   3.92710
  Beta virt. eigenvalues --    4.19843   4.21883   4.59580   4.60964   8.93247
  Beta virt. eigenvalues --    9.22175   9.57108  20.72138  22.19829  22.24505
          Condensed to atoms (all electrons):
               1          2          3          4          5          6
     1  C    5.403259   0.362106  -0.053819   0.403595   0.386825  -0.000090
     2  S    0.362106  15.270270   0.362083  -0.040999  -0.012480  -0.012486
     3  C   -0.053819   0.362083   5.403191   0.001653  -0.000090   0.386824
     4  H    0.403595  -0.040999   0.001653   0.424027  -0.007355  -0.000106
     5  H    0.386825  -0.012480  -0.000090  -0.007355   0.405157  -0.000035
     6  H   -0.000090  -0.012486   0.386824  -0.000106  -0.000035   0.405172
     7  H    0.001655  -0.040998   0.403597   0.000032  -0.000106  -0.007357
               7
     1  C    0.001655
     2  S   -0.040998
     3  C    0.403597
     4  H    0.000032
     5  H   -0.000106
     6  H   -0.007357
     7  H    0.424023
          Atomic-Atomic Spin Densities.
               1          2          3          4          5          6
     1  C    0.000000  -0.000000  -0.000000  -0.000000   0.000000  -0.000000
     2  S   -0.000000  -0.000000   0.000000   0.000000  -0.000000  -0.000000
     3  C   -0.000000   0.000000  -0.000000  -0.000000   0.000000   0.000000
     4  H   -0.000000   0.000000  -0.000000  -0.000000   0.000000  -0.000000
     5  H    0.000000  -0.000000   0.000000   0.000000  -0.000000  -0.000000
     6  H   -0.000000  -0.000000   0.000000  -0.000000  -0.000000   0.000000
     7  H    0.000000  -0.000000   0.000000   0.000000  -0.000000   0.000000
               7
     1  C    0.000000
     2  S   -0.000000
     3  C    0.000000
     4  H    0.000000
     5  H   -0.000000
     6  H    0.000000
     7  H    0.000000
 Mulliken charges and spin densities:
               1          2
     1  C   -0.503531   0.000000
     2  S    0.112504  -0.000000
     3  C   -0.503440  -0.000000
     4  H    0.219152  -0.000000
     5  H    0.228084   0.000000
     6  H    0.228077   0.000000
     7  H    0.219153   0.000000
 Sum of Mulliken charges =  -0.00000   0.00000
 Mulliken charges and spin densities with hydrogens summed into heavy atoms:
               1          2
     1  C   -0.056295   0.000000
     2  S    0.112504  -0.000000
     3  C   -0.056209   0.000000
 Electronic spatial extent (au):  <R**2>=            871.5043
 Charge=             -0.0000 electrons
 Dipole moment (field-independent basis, Debye):
    X=             -0.1769    Y=              0.0894    Z=             -0.2358  Tot=              0.3080
 Quadrupole moment (field-independent basis, Debye-Ang):
   XX=            -25.6072   YY=            -28.6230   ZZ=            -25.3407
   XY=              0.4566   XZ=             -0.3793   YZ=             -1.7758
 Traceless Quadrupole moment (field-independent basis, Debye-Ang):
   XX=              0.9164   YY=             -2.0994   ZZ=              1.1830
   XY=              0.4566   XZ=             -0.3793   YZ=             -1.7758
 Octapole moment (field-independent basis, Debye-Ang**2):
  XXX=           -174.3007  YYY=            -21.5052  ZZZ=             26.7039  XYY=            -66.2852
  XXY=             -3.8369  XXZ=              7.2303  XZZ=            -61.4767  YZZ=             -4.1870
  YYZ=              9.8100  XYZ=             -3.0079
 Hexadecapole moment (field-independent basis, Debye-Ang**3):
 XXXX=           -959.5629 YYYY=            -70.5511 ZZZZ=           -124.0729 XXXY=            -47.0610
 XXXZ=             79.9333 YYYX=            -71.0899 YYYZ=             26.9110 ZZZX=             93.2851
 ZZZY=             17.3962 XXYY=           -196.4501 XXZZ=           -196.3384 YYZZ=            -31.1425
 XXYZ=             -0.7878 YYXZ=             33.4462 ZZXY=            -13.9187
 N-N= 1.003080120317D+02 E-N=-1.328858245041D+03  KE= 4.755906531190D+02
                          Isotropic Fermi Contact Couplings
        Atom                 a.u.       MegaHertz       Gauss      10(-4) cm-1
     1  C(13)             -0.00000      -0.00000      -0.00000      -0.00000
     2  S(33)             -0.00000      -0.00000      -0.00000      -0.00000
     3  C(13)             -0.00000      -0.00000      -0.00000      -0.00000
     4  H(1)              -0.00000      -0.00000      -0.00000      -0.00000
     5  H(1)              -0.00000      -0.00000      -0.00000      -0.00000
     6  H(1)              -0.00000      -0.00000      -0.00000      -0.00000
     7  H(1)              -0.00000      -0.00000      -0.00000      -0.00000
 --------------------------------------------------------
       Center         ----  Spin Dipole Couplings  ----
                      3XX-RR        3YY-RR        3ZZ-RR
 --------------------------------------------------------
     1   Atom        0.000000     -0.000000     -0.000000
     2   Atom       -0.000000      0.000000      0.000000
     3   Atom       -0.000000      0.000000      0.000000
     4   Atom       -0.000000      0.000000     -0.000000
     5   Atom       -0.000000      0.000000      0.000000
     6   Atom       -0.000000     -0.000000      0.000000
     7   Atom        0.000000     -0.000000     -0.000000
 --------------------------------------------------------
                        XY            XZ            YZ
 --------------------------------------------------------
     1   Atom        0.000000     -0.000000      0.000000
     2   Atom       -0.000000      0.000000     -0.000000
     3   Atom        0.000000     -0.000000      0.000000
     4   Atom       -0.000000      0.000000      0.000000
     5   Atom        0.000000     -0.000000     -0.000000
     6   Atom       -0.000000      0.000000     -0.000000
     7   Atom       -0.000000      0.000000      0.000000
 --------------------------------------------------------


 ---------------------------------------------------------------------------------
              Anisotropic Spin Dipole Couplings in Principal Axis System
 ---------------------------------------------------------------------------------

       Atom             a.u.   MegaHertz   Gauss  10(-4) cm-1        Axes

              Baa    -0.0000    -0.000    -0.000    -0.000 -0.0987  0.8538 -0.5111
     1 C(13)  Bbb    -0.0000    -0.000    -0.000    -0.000 -0.0181  0.5120  0.8588
              Bcc     0.0000     0.000     0.000     0.000  0.9949  0.0941 -0.0351
 
              Baa    -0.0000    -0.000    -0.000    -0.000  0.9813  0.1488 -0.1221
     2 S(33)  Bbb     0.0000     0.000     0.000     0.000 -0.1039  0.9433  0.3152
              Bcc     0.0000     0.000     0.000     0.000  0.1621 -0.2966  0.9411
 
              Baa    -0.0000    -0.000    -0.000    -0.000  0.9212 -0.1458  0.3607
     3 C(13)  Bbb     0.0000     0.000     0.000     0.000  0.2976  0.8613 -0.4117
              Bcc     0.0000     0.000     0.000     0.000 -0.2507  0.4866  0.8369
 
              Baa    -0.0000    -0.000    -0.000    -0.000 -0.2977 -0.5425  0.7856
     4 H(1)   Bbb     0.0000     0.000     0.000     0.000  0.9497 -0.0848  0.3013
              Bcc     0.0000     0.000     0.000     0.000 -0.0969  0.8358  0.5404
 
              Baa    -0.0000    -0.000    -0.000    -0.000  0.8700  0.1327  0.4749
     5 H(1)   Bbb     0.0000     0.000     0.000     0.000 -0.3181  0.8869  0.3349
              Bcc     0.0000     0.000     0.000     0.000 -0.3767 -0.4424  0.8138
 
              Baa    -0.0000    -0.000    -0.000    -0.000  0.7988  0.4529 -0.3960
     6 H(1)   Bbb    -0.0000    -0.000    -0.000    -0.000 -0.2382  0.8425  0.4831
              Bcc     0.0000     0.000     0.000     0.000  0.5524 -0.2916  0.7809
 
              Baa    -0.0000    -0.000    -0.000    -0.000 -0.3022 -0.5720  0.7625
     7 H(1)   Bbb    -0.0000    -0.000    -0.000    -0.000 -0.1516  0.8186  0.5540
              Bcc     0.0000     0.000     0.000     0.000  0.9411 -0.0518  0.3341
 

 ---------------------------------------------------------------------------------

 No NMR shielding tensors so no spin-rotation constants.
 Leave Link  601 at Tue Jan  3 09:05:44 2023, MaxMem=   536870912 cpu:               0.5 elap:               0.3
 (Enter /opt/software/gaussian/g16.c01/l801.exe)
 DoSCS=F DFT=T ScalE2(SS,OS)=  1.000000  1.000000
 Range of M.O.s used for correlation:     1   156
 NBasis=   156 NAE=    16 NBE=    16 NFC=     0 NFV=     0
 NROrb=    156 NOA=    16 NOB=    16 NVA=   140 NVB=   140

 **** Warning!!: The largest alpha MO coefficient is  0.42090610D+02


 **** Warning!!: The largest beta MO coefficient is  0.42090610D+02

 Leave Link  801 at Tue Jan  3 09:05:44 2023, MaxMem=   536870912 cpu:               0.1 elap:               0.0
 (Enter /opt/software/gaussian/g16.c01/l914.exe)
 UHF ground state
 Doing stability rather than CIS.
 Keep R1 and R2 ints in memory in canonical form, NReq=156382134.
 FoFCou: FMM=F IPFlag=           0 FMFlag=           0 FMFlg1=           0
         NFxFlg=           0 DoJE=F BraDBF=F KetDBF=F FulRan=T
         wScrn=  0.000000 ICntrl=       600 IOpCl=  0 I1Cent=           0 NGrid=           0
         NMat0=    1 NMatS0=  12246 NMatT0=    0 NMatD0=    1 NMtDS0=    0 NMtDT0=    0
 Symmetry not used in FoFCou.
 Two-electron integral symmetry not used.
 MDV=   536870912 DFT=T DoStab=T Mixed=T DoRPA=F DoScal=F NonHer=F
 Making orbital integer symmetry assigments:
    12 initial guesses have been made.
 Convergence on wavefunction:    0.001000000000000
 Davidson Disk Diagonalization:  ConvIn= 1.00D-03 SkipCon=T Conv= 1.00D-03.
 Max sub-space:  2000 roots to seek:    12 dimension of matrix:         4480
 Iteration     1 Dimension    12 NMult     0 NNew     12
 CISAX will form    12 AO SS matrices at one time.
 NMat=    12 NSing=    12 JSym2X= 0.
 Excitation Energies [eV] at current iteration:
 Root      1 :     0.906252732817074
 Root      2 :     4.689157551301294
 Root      3 :     4.864614341102047
 Root      4 :     4.875603798545812
 Root      5 :     5.140634303290305
 Root      6 :     5.289518639577307
 Root      7 :     5.328574311009983
 Root      8 :     5.675054901438921
 Root      9 :     5.703055090732239
 Root     10 :     5.716322190685215
 Root     11 :     5.951397818975178
 Root     12 :    10.554222603223499
 Iteration     2 Dimension    24 NMult    12 NNew     12
 CISAX will form    12 AO SS matrices at one time.
 NMat=    12 NSing=    12 JSym2X= 0.
 Root      1 not converged, maximum delta is    0.074104380161971
 Excitation Energies [eV] at current iteration:
 Root      1 :     0.511120763836124   Change is   -0.395131968980950
 Root      2 :     4.545487428518124   Change is   -0.143670122783170
 Root      3 :     4.622642220559044   Change is   -0.252961577986768
 Root      4 :     4.836822436135782   Change is   -0.027791904966265
 Root      5 :     5.082080677715164   Change is   -0.058553625575141
 Root      6 :     5.213503983101388   Change is   -0.076014656475919
 Root      7 :     5.304034361644863   Change is   -0.024539949365120
 Root      8 :     5.359242551234392   Change is   -0.315812350204529
 Root      9 :     5.410266044080774   Change is   -0.292789046651466
 Root     10 :     5.657873591921369   Change is   -0.058448598763846
 Root     11 :     5.879577092311859   Change is   -0.071820726663320
 Root     12 :     6.422391337293734   Change is   -4.131831265929764
 Iteration     3 Dimension    27 NMult    24 NNew      3
 CISAX will form     3 AO SS matrices at one time.
 NMat=     3 NSing=     3 JSym2X= 0.
 Root      1 not converged, maximum delta is    0.003403470206067
 Excitation Energies [eV] at current iteration:
 Root      1 :     0.506628918122930   Change is   -0.004491845713193
 Root      2 :     4.540847510488135   Change is   -0.004639918029989
 Root      3 :     4.574927212896665   Change is   -0.047715007662378
 Iteration     4 Dimension    30 NMult    27 NNew      3
 CISAX will form     3 AO SS matrices at one time.
 NMat=     3 NSing=     3 JSym2X= 0.
 Root      1 has converged.
 Excitation Energies [eV] at current iteration:
 Root      1 :     0.506521281724641   Change is   -0.000107636398290
 Root      2 :     4.540612657511454   Change is   -0.000234852976680
 Root      3 :     4.548041876989458   Change is   -0.026885335907207
 Convergence achieved on expansion vectors.
 ***********************************************************************
 Stability analysis using <AA,BB:AA,BB> singles matrix:
 ***********************************************************************
 1PDM for each excited state written to RWF  633
 Ground to excited state transition densities written to RWF  633

 Eigenvectors of the stability matrix:
 
 Excited state symmetry could not be determined.
 Eigenvector   1:  3.000-?Sym  Eigenvalue= 0.0186143  <S**2>=2.000
     16A -> 17A        0.69242
     16B -> 17B       -0.69242
 The wavefunction is stable under the perturbations considered.
 Leave Link  914 at Tue Jan  3 09:07:10 2023, MaxMem=   536870912 cpu:             172.2 elap:              86.1
 (Enter /opt/software/gaussian/g16.c01/l508.exe)
 The wavefunction is already stable.
 Leave Link  508 at Tue Jan  3 09:07:10 2023, MaxMem=   536870912 cpu:               0.0 elap:               0.0
 (Enter /opt/software/gaussian/g16.c01/l601.exe)
 Copying SCF densities to generalized density rwf, IOpCl= 1 IROHF=0.

 **********************************************************************

            Population analysis using the SCF Density.

 **********************************************************************

 Alpha  occ. eigenvalues --  -88.91973 -10.18752 -10.18751  -7.99226  -5.95317
 Alpha  occ. eigenvalues --   -5.95269  -5.94959  -0.85258  -0.70015  -0.57520
 Alpha  occ. eigenvalues --   -0.47267  -0.46421  -0.40846  -0.36241  -0.33726
 Alpha  occ. eigenvalues --   -0.20465
 Alpha virt. eigenvalues --   -0.05982   0.00751   0.01368   0.02243   0.03918
 Alpha virt. eigenvalues --    0.05713   0.06279   0.07419   0.07728   0.10444
 Alpha virt. eigenvalues --    0.13044   0.13321   0.13707   0.14852   0.16374
 Alpha virt. eigenvalues --    0.17066   0.18616   0.19193   0.19714   0.20317
 Alpha virt. eigenvalues --    0.21974   0.24581   0.25499   0.26331   0.28013
 Alpha virt. eigenvalues --    0.29154   0.29448   0.29758   0.30370   0.32910
 Alpha virt. eigenvalues --    0.33032   0.34953   0.35712   0.35975   0.37504
 Alpha virt. eigenvalues --    0.37868   0.38501   0.39470   0.41843   0.44592
 Alpha virt. eigenvalues --    0.45357   0.47178   0.49435   0.50522   0.50678
 Alpha virt. eigenvalues --    0.51649   0.52651   0.54679   0.57965   0.61278
 Alpha virt. eigenvalues --    0.61853   0.64272   0.67330   0.68997   0.69248
 Alpha virt. eigenvalues --    0.69812   0.71901   0.74685   0.80757   0.83401
 Alpha virt. eigenvalues --    0.84267   0.91017   0.95705   0.97933   0.98521
 Alpha virt. eigenvalues --    1.07563   1.10829   1.11584   1.14825   1.19455
 Alpha virt. eigenvalues --    1.22980   1.52482   1.54785   1.56069   1.58869
 Alpha virt. eigenvalues --    1.60669   1.61260   1.61769   1.65421   1.69666
 Alpha virt. eigenvalues --    1.71841   1.76589   1.82440   1.83601   1.84492
 Alpha virt. eigenvalues --    1.86371   1.86678   1.87846   1.93361   1.94631
 Alpha virt. eigenvalues --    1.99520   2.07058   2.08981   2.11216   2.11824
 Alpha virt. eigenvalues --    2.19048   2.19577   2.21576   2.38942   2.40005
 Alpha virt. eigenvalues --    2.48811   2.51718   2.56760   2.64485   2.67605
 Alpha virt. eigenvalues --    2.72253   2.77547   2.79781   2.83023   2.90647
 Alpha virt. eigenvalues --    3.05965   3.10278   3.11166   3.13747   3.16429
 Alpha virt. eigenvalues --    3.19981   3.20718   3.31685   3.31700   3.37502
 Alpha virt. eigenvalues --    3.40583   3.40897   3.48715   3.49141   3.55010
 Alpha virt. eigenvalues --    3.63332   3.69030   3.70932   3.87026   3.92710
 Alpha virt. eigenvalues --    4.19843   4.21883   4.59580   4.60964   8.93247
 Alpha virt. eigenvalues --    9.22175   9.57108  20.72138  22.19829  22.24505
  Beta  occ. eigenvalues --  -88.91973 -10.18752 -10.18751  -7.99226  -5.95317
  Beta  occ. eigenvalues --   -5.95269  -5.94959  -0.85258  -0.70015  -0.57520
  Beta  occ. eigenvalues --   -0.47267  -0.46421  -0.40846  -0.36241  -0.33726
  Beta  occ. eigenvalues --   -0.20465
  Beta virt. eigenvalues --   -0.05982   0.00751   0.01368   0.02243   0.03918
  Beta virt. eigenvalues --    0.05713   0.06279   0.07419   0.07728   0.10444
  Beta virt. eigenvalues --    0.13044   0.13321   0.13707   0.14852   0.16374
  Beta virt. eigenvalues --    0.17066   0.18616   0.19193   0.19714   0.20317
  Beta virt. eigenvalues --    0.21974   0.24581   0.25499   0.26331   0.28013
  Beta virt. eigenvalues --    0.29154   0.29448   0.29758   0.30370   0.32910
  Beta virt. eigenvalues --    0.33032   0.34953   0.35712   0.35975   0.37504
  Beta virt. eigenvalues --    0.37868   0.38501   0.39470   0.41843   0.44592
  Beta virt. eigenvalues --    0.45357   0.47178   0.49435   0.50522   0.50678
  Beta virt. eigenvalues --    0.51649   0.52651   0.54679   0.57965   0.61278
  Beta virt. eigenvalues --    0.61853   0.64272   0.67330   0.68997   0.69248
  Beta virt. eigenvalues --    0.69812   0.71901   0.74685   0.80757   0.83401
  Beta virt. eigenvalues --    0.84267   0.91017   0.95705   0.97933   0.98521
  Beta virt. eigenvalues --    1.07563   1.10829   1.11584   1.14825   1.19455
  Beta virt. eigenvalues --    1.22980   1.52482   1.54785   1.56069   1.58869
  Beta virt. eigenvalues --    1.60669   1.61260   1.61769   1.65421   1.69666
  Beta virt. eigenvalues --    1.71841   1.76589   1.82440   1.83601   1.84492
  Beta virt. eigenvalues --    1.86371   1.86678   1.87846   1.93361   1.94631
  Beta virt. eigenvalues --    1.99520   2.07058   2.08981   2.11216   2.11824
  Beta virt. eigenvalues --    2.19048   2.19577   2.21576   2.38942   2.40005
  Beta virt. eigenvalues --    2.48811   2.51718   2.56760   2.64485   2.67605
  Beta virt. eigenvalues --    2.72253   2.77547   2.79781   2.83023   2.90647
  Beta virt. eigenvalues --    3.05965   3.10278   3.11166   3.13747   3.16429
  Beta virt. eigenvalues --    3.19981   3.20718   3.31685   3.31700   3.37502
  Beta virt. eigenvalues --    3.40583   3.40897   3.48715   3.49141   3.55010
  Beta virt. eigenvalues --    3.63332   3.69030   3.70932   3.87026   3.92710
  Beta virt. eigenvalues --    4.19843   4.21883   4.59580   4.60964   8.93247
  Beta virt. eigenvalues --    9.22175   9.57108  20.72138  22.19829  22.24505
          Condensed to atoms (all electrons):
               1          2          3          4          5          6
     1  C    5.403259   0.362106  -0.053819   0.403595   0.386825  -0.000090
     2  S    0.362106  15.270270   0.362083  -0.040999  -0.012480  -0.012486
     3  C   -0.053819   0.362083   5.403191   0.001653  -0.000090   0.386824
     4  H    0.403595  -0.040999   0.001653   0.424027  -0.007355  -0.000106
     5  H    0.386825  -0.012480  -0.000090  -0.007355   0.405157  -0.000035
     6  H   -0.000090  -0.012486   0.386824  -0.000106  -0.000035   0.405172
     7  H    0.001655  -0.040998   0.403597   0.000032  -0.000106  -0.007357
               7
     1  C    0.001655
     2  S   -0.040998
     3  C    0.403597
     4  H    0.000032
     5  H   -0.000106
     6  H   -0.007357
     7  H    0.424023
          Atomic-Atomic Spin Densities.
               1          2          3          4          5          6
     1  C    0.000000  -0.000000  -0.000000  -0.000000   0.000000  -0.000000
     2  S   -0.000000  -0.000000   0.000000   0.000000  -0.000000  -0.000000
     3  C   -0.000000   0.000000  -0.000000  -0.000000   0.000000   0.000000
     4  H   -0.000000   0.000000  -0.000000  -0.000000   0.000000  -0.000000
     5  H    0.000000  -0.000000   0.000000   0.000000  -0.000000  -0.000000
     6  H   -0.000000  -0.000000   0.000000  -0.000000  -0.000000   0.000000
     7  H    0.000000  -0.000000   0.000000   0.000000  -0.000000   0.000000
               7
     1  C    0.000000
     2  S   -0.000000
     3  C    0.000000
     4  H    0.000000
     5  H   -0.000000
     6  H    0.000000
     7  H    0.000000
 Mulliken charges and spin densities:
               1          2
     1  C   -0.503531   0.000000
     2  S    0.112504  -0.000000
     3  C   -0.503440  -0.000000
     4  H    0.219152  -0.000000
     5  H    0.228084   0.000000
     6  H    0.228077   0.000000
     7  H    0.219153   0.000000
 Sum of Mulliken charges =  -0.00000   0.00000
 Mulliken charges and spin densities with hydrogens summed into heavy atoms:
               1          2
     1  C   -0.056295   0.000000
     2  S    0.112504  -0.000000
     3  C   -0.056209   0.000000
 Electronic spatial extent (au):  <R**2>=            871.5043
 Charge=             -0.0000 electrons
 Dipole moment (field-independent basis, Debye):
    X=             -0.1769    Y=              0.0894    Z=             -0.2358  Tot=              0.3080
 Quadrupole moment (field-independent basis, Debye-Ang):
   XX=            -25.6072   YY=            -28.6230   ZZ=            -25.3407
   XY=              0.4566   XZ=             -0.3793   YZ=             -1.7758
 Traceless Quadrupole moment (field-independent basis, Debye-Ang):
   XX=              0.9164   YY=             -2.0994   ZZ=              1.1830
   XY=              0.4566   XZ=             -0.3793   YZ=             -1.7758
 Octapole moment (field-independent basis, Debye-Ang**2):
  XXX=           -174.3007  YYY=            -21.5052  ZZZ=             26.7039  XYY=            -66.2852
  XXY=             -3.8369  XXZ=              7.2303  XZZ=            -61.4767  YZZ=             -4.1870
  YYZ=              9.8100  XYZ=             -3.0079
 Hexadecapole moment (field-independent basis, Debye-Ang**3):
 XXXX=           -959.5629 YYYY=            -70.5511 ZZZZ=           -124.0729 XXXY=            -47.0610
 XXXZ=             79.9333 YYYX=            -71.0899 YYYZ=             26.9110 ZZZX=             93.2851
 ZZZY=             17.3962 XXYY=           -196.4501 XXZZ=           -196.3384 YYZZ=            -31.1425
 XXYZ=             -0.7878 YYXZ=             33.4462 ZZXY=            -13.9187
 N-N= 1.003080120317D+02 E-N=-1.328858245041D+03  KE= 4.755906531190D+02
                          Isotropic Fermi Contact Couplings
        Atom                 a.u.       MegaHertz       Gauss      10(-4) cm-1
     1  C(13)             -0.00000      -0.00000      -0.00000      -0.00000
     2  S(33)             -0.00000      -0.00000      -0.00000      -0.00000
     3  C(13)             -0.00000      -0.00000      -0.00000      -0.00000
     4  H(1)              -0.00000      -0.00000      -0.00000      -0.00000
     5  H(1)              -0.00000      -0.00000      -0.00000      -0.00000
     6  H(1)              -0.00000      -0.00000      -0.00000      -0.00000
     7  H(1)              -0.00000      -0.00000      -0.00000      -0.00000
 --------------------------------------------------------
       Center         ----  Spin Dipole Couplings  ----
                      3XX-RR        3YY-RR        3ZZ-RR
 --------------------------------------------------------
     1   Atom        0.000000     -0.000000     -0.000000
     2   Atom       -0.000000      0.000000      0.000000
     3   Atom       -0.000000      0.000000      0.000000
     4   Atom       -0.000000      0.000000     -0.000000
     5   Atom       -0.000000      0.000000      0.000000
     6   Atom       -0.000000     -0.000000      0.000000
     7   Atom        0.000000     -0.000000     -0.000000
 --------------------------------------------------------
                        XY            XZ            YZ
 --------------------------------------------------------
     1   Atom        0.000000     -0.000000      0.000000
     2   Atom       -0.000000      0.000000     -0.000000
     3   Atom        0.000000     -0.000000      0.000000
     4   Atom       -0.000000      0.000000      0.000000
     5   Atom        0.000000     -0.000000     -0.000000
     6   Atom       -0.000000      0.000000     -0.000000
     7   Atom       -0.000000      0.000000      0.000000
 --------------------------------------------------------


 ---------------------------------------------------------------------------------
              Anisotropic Spin Dipole Couplings in Principal Axis System
 ---------------------------------------------------------------------------------

       Atom             a.u.   MegaHertz   Gauss  10(-4) cm-1        Axes

              Baa    -0.0000    -0.000    -0.000    -0.000 -0.0987  0.8538 -0.5111
     1 C(13)  Bbb    -0.0000    -0.000    -0.000    -0.000 -0.0181  0.5120  0.8588
              Bcc     0.0000     0.000     0.000     0.000  0.9949  0.0941 -0.0351
 
              Baa    -0.0000    -0.000    -0.000    -0.000  0.9813  0.1488 -0.1221
     2 S(33)  Bbb     0.0000     0.000     0.000     0.000 -0.1039  0.9433  0.3152
              Bcc     0.0000     0.000     0.000     0.000  0.1621 -0.2966  0.9411
 
              Baa    -0.0000    -0.000    -0.000    -0.000  0.9212 -0.1458  0.3607
     3 C(13)  Bbb     0.0000     0.000     0.000     0.000  0.2976  0.8613 -0.4117
              Bcc     0.0000     0.000     0.000     0.000 -0.2507  0.4866  0.8369
 
              Baa    -0.0000    -0.000    -0.000    -0.000 -0.2977 -0.5425  0.7856
     4 H(1)   Bbb     0.0000     0.000     0.000     0.000  0.9497 -0.0848  0.3013
              Bcc     0.0000     0.000     0.000     0.000 -0.0969  0.8358  0.5404
 
              Baa    -0.0000    -0.000    -0.000    -0.000  0.8700  0.1327  0.4749
     5 H(1)   Bbb     0.0000     0.000     0.000     0.000 -0.3181  0.8869  0.3349
              Bcc     0.0000     0.000     0.000     0.000 -0.3767 -0.4424  0.8138
 
              Baa    -0.0000    -0.000    -0.000    -0.000  0.7988  0.4529 -0.3960
     6 H(1)   Bbb    -0.0000    -0.000    -0.000    -0.000 -0.2382  0.8425  0.4831
              Bcc     0.0000     0.000     0.000     0.000  0.5524 -0.2916  0.7809
 
              Baa    -0.0000    -0.000    -0.000    -0.000 -0.3022 -0.5720  0.7625
     7 H(1)   Bbb    -0.0000    -0.000    -0.000    -0.000 -0.1516  0.8186  0.5540
              Bcc     0.0000     0.000     0.000     0.000  0.9411 -0.0518  0.3341
 

 ---------------------------------------------------------------------------------

 No NMR shielding tensors so no spin-rotation constants.
 Leave Link  601 at Tue Jan  3 09:07:10 2023, MaxMem=   536870912 cpu:               0.5 elap:               0.3
 (Enter /opt/software/gaussian/g16.c01/l9999.exe)

 Test job not archived.
 1\1\GINC-GRA774\Stability\UB3LYP\Gen\C2H4S1\BHAVUK\03-Jan-2023\0\\#p u
 b3lyp/gen stable=opt scf=(maxcycle=900,verytightlineq,xqc) integral=gr
 id=ultrafine symmetry=None density=current iop(99/18=-1) output=wfn\\0
 003_q000_m01_k00_opt_uwb97xd_def2svpd/0003_q000_m01_k00_force_ub3lyp_d
 ef2tzvpd stable-force\\0,1\C,0,0.9838325225,-0.0325586033,0.0488580178
 \S,0,2.6071301422,0.0991997065,0.0187984451\C,0,3.2273228911,0.7361979
 77,-1.3460048506\H,0,0.570421034,-0.4575297175,0.9597448627\H,0,0.3438
 072589,0.2782232167,-0.7754915598\H,0,2.615218944,1.0564841772,-2.1877
 415072\H,0,4.3104572053,0.8236432464,-1.365823405\\Version=ES64L-G16Re
 vC.01\HF=-476.7918002\S2=0.\S2-1=0.\S2A=0.\RMSD=1.461e-09\Dipole=-0.06
 95996,0.0351779,-0.0927717\Quadrupole=0.6813371,-1.5608326,0.8794954,0
 .3394989,-0.2819727,-1.3202312\PG=Unknown\\@

 Writing a WFN file to "0003_q000_m01_k00_force_ub3lyp_def2tzvpd.wfn"


 BETTER TO HUNT IN FIELDS, FOR HEALTH UNBOUGHT
 THAN FEE THE DOCTOR FOR A NAUSEOUS DRAUGHT.
 THE WISE, FOR CURE, ON EXERCISE DEPEND;
 GOD NEVER MADE HIS WORK FOR MAN TO MEND.
     -- JOHN DRYDEN (1631-1700)
 Job cpu time:       0 days  0 hours  3 minutes 36.9 seconds.
 Elapsed time:       0 days  0 hours  1 minutes 50.1 seconds.
 File lengths (MBytes):  RWF=    121 Int=      0 D2E=      0 Chk=      5 Scr=      1
 Normal termination of Gaussian 16 at Tue Jan  3 09:07:11 2023.
 Initial command:
 /opt/software/gaussian/g16.c01/l1.exe "/localscratch/bhavuk.2151378.0/Gau-13120.inp" -scrdir="/localscratch/bhavuk.2151378.0/"
 Entering Link 1 = /opt/software/gaussian/g16.c01/l1.exe PID=     14379.
  
 Copyright (c) 1988-2019, Gaussian, Inc.  All Rights Reserved.
  
 This is part of the Gaussian(R) 16 program.  It is based on
 the Gaussian(R) 09 system (copyright 2009, Gaussian, Inc.),
 the Gaussian(R) 03 system (copyright 2003, Gaussian, Inc.),
 the Gaussian(R) 98 system (copyright 1998, Gaussian, Inc.),
 the Gaussian(R) 94 system (copyright 1995, Gaussian, Inc.),
 the Gaussian 92(TM) system (copyright 1992, Gaussian, Inc.),
 the Gaussian 90(TM) system (copyright 1990, Gaussian, Inc.),
 the Gaussian 88(TM) system (copyright 1988, Gaussian, Inc.),
 the Gaussian 86(TM) system (copyright 1986, Carnegie Mellon
 University), and the Gaussian 82(TM) system (copyright 1983,
 Carnegie Mellon University). Gaussian is a federally registered
 trademark of Gaussian, Inc.
  
 This software contains proprietary and confidential information,
 including trade secrets, belonging to Gaussian, Inc.
  
 This software is provided under written license and may be
 used, copied, transmitted, or stored only in accord with that
 written license.
  
 The following legend is applicable only to US Government
 contracts under FAR:
  
                    RESTRICTED RIGHTS LEGEND
  
 Use, reproduction and disclosure by the US Government is
 subject to restrictions as set forth in subparagraphs (a)
 and (c) of the Commercial Computer Software - Restricted
 Rights clause in FAR 52.227-19.
  
 Gaussian, Inc.
 340 Quinnipiac St., Bldg. 40, Wallingford CT 06492
  
  
 ---------------------------------------------------------------
 Warning -- This program may not be used in any manner that
 competes with the business of Gaussian, Inc. or will provide
 assistance to any competitor of Gaussian, Inc.  The licensee
 of this program is prohibited from giving any competitor of
 Gaussian, Inc. access to this program.  By using this program,
 the user acknowledges that Gaussian, Inc. is engaged in the
 business of creating and licensing software in the field of
 computational chemistry and represents and warrants to the
 licensee that it is not a competitor of Gaussian, Inc. and that
 it will not use this program in any manner prohibited above.
 ---------------------------------------------------------------
  

 Cite this work as:
 Gaussian 16, Revision C.01,
 M. J. Frisch, G. W. Trucks, H. B. Schlegel, G. E. Scuseria, 
 M. A. Robb, J. R. Cheeseman, G. Scalmani, V. Barone, 
 G. A. Petersson, H. Nakatsuji, X. Li, M. Caricato, A. V. Marenich, 
 J. Bloino, B. G. Janesko, R. Gomperts, B. Mennucci, H. P. Hratchian, 
 J. V. Ortiz, A. F. Izmaylov, J. L. Sonnenberg, D. Williams-Young, 
 F. Ding, F. Lipparini, F. Egidi, J. Goings, B. Peng, A. Petrone, 
 T. Henderson, D. Ranasinghe, V. G. Zakrzewski, J. Gao, N. Rega, 
 G. Zheng, W. Liang, M. Hada, M. Ehara, K. Toyota, R. Fukuda, 
 J. Hasegawa, M. Ishida, T. Nakajima, Y. Honda, O. Kitao, H. Nakai, 
 T. Vreven, K. Throssell, J. A. Montgomery, Jr., J. E. Peralta, 
 F. Ogliaro, M. J. Bearpark, J. J. Heyd, E. N. Brothers, K. N. Kudin, 
 V. N. Staroverov, T. A. Keith, R. Kobayashi, J. Normand, 
 K. Raghavachari, A. P. Rendell, J. C. Burant, S. S. Iyengar, 
 J. Tomasi, M. Cossi, J. M. Millam, M. Klene, C. Adamo, R. Cammi, 
 J. W. Ochterski, R. L. Martin, K. Morokuma, O. Farkas, 
 J. B. Foresman, and D. J. Fox, Gaussian, Inc., Wallingford CT, 2019.
 
 ******************************************
 Gaussian 16:  ES64L-G16RevC.01  3-Jul-2019
                 3-Jan-2023 
 ******************************************
 %chk=0003_q000_m01_k00_force_ub3lyp_def2tzvpd.chk
 %nprocshared=2
 Will use up to    2 processors via shared memory.
 %mem=4GB
 ----------------------------------------------------------------------
 #p ub3lyp/chkbasis force guess=read geom=check scf=(maxcycle=900,veryt
 ightlineq,xqc) integral=grid=ultrafine symmetry=None density=current p
 op=(cm5,hlygat,mbs,npa) output=wfx
 ----------------------------------------------------------------------
 1/10=7,29=2,30=1,38=1/1,3;
 2/12=2,15=3,40=1/2;
 3/5=7,6=2,11=2,14=-4,25=1,30=1,67=1,71=1,74=-5,75=-5,116=2/1,2,3;
 4/5=1/1;
 5/5=2,7=900,8=3,13=1,17=3,38=6/2,8;
 6/7=2,8=2,9=2,10=2,15=8,20=15,22=-1,27=100,28=1,40=-1,79=1/1,2,7;
 7/29=1,30=1/1,2,3,16;
 1/10=7,30=1/3;
 99/6=200/99;
 Leave Link    1 at Tue Jan  3 09:07:11 2023, MaxMem=   536870912 cpu:               0.2 elap:               0.1
 (Enter /opt/software/gaussian/g16.c01/l101.exe)
 ----------------------------------------------------------------------
 0003_q000_m01_k00_opt_uwb97xd_def2svpd/0003_q000_m01_k00_force_ub3lyp_
 def2tzvpd stable-force
 ----------------------------------------------------------------------
 Structure from the checkpoint file:  "0003_q000_m01_k00_force_ub3lyp_def2tzvpd.chk"
 Charge =  0 Multiplicity = 1
 Z-Matrix found in chk file.
 C,0,0.9838325225,-0.0325586033,0.0488580178
 S,0,2.6071301422,0.0991997065,0.0187984451
 C,0,3.2273228911,0.736197977,-1.3460048506
 H,0,0.570421034,-0.4575297175,0.9597448627
 H,0,0.3438072589,0.2782232167,-0.7754915598
 H,0,2.615218944,1.0564841772,-2.1877415072
 H,0,4.3104572053,0.8236432464,-1.365823405
 Recover connectivity data from disk.
 ITRead=  0  0  0  0  0  0  0
 MicOpt= -1 -1 -1 -1 -1 -1 -1
 NAtoms=      7 NQM=        7 NQMF=       0 NMMI=      0 NMMIF=      0
                NMic=       0 NMicF=      0.
                    Isotopes and Nuclear Properties:
 (Nuclear quadrupole moments (NQMom) in fm**2, nuclear magnetic moments (NMagM)
  in nuclear magnetons)

  Atom         1           2           3           4           5           6           7
 IAtWgt=          12          32          12           1           1           1           1
 AtmWgt=  12.0000000  31.9720718  12.0000000   1.0078250   1.0078250   1.0078250   1.0078250
 NucSpn=           0           0           0           1           1           1           1
 AtZEff=   3.6000000  13.6000000   3.6000000   1.0000000   1.0000000   1.0000000   1.0000000
 NQMom=    0.0000000   0.0000000   0.0000000   0.0000000   0.0000000   0.0000000   0.0000000
 NMagM=    0.0000000   0.0000000   0.0000000   2.7928460   2.7928460   2.7928460   2.7928460
 AtZNuc=   6.0000000  16.0000000   6.0000000   1.0000000   1.0000000   1.0000000   1.0000000
 Leave Link  101 at Tue Jan  3 09:07:11 2023, MaxMem=   536870912 cpu:               0.4 elap:               0.2
 (Enter /opt/software/gaussian/g16.c01/l103.exe)

 GradGradGradGradGradGradGradGradGradGradGradGradGradGradGradGradGradGrad
 Berny optimization.
 Initialization pass.
 Trust Radius=3.00D-01 FncErr=1.00D-07 GrdErr=1.00D-07 EigMax=2.50D+02 EigMin=1.00D-04
 Number of steps in this run=      2 maximum allowed number of steps=      2.
 GradGradGradGradGradGradGradGradGradGradGradGradGradGradGradGradGradGrad

 Leave Link  103 at Tue Jan  3 09:07:11 2023, MaxMem=   536870912 cpu:               0.1 elap:               0.0
 (Enter /opt/software/gaussian/g16.c01/l202.exe)
                          Input orientation:                          
 ---------------------------------------------------------------------
 Center     Atomic      Atomic             Coordinates (Angstroms)
 Number     Number       Type             X           Y           Z
 ---------------------------------------------------------------------
      1          6           0        0.983833   -0.032559    0.048858
      2         16           0        2.607130    0.099200    0.018798
      3          6           0        3.227323    0.736198   -1.346005
      4          1           0        0.570421   -0.457530    0.959745
      5          1           0        0.343807    0.278223   -0.775492
      6          1           0        2.615219    1.056484   -2.187742
      7          1           0        4.310457    0.823643   -1.365823
 ---------------------------------------------------------------------
                    Distance matrix (angstroms):
                    1          2          3          4          5
     1  C    0.000000
     2  S    1.628913   0.000000
     3  C    2.751341   1.628832   0.000000
     4  H    1.086841   2.311604   3.714915   0.000000
     5  H    1.088931   2.405323   2.974876   1.898350   0.000000
     6  H    2.974864   2.405260   1.088933   4.047234   2.785579
     7  H    3.714948   2.311562   1.086839   4.586670   4.047257
                    6          7
     6  H    0.000000
     7  H    1.898314   0.000000
 Symmetry turned off by external request.
 Stoichiometry    C2H4S
 Rotational constants (GHZ):          32.8865896           8.4327606           6.7117401
 Leave Link  202 at Tue Jan  3 09:07:11 2023, MaxMem=   536870912 cpu:               0.0 elap:               0.0
 (Enter /opt/software/gaussian/g16.c01/l301.exe)
 Basis read from chk: "0003_q000_m01_k00_force_ub3lyp_def2tzvpd.chk" (5D, 7F)
 No pseudopotential information found on chk file.
   156 basis functions,   239 primitive gaussians,   174 cartesian basis functions
    16 alpha electrons       16 beta electrons
       nuclear repulsion energy       100.3080120317 Hartrees.
 IExCor=  402 DFT=T Ex+Corr=B3LYP ExCW=0 ScaHFX=  0.200000
 ScaDFX=  0.800000  0.720000  1.000000  0.810000 ScalE2=  1.000000  1.000000
 IRadAn=      5 IRanWt=     -1 IRanGd=            0 ICorTp=0 IEmpDi=  4
 NAtoms=    7 NActive=    7 NUniq=    7 SFac= 1.00D+00 NAtFMM=   60 NAOKFM=F Big=F
 Integral buffers will be    131072 words long.
 Raffenetti 2 integral format.
 Two-electron integral symmetry is turned off.
 No density basis found on file  20724.
 Leave Link  301 at Tue Jan  3 09:07:12 2023, MaxMem=   536870912 cpu:               0.1 elap:               0.1
 (Enter /opt/software/gaussian/g16.c01/l302.exe)
 NPDir=0 NMtPBC=     1 NCelOv=     1 NCel=       1 NClECP=     1 NCelD=      1
         NCelK=      1 NCelE2=     1 NClLst=     1 CellRange=     0.0.
 One-electron integrals computed using PRISM.
 NBasis=   156 RedAO= T EigKep=  4.53D-05  NBF=   156
 NBsUse=   156 1.00D-06 EigRej= -1.00D+00 NBFU=   156
 Precomputing XC quadrature grid using
 IXCGrd= 4 IRadAn=           5 IRanWt=          -1 IRanGd=           0 AccXCQ= 0.00D+00.
 Generated NRdTot=       0 NPtTot=           0 NUsed=           0 NTot=          32
 NSgBfM=   174   173   173   174   174 MxSgAt=     7 MxSgA2=     7.
 Leave Link  302 at Tue Jan  3 09:07:12 2023, MaxMem=   536870912 cpu:               0.4 elap:               0.2
 (Enter /opt/software/gaussian/g16.c01/l303.exe)
 DipDrv:  MaxL=1.
 Leave Link  303 at Tue Jan  3 09:07:12 2023, MaxMem=   536870912 cpu:               0.1 elap:               0.0
 (Enter /opt/software/gaussian/g16.c01/l401.exe)
 Initial guess from the checkpoint file:  "0003_q000_m01_k00_force_ub3lyp_def2tzvpd.chk"
 B after Tr=     0.000000    0.000000    0.000000
         Rot=    1.000000    0.000000    0.000000    0.000000 Ang=   0.00 deg.
 Guess basis will be translated and rotated to current coordinates.
 JPrj=2 DoOrth=T DoCkMO=T.
 Initial guess <Sx>= 0.0000 <Sy>= 0.0000 <Sz>= 0.0000 <S**2>=-0.0000 S=-0.0000
 Leave Link  401 at Tue Jan  3 09:07:12 2023, MaxMem=   536870912 cpu:               0.3 elap:               0.1
 (Enter /opt/software/gaussian/g16.c01/l502.exe)
 Keep R1 and R2 ints in memory in canonical form, NReq=152656988.
 FoFCou: FMM=F IPFlag=           0 FMFlag=           0 FMFlg1=           0
         NFxFlg=           0 DoJE=F BraDBF=F KetDBF=F FulRan=T
         wScrn=  0.000000 ICntrl=       600 IOpCl=  0 I1Cent=           0 NGrid=           0
         NMat0=    1 NMatS0=  12246 NMatT0=    0 NMatD0=    1 NMtDS0=    0 NMtDT0=    0
 Symmetry not used in FoFCou.
 Two-electron integral symmetry not used.
 UHF open shell SCF:
 Using DIIS extrapolation, IDIIS=  1040.
 NGot=   536870912 LenX=   386831154 LenY=   386800437
 Requested convergence on RMS density matrix=1.00D-08 within 128 cycles.
 Requested convergence on MAX density matrix=1.00D-06.
 Requested convergence on             energy=1.00D-06.
 No special actions if energy rises.

 Cycle   1  Pass 1  IDiag  1:
 E= -476.791800187582    
 DIIS: error= 1.16D-09 at cycle   1 NSaved=   1.
 NSaved= 1 IEnMin= 1 EnMin= -476.791800187582     IErMin= 1 ErrMin= 1.16D-09
 ErrMax= 1.16D-09  0.00D+00 EMaxC= 1.00D-01 BMatC= 6.79D-16 BMatP= 6.79D-16
 IDIUse=1 WtCom= 1.00D+00 WtEn= 0.00D+00
 Coeff-Com:  0.100D+01
 Coeff:      0.100D+01
 Gap=     0.145 Goal=   None    Shift=    0.000
 Gap=     0.145 Goal=   None    Shift=    0.000
 RMSDP=1.72D-10 MaxDP=4.34D-09              OVMax= 1.20D-08

 SCF Done:  E(UB3LYP) =  -476.791800188     A.U. after    1 cycles
            NFock=  1  Conv=0.17D-09     -V/T= 2.0025
 <Sx>= 0.0000 <Sy>= 0.0000 <Sz>= 0.0000 <S**2>=-0.0000 S=-0.0000
 <L.S>=  0.00000000000    
 KE= 4.755906530648D+02 PE=-1.328858244987D+03 EE= 2.761677797029D+02
 Annihilation of the first spin contaminant:
 S**2 before annihilation    -0.0000,   after     0.0000
 Leave Link  502 at Tue Jan  3 09:07:17 2023, MaxMem=   536870912 cpu:               9.5 elap:               4.9
 (Enter /opt/software/gaussian/g16.c01/l508.exe)
 QCSCF skips out because SCF is already converged.
 Leave Link  508 at Tue Jan  3 09:07:17 2023, MaxMem=   536870912 cpu:               0.0 elap:               0.0
 (Enter /opt/software/gaussian/g16.c01/l601.exe)
 Copying SCF densities to generalized density rwf, IOpCl= 1 IROHF=0.

 **********************************************************************

            Population analysis using the SCF Density.

 **********************************************************************

 Alpha  occ. eigenvalues --  -88.91973 -10.18752 -10.18751  -7.99226  -5.95317
 Alpha  occ. eigenvalues --   -5.95269  -5.94959  -0.85258  -0.70015  -0.57520
 Alpha  occ. eigenvalues --   -0.47267  -0.46421  -0.40846  -0.36241  -0.33726
 Alpha  occ. eigenvalues --   -0.20465
 Alpha virt. eigenvalues --   -0.05982   0.00751   0.01368   0.02243   0.03918
 Alpha virt. eigenvalues --    0.05713   0.06279   0.07419   0.07728   0.10444
 Alpha virt. eigenvalues --    0.13044   0.13321   0.13707   0.14852   0.16374
 Alpha virt. eigenvalues --    0.17066   0.18616   0.19193   0.19714   0.20317
 Alpha virt. eigenvalues --    0.21974   0.24581   0.25499   0.26331   0.28013
 Alpha virt. eigenvalues --    0.29154   0.29448   0.29758   0.30370   0.32910
 Alpha virt. eigenvalues --    0.33032   0.34953   0.35712   0.35975   0.37504
 Alpha virt. eigenvalues --    0.37868   0.38501   0.39470   0.41843   0.44592
 Alpha virt. eigenvalues --    0.45357   0.47178   0.49435   0.50522   0.50678
 Alpha virt. eigenvalues --    0.51649   0.52651   0.54679   0.57965   0.61278
 Alpha virt. eigenvalues --    0.61853   0.64272   0.67330   0.68997   0.69248
 Alpha virt. eigenvalues --    0.69812   0.71901   0.74685   0.80757   0.83401
 Alpha virt. eigenvalues --    0.84267   0.91017   0.95705   0.97933   0.98521
 Alpha virt. eigenvalues --    1.07563   1.10829   1.11584   1.14825   1.19455
 Alpha virt. eigenvalues --    1.22980   1.52482   1.54785   1.56069   1.58869
 Alpha virt. eigenvalues --    1.60669   1.61260   1.61769   1.65421   1.69666
 Alpha virt. eigenvalues --    1.71841   1.76589   1.82440   1.83601   1.84492
 Alpha virt. eigenvalues --    1.86371   1.86678   1.87846   1.93361   1.94631
 Alpha virt. eigenvalues --    1.99520   2.07058   2.08981   2.11216   2.11824
 Alpha virt. eigenvalues --    2.19048   2.19577   2.21576   2.38942   2.40005
 Alpha virt. eigenvalues --    2.48811   2.51718   2.56760   2.64485   2.67605
 Alpha virt. eigenvalues --    2.72253   2.77547   2.79781   2.83023   2.90647
 Alpha virt. eigenvalues --    3.05965   3.10278   3.11166   3.13747   3.16429
 Alpha virt. eigenvalues --    3.19981   3.20718   3.31685   3.31700   3.37502
 Alpha virt. eigenvalues --    3.40583   3.40897   3.48715   3.49141   3.55010
 Alpha virt. eigenvalues --    3.63332   3.69030   3.70932   3.87026   3.92710
 Alpha virt. eigenvalues --    4.19843   4.21883   4.59580   4.60964   8.93247
 Alpha virt. eigenvalues --    9.22175   9.57108  20.72138  22.19829  22.24505
  Beta  occ. eigenvalues --  -88.91973 -10.18752 -10.18751  -7.99226  -5.95317
  Beta  occ. eigenvalues --   -5.95269  -5.94959  -0.85258  -0.70015  -0.57520
  Beta  occ. eigenvalues --   -0.47267  -0.46421  -0.40846  -0.36241  -0.33726
  Beta  occ. eigenvalues --   -0.20465
  Beta virt. eigenvalues --   -0.05982   0.00751   0.01368   0.02243   0.03918
  Beta virt. eigenvalues --    0.05713   0.06279   0.07419   0.07728   0.10444
  Beta virt. eigenvalues --    0.13044   0.13321   0.13707   0.14852   0.16374
  Beta virt. eigenvalues --    0.17066   0.18616   0.19193   0.19714   0.20317
  Beta virt. eigenvalues --    0.21974   0.24581   0.25499   0.26331   0.28013
  Beta virt. eigenvalues --    0.29154   0.29448   0.29758   0.30370   0.32910
  Beta virt. eigenvalues --    0.33032   0.34953   0.35712   0.35975   0.37504
  Beta virt. eigenvalues --    0.37868   0.38501   0.39470   0.41843   0.44592
  Beta virt. eigenvalues --    0.45357   0.47178   0.49435   0.50522   0.50678
  Beta virt. eigenvalues --    0.51649   0.52651   0.54679   0.57965   0.61278
  Beta virt. eigenvalues --    0.61853   0.64272   0.67330   0.68997   0.69248
  Beta virt. eigenvalues --    0.69812   0.71901   0.74685   0.80757   0.83401
  Beta virt. eigenvalues --    0.84267   0.91017   0.95705   0.97933   0.98521
  Beta virt. eigenvalues --    1.07563   1.10829   1.11584   1.14825   1.19455
  Beta virt. eigenvalues --    1.22980   1.52482   1.54785   1.56069   1.58869
  Beta virt. eigenvalues --    1.60669   1.61260   1.61769   1.65421   1.69666
  Beta virt. eigenvalues --    1.71841   1.76589   1.82440   1.83601   1.84492
  Beta virt. eigenvalues --    1.86371   1.86678   1.87846   1.93361   1.94631
  Beta virt. eigenvalues --    1.99520   2.07058   2.08981   2.11216   2.11824
  Beta virt. eigenvalues --    2.19048   2.19577   2.21576   2.38942   2.40005
  Beta virt. eigenvalues --    2.48811   2.51718   2.56760   2.64485   2.67605
  Beta virt. eigenvalues --    2.72253   2.77547   2.79781   2.83023   2.90647
  Beta virt. eigenvalues --    3.05965   3.10278   3.11166   3.13747   3.16429
  Beta virt. eigenvalues --    3.19981   3.20718   3.31685   3.31700   3.37502
  Beta virt. eigenvalues --    3.40583   3.40897   3.48715   3.49141   3.55010
  Beta virt. eigenvalues --    3.63332   3.69030   3.70932   3.87026   3.92710
  Beta virt. eigenvalues --    4.19843   4.21883   4.59580   4.60964   8.93247
  Beta virt. eigenvalues --    9.22175   9.57108  20.72138  22.19829  22.24505
          Condensed to atoms (all electrons):
               1          2          3          4          5          6
     1  C    5.403259   0.362106  -0.053819   0.403595   0.386825  -0.000090
     2  S    0.362106  15.270269   0.362083  -0.040999  -0.012480  -0.012486
     3  C   -0.053819   0.362083   5.403191   0.001653  -0.000090   0.386824
     4  H    0.403595  -0.040999   0.001653   0.424027  -0.007355  -0.000106
     5  H    0.386825  -0.012480  -0.000090  -0.007355   0.405157  -0.000035
     6  H   -0.000090  -0.012486   0.386824  -0.000106  -0.000035   0.405172
     7  H    0.001655  -0.040998   0.403597   0.000032  -0.000106  -0.007357
               7
     1  C    0.001655
     2  S   -0.040998
     3  C    0.403597
     4  H    0.000032
     5  H   -0.000106
     6  H   -0.007357
     7  H    0.424023
          Atomic-Atomic Spin Densities.
               1          2          3          4          5          6
     1  C    0.000000  -0.000000   0.000000  -0.000000   0.000000   0.000000
     2  S   -0.000000   0.000000   0.000000   0.000000   0.000000  -0.000000
     3  C    0.000000   0.000000  -0.000000  -0.000000  -0.000000   0.000000
     4  H   -0.000000   0.000000  -0.000000  -0.000000   0.000000   0.000000
     5  H    0.000000   0.000000  -0.000000   0.000000  -0.000000  -0.000000
     6  H    0.000000  -0.000000   0.000000   0.000000  -0.000000   0.000000
     7  H    0.000000  -0.000000  -0.000000  -0.000000  -0.000000   0.000000
               7
     1  C    0.000000
     2  S   -0.000000
     3  C   -0.000000
     4  H   -0.000000
     5  H   -0.000000
     6  H    0.000000
     7  H   -0.000000
 Mulliken charges and spin densities:
               1          2
     1  C   -0.503531  -0.000000
     2  S    0.112504   0.000000
     3  C   -0.503440  -0.000000
     4  H    0.219152  -0.000000
     5  H    0.228084  -0.000000
     6  H    0.228077   0.000000
     7  H    0.219153  -0.000000
 Sum of Mulliken charges =  -0.00000   0.00000
 Mulliken charges and spin densities with hydrogens summed into heavy atoms:
               1          2
     1  C   -0.056295  -0.000000
     2  S    0.112504   0.000000
     3  C   -0.056210  -0.000000
 Electronic spatial extent (au):  <R**2>=            871.5043
 Charge=             -0.0000 electrons
 Dipole moment (field-independent basis, Debye):
    X=             -0.1769    Y=              0.0894    Z=             -0.2358  Tot=              0.3080
 Quadrupole moment (field-independent basis, Debye-Ang):
   XX=            -25.6072   YY=            -28.6230   ZZ=            -25.3407
   XY=              0.4566   XZ=             -0.3793   YZ=             -1.7758
 Traceless Quadrupole moment (field-independent basis, Debye-Ang):
   XX=              0.9164   YY=             -2.0994   ZZ=              1.1830
   XY=              0.4566   XZ=             -0.3793   YZ=             -1.7758
 Octapole moment (field-independent basis, Debye-Ang**2):
  XXX=           -174.3007  YYY=            -21.5052  ZZZ=             26.7039  XYY=            -66.2852
  XXY=             -3.8369  XXZ=              7.2303  XZZ=            -61.4767  YZZ=             -4.1870
  YYZ=              9.8100  XYZ=             -3.0079
 Hexadecapole moment (field-independent basis, Debye-Ang**3):
 XXXX=           -959.5629 YYYY=            -70.5511 ZZZZ=           -124.0729 XXXY=            -47.0610
 XXXZ=             79.9334 YYYX=            -71.0899 YYYZ=             26.9110 ZZZX=             93.2851
 ZZZY=             17.3962 XXYY=           -196.4501 XXZZ=           -196.3384 YYZZ=            -31.1425
 XXYZ=             -0.7878 YYXZ=             33.4462 ZZXY=            -13.9187
 N-N= 1.003080120317D+02 E-N=-1.328858244858D+03  KE= 4.755906530648D+02
 There are a total of      160078 grid points.
[...]
    46    S    2  px     Ryd( 4p)     0.00250       0.91039
    47    S    2  px     Ryd( 5p)     0.00002       1.12532
    48    S    2  px     Ryd( 6p)     0.00002       1.64601
    49    S    2  px     Ryd( 7p)     0.00000       8.09067
    50    S    2  py     Cor( 2p)     0.99988      -5.94445
    51    S    2  py     Val( 3p)     0.62839      -0.24063
    52    S    2  py     Ryd( 4p)     0.00055       0.64634
    53    S    2  py     Ryd( 5p)     0.00001       0.92708
    54    S    2  py     Ryd( 6p)     0.00000       1.49734
    55    S    2  py     Ryd( 7p)     0.00000       8.43340
    56    S    2  pz     Cor( 2p)     0.99989      -5.94083
    57    S    2  pz     Val( 3p)     0.64430      -0.21713
    58    S    2  pz     Ryd( 4p)     0.00195       0.80773
    59    S    2  pz     Ryd( 5p)     0.00002       1.04267
    60    S    2  pz     Ryd( 6p)     0.00002       1.61951
    61    S    2  pz     Ryd( 7p)     0.00000       8.24242
    62    S    2  dxy    Ryd( 4d)     0.01112       0.62490
    63    S    2  dxy    Ryd( 3d)     0.00011       0.44721
    64    S    2  dxy    Ryd( 5d)     0.00001       1.64292
    65    S    2  dxz    Ryd( 4d)     0.00471       0.80979
    66    S    2  dxz    Ryd( 3d)     0.00019       0.58092
    67    S    2  dxz    Ryd( 5d)     0.00001       1.91180
    68    S    2  dyz    Ryd( 4d)     0.00534       0.66267
    69    S    2  dyz    Ryd( 3d)     0.00010       0.48492
    70    S    2  dyz    Ryd( 5d)     0.00001       1.77234
    71    S    2  dx2y2  Ryd( 4d)     0.00683       0.84165
    72    S    2  dx2y2  Ryd( 3d)     0.00008       0.60664
    73    S    2  dx2y2  Ryd( 5d)     0.00002       1.92686
    74    S    2  dz2    Ryd( 4d)     0.00673       0.80819
    75    S    2  dz2    Ryd( 3d)     0.00009       0.50833
    76    S    2  dz2    Ryd( 5d)     0.00002       1.98526
    77    S    2  f(0)   Ryd( 4f)     0.00012       2.26359
    78    S    2  f(C1)  Ryd( 4f)     0.00017       2.30801
    79    S    2  f(S1)  Ryd( 4f)     0.00016       2.16239
    80    S    2  f(C2)  Ryd( 4f)     0.00008       2.28487
    81    S    2  f(S2)  Ryd( 4f)     0.00010       2.11916
    82    S    2  f(C3)  Ryd( 4f)     0.00021       2.25352
    83    S    2  f(S3)  Ryd( 4f)     0.00014       2.22403
 
    84    C    3  S      Cor( 1S)     0.99978     -10.07631
    85    C    3  S      Val( 2S)     0.58411      -0.37199
    86    C    3  S      Ryd( 3S)     0.00116       0.87534
    87    C    3  S      Ryd( 4S)     0.00012       1.43216
    88    C    3  S      Ryd( 5S)     0.00006       1.49497
    89    C    3  S      Ryd( 6S)     0.00000      21.05287
    90    C    3  px     Val( 2p)     0.60525      -0.12413
    91    C    3  px     Ryd( 3p)     0.00090       0.98210
    92    C    3  px     Ryd( 4p)     0.00002       1.69618
    93    C    3  py     Val( 2p)     0.64361      -0.16763
    94    C    3  py     Ryd( 3p)     0.00252       0.79760
    95    C    3  py     Ryd( 4p)     0.00002       1.05716
    96    C    3  pz     Val( 2p)     0.56332      -0.15550
    97    C    3  pz     Ryd( 3p)     0.00177       1.01399
    98    C    3  pz     Ryd( 4p)     0.00008       1.29003
    99    C    3  dxy    Ryd( 4d)     0.00038       1.03224
   100    C    3  dxy    Ryd( 3d)     0.00002       0.72233
   101    C    3  dxy    Ryd( 5d)     0.00001       2.80312
   102    C    3  dxz    Ryd( 4d)     0.00164       1.34225
   103    C    3  dxz    Ryd( 3d)     0.00004       0.87535
   104    C    3  dxz    Ryd( 5d)     0.00003       2.95153
   105    C    3  dyz    Ryd( 4d)     0.00147       1.21231
   106    C    3  dyz    Ryd( 3d)     0.00011       0.64575
   107    C    3  dyz    Ryd( 5d)     0.00004       2.92039
   108    C    3  dx2y2  Ryd( 4d)     0.00118       1.15757
   109    C    3  dx2y2  Ryd( 3d)     0.00007       0.85208
   110    C    3  dx2y2  Ryd( 5d)     0.00003       3.00004
   111    C    3  dz2    Ryd( 4d)     0.00160       1.29072
   112    C    3  dz2    Ryd( 3d)     0.00007       0.71269
   113    C    3  dz2    Ryd( 5d)     0.00004       2.92701
   114    C    3  f(0)   Ryd( 4f)     0.00004       3.26536
   115    C    3  f(C1)  Ryd( 4f)     0.00009       3.64643
   116    C    3  f(S1)  Ryd( 4f)     0.00007       3.39140
   117    C    3  f(C2)  Ryd( 4f)     0.00006       3.26623
   118    C    3  f(S2)  Ryd( 4f)     0.00005       3.29441
   119    C    3  f(C3)  Ryd( 4f)     0.00010       3.26075
   120    C    3  f(S3)  Ryd( 4f)     0.00002       3.05511
 
   121    H    4  S      Val( 1S)     0.38305       0.01493
   122    H    4  S      Ryd( 2S)     0.00022       1.27552
   123    H    4  S      Ryd( 3S)     0.00003       1.37126
   124    H    4  px     Ryd( 2p)     0.00021       0.52571
   125    H    4  px     Ryd( 3p)     0.00003       2.30328
   126    H    4  py     Ryd( 2p)     0.00138       0.40851
   127    H    4  py     Ryd( 3p)     0.00005       2.16807
   128    H    4  pz     Ryd( 2p)     0.00063       0.52321
   129    H    4  pz     Ryd( 3p)     0.00008       2.67468
 
   130    H    5  S      Val( 1S)     0.38965       0.01110
   131    H    5  S      Ryd( 3S)     0.00051       1.41647
   132    H    5  S      Ryd( 2S)     0.00003       1.17445
   133    H    5  px     Ryd( 2p)     0.00025       0.55516
   134    H    5  px     Ryd( 3p)     0.00004       2.48300
   135    H    5  py     Ryd( 2p)     0.00071       0.42062
   136    H    5  py     Ryd( 3p)     0.00004       2.14002
   137    H    5  pz     Ryd( 2p)     0.00053       0.57636
   138    H    5  pz     Ryd( 3p)     0.00006       2.58110
 
   139    H    6  S      Val( 1S)     0.38965       0.01110
   140    H    6  S      Ryd( 3S)     0.00051       1.41654
   141    H    6  S      Ryd( 2S)     0.00003       1.17444
   142    H    6  px     Ryd( 2p)     0.00033       0.59243
   143    H    6  px     Ryd( 3p)     0.00003       2.39284
   144    H    6  py     Ryd( 2p)     0.00069       0.41418
   145    H    6  py     Ryd( 3p)     0.00005       2.15553
   146    H    6  pz     Ryd( 2p)     0.00047       0.54551
   147    H    6  pz     Ryd( 3p)     0.00007       2.65574
 
   148    H    7  S      Val( 1S)     0.38305       0.01492
   149    H    7  S      Ryd( 2S)     0.00022       1.27555
   150    H    7  S      Ryd( 3S)     0.00003       1.37126
   151    H    7  px     Ryd( 2p)     0.00053       0.58542
   152    H    7  px     Ryd( 3p)     0.00011       2.94911
   153    H    7  py     Ryd( 2p)     0.00133       0.39819
   154    H    7  py     Ryd( 3p)     0.00003       2.05662
   155    H    7  pz     Ryd( 2p)     0.00037       0.47377
   156    H    7  pz     Ryd( 3p)     0.00001       2.14029

 WARNING:  Population inversion found on atom  C    1
           Population inversion found on atom  S    2
           Population inversion found on atom  C    3
           Population inversion found on atom  H    5
           Population inversion found on atom  H    6


 Summary of Natural Population Analysis:                  
                                                          
                                       Natural Population 
                Natural  -----------------------------------------------
    Atom  No    Charge         Core      Valence    Rydberg      Total
 -----------------------------------------------------------------------
      C    1   -0.40986      0.99978     2.39628    0.01380     3.40986
      S    2    0.37474      4.99919     2.57671    0.04936     7.62526
      C    3   -0.40987      0.99978     2.39628    0.01380     3.40987
      H    4    0.11432      0.00000     0.38305    0.00263     0.38568
      H    5    0.10818      0.00000     0.38965    0.00218     0.39182
      H    6    0.10818      0.00000     0.38965    0.00218     0.39182
      H    7    0.11432      0.00000     0.38305    0.00263     0.38568
 =======================================================================
   * Total *   -0.00000      6.99875     8.91468    0.08657    16.00000

                                 Natural Population      
 --------------------------------------------------------
   Core                       6.99875 ( 99.9821% of   7)
   Valence                    8.91468 ( 99.0520% of   9)
   Natural Minimal Basis     15.91343 ( 99.4589% of  16)
   Natural Rydberg Basis      0.08657 (  0.5411% of  16)
 --------------------------------------------------------

    Atom  No          Natural Electron Configuration
 ----------------------------------------------------------------------------
      C    1      [core]2S( 0.58)2p( 1.81)3p( 0.01)4d( 0.01)
      S    2      [core]3S( 0.76)3p( 1.82)4S( 0.01)4d( 0.03)
      C    3      [core]2S( 0.58)2p( 1.81)3p( 0.01)4d( 0.01)
      H    4            1S( 0.38)
      H    5            1S( 0.39)
      H    6            1S( 0.39)
      H    7            1S( 0.38)


 NBO analysis skipped by request.
 Leave Link  607 at Tue Jan  3 09:07:20 2023, MaxMem=   536870912 cpu:               3.6 elap:               1.8
 (Enter /opt/software/gaussian/g16.c01/l701.exe)
 ... and contract with generalized density number  0.
 Compute integral first derivatives.
 Leave Link  701 at Tue Jan  3 09:07:20 2023, MaxMem=   536870912 cpu:               0.3 elap:               0.2
 (Enter /opt/software/gaussian/g16.c01/l702.exe)
 L702 exits ... SP integral derivatives will be done elsewhere.
 Leave Link  702 at Tue Jan  3 09:07:20 2023, MaxMem=   536870912 cpu:               0.1 elap:               0.0
 (Enter /opt/software/gaussian/g16.c01/l703.exe)
 Integral derivatives from FoFJK, PRISM(SPDF).
 Compute integral first derivatives, UseDBF=F ICtDFT=           0.
 Calling FoFJK, ICntrl=      2127 FMM=F ISym2X=0 I1Cent= 0 IOpClX= 1 NMat=1 NMatS=1 NMatT=0.
 FoFJK:  IHMeth= 1 ICntrl=    2127 DoSepK=F KAlg= 0 I1Cent=           0 FoldK=F
 IRaf=         0 NMat=       1 IRICut=       1 DoRegI=T DoRafI=F ISym2E= 0 IDoP0=0 IntGTp=1.
 FoFCou: FMM=F IPFlag=           0 FMFlag=      100000 FMFlg1=         800
         NFxFlg=           0 DoJE=F BraDBF=F KetDBF=F FulRan=T
         wScrn=  0.000000 ICntrl=      2127 IOpCl=  1 I1Cent=           0 NGrid=           0
         NMat0=    1 NMatS0=      1 NMatT0=    0 NMatD0=    1 NMtDS0=    0 NMtDT0=    0
 Symmetry not used in FoFCou.
 Leave Link  703 at Tue Jan  3 09:07:30 2023, MaxMem=   536870912 cpu:              18.4 elap:               9.2
 (Enter /opt/software/gaussian/g16.c01/l716.exe)
 Dipole        =-6.95995079D-02 3.51778995D-02-9.27715482D-02
 -------------------------------------------------------------------
 Center     Atomic                   Forces (Hartrees/Bohr)
 Number     Number              X              Y              Z
 -------------------------------------------------------------------
      1        6          -0.002969217   -0.000355796    0.000348423
      2       16          -0.001486547    0.000707614   -0.001908779
      3        6           0.001448652    0.001163474   -0.002441365
      4        1           0.001939678    0.002540211   -0.005530672
      5        1           0.003034566   -0.002112278    0.005369588
      6        1           0.004400527   -0.001640617    0.004522004
      7        1          -0.006367659   -0.000302608   -0.000359199
 -------------------------------------------------------------------
 Cartesian Forces:  Max     0.006367659 RMS     0.003019061
 Z-matrix is all fixed cartesians, so copy forces.
 Force constants in Cartesian coordinates: 
                1             2             3             4             5 
      1  0.799457D+00
      2  0.386953D-01  0.202300D+00
      3  0.262318D-01 -0.197489D+00  0.573805D+00
      4 -0.458605D+00 -0.232735D-01 -0.165583D-01  0.577555D+00
      5 -0.320482D-01 -0.525335D-01  0.183029D-01  0.867656D-01  0.122175D+00
      6  0.365769D-02  0.197847D-01 -0.872720D-01 -0.110154D+00 -0.165608D+00
      7  0.122699D-02 -0.100692D-01  0.221250D-01 -0.139616D+00 -0.489763D-01
      8 -0.597775D-03  0.748286D-02  0.517705D-03 -0.577409D-01 -0.107626D+00
      9  0.278568D-03 -0.108316D-02  0.102956D-01  0.116790D+00  0.142526D+00
     10 -0.144909D+00 -0.441803D-01  0.836168D-01  0.115252D-02 -0.932375D-02
     11 -0.404522D-01 -0.846163D-01  0.105218D+00 -0.241587D-03  0.264194D-02
     12  0.750267D-01  0.104603D+00 -0.264763D+00  0.410365D-03 -0.299905D-02
     13 -0.197168D+00  0.388020D-01 -0.115426D+00 -0.916549D-03  0.691836D-02
     14  0.343779D-01 -0.722913D-01  0.735979D-01 -0.146773D-02  0.180903D-01
     15 -0.105206D+00  0.743316D-01 -0.232001D+00  0.158269D-03  0.144866D-02
     16 -0.246017D-04  0.336366D-03  0.145813D-03  0.192862D-01 -0.309494D-02
     17  0.337132D-03 -0.460942D-02 -0.199817D-02  0.528610D-02  0.146053D-01
     18  0.146171D-03 -0.199852D-02 -0.866351D-03 -0.120134D-01  0.780803D-02
     19  0.227250D-04 -0.310706D-03 -0.134690D-03  0.114404D-02 -0.240739D-03
     20 -0.312161D-03  0.426801D-02  0.185017D-02 -0.932793D-02  0.264671D-02
     21 -0.135369D-03  0.185083D-02  0.802328D-03  0.213670D-01 -0.147893D-02
                6             7             8             9            10 
      6  0.407473D+00
      7  0.965700D-01  0.667382D+00
      8  0.141042D+00  0.492959D-01  0.225135D+00
      9 -0.351317D+00 -0.206782D-01 -0.248346D+00  0.683203D+00
     10  0.213707D-01  0.228255D-04 -0.312081D-03 -0.135286D-03  0.115530D+00
     11 -0.146606D-02 -0.312069D-03  0.426675D-02  0.184962D-02  0.445604D-01
     12  0.901525D-02 -0.135235D-03  0.184900D-02  0.801534D-03 -0.864441D-01
     13 -0.191712D-01 -0.246447D-04  0.336954D-03  0.146068D-03  0.282041D-01
     14  0.324183D-04  0.336979D-03 -0.460733D-02 -0.199726D-02  0.925576D-02
     15  0.148968D-01  0.146176D-03 -0.199858D-02 -0.866379D-03 -0.184082D-01
     16  0.731953D-02 -0.179623D+00  0.329496D-01 -0.989913D-01  0.000000D+00
     17  0.921888D-02  0.373763D-01 -0.753070D-01  0.810589D-01  0.000000D+00
     18 -0.181486D-02 -0.109211D+00  0.803191D-01 -0.246533D+00  0.000000D+00
     19  0.407512D-03 -0.349368D+00 -0.239317D-01  0.258983D-02  0.000000D+00
     20 -0.300348D-02 -0.276515D-01 -0.493443D-01  0.259912D-01  0.000000D+00
     21  0.901933D-02  0.111835D-01  0.266169D-01 -0.955832D-01  0.000000D+00
               11            12            13            14            15 
     11  0.698063D-01
     12 -0.111340D+00  0.260624D+00
     13 -0.355446D-02  0.111423D-01  0.169905D+00
     14  0.790132D-02  0.788712D-02 -0.425029D-01  0.509070D-01
     15  0.573850D-02 -0.567740D-02  0.123309D+00 -0.795202D-01  0.223648D+00
     16  0.000000D+00  0.000000D+00  0.000000D+00  0.000000D+00  0.000000D+00
     17  0.000000D+00  0.000000D+00  0.000000D+00  0.000000D+00  0.000000D+00
     18  0.000000D+00  0.000000D+00  0.000000D+00  0.000000D+00  0.000000D+00
     19  0.000000D+00  0.000000D+00  0.000000D+00  0.000000D+00  0.000000D+00
     20  0.000000D+00  0.000000D+00  0.000000D+00  0.000000D+00  0.000000D+00
     21  0.000000D+00  0.000000D+00  0.000000D+00  0.000000D+00  0.000000D+00
               16            17            18            19            20 
     16  0.161831D+00
     17 -0.418445D-01  0.522901D-01
     18  0.120449D+00 -0.826089D-01  0.230340D+00
     19 -0.147004D-02 -0.115499D-02  0.629518D-03  0.349671D+00
     20  0.116534D-01  0.130211D-01 -0.351969D-02  0.256381D-01  0.294086D-01
     21 -0.289230D-01 -0.567069D-02  0.188748D-01 -0.349217D-02 -0.213182D-01
               21 
     21  0.668867D-01
 Leave Link  716 at Tue Jan  3 09:07:30 2023, MaxMem=   536870912 cpu:               0.1 elap:               0.0
 (Enter /opt/software/gaussian/g16.c01/l103.exe)

 GradGradGradGradGradGradGradGradGradGradGradGradGradGradGradGradGradGrad
 Berny optimization.
 Search for a local minimum.
 Step number   1 out of a maximum of    2
 All quantities printed in internal units (Hartrees-Bohrs-Radians)
 Second derivative matrix not updated -- first step.
 ITU=  0
     Eigenvalues ---    0.00860   0.01482   0.01804   0.07108   0.07556
     Eigenvalues ---    0.11270   0.14823   0.15345   0.17618   0.32617
     Eigenvalues ---    0.36576   0.82416   0.92900   1.11635   1.31988
 Angle between quadratic step and forces=  38.05 degrees.
 Linear search not attempted -- first point.
 B after Tr=    -0.002072    0.001059   -0.002731
         Rot=    1.000000   -0.000021   -0.000008    0.000015 Ang=  -0.00 deg.
 Variable       Old X    -DE/DX   Delta X   Delta X   Delta X     New X
                                 (Linear)    (Quad)   (Total)
    X1        1.85917  -0.00297   0.00000  -0.00068  -0.00275   1.85642
    Y1       -0.06153  -0.00036   0.00000  -0.00075   0.00025  -0.06127
    Z1        0.09233   0.00035   0.00000   0.00176  -0.00100   0.09132
    X2        4.92676  -0.00149   0.00000  -0.00548  -0.00755   4.91921
    Y2        0.18746   0.00071   0.00000   0.00261   0.00352   0.19098
    Z2        0.03552  -0.00191   0.00000  -0.00730  -0.01010   0.02543
    X3        6.09876   0.00145   0.00000   0.00202  -0.00004   6.09871
    Y3        1.39121   0.00116   0.00000   0.00015   0.00114   1.39235
    Z3       -2.54358  -0.00244   0.00000   0.00001  -0.00276  -2.54634
    X4        1.07794   0.00194   0.00000   0.01143   0.00936   1.08730
    Y4       -0.86461   0.00254   0.00000   0.00598   0.00693  -0.85767
    Z4        1.81365  -0.00553   0.00000  -0.01120  -0.01398   1.79967
    X5        0.64970   0.00303   0.00000  -0.00479  -0.00687   0.64283
    Y5        0.52577  -0.00211   0.00000  -0.01145  -0.01035   0.51541
    Z5       -1.46547   0.00537   0.00000   0.02531   0.02259  -1.44288
    X6        4.94205   0.00440   0.00000   0.02774   0.02567   4.96771
    Y6        1.99647  -0.00164   0.00000  -0.00021   0.00088   1.99734
    Z6       -4.13423   0.00452   0.00000   0.00506   0.00234  -4.13190
    X7        8.14558  -0.00637   0.00000  -0.01574  -0.01781   8.12778
    Y7        1.55646  -0.00030   0.00000  -0.00330  -0.00237   1.55409
    Z7       -2.58103  -0.00036   0.00000   0.00571   0.00292  -2.57811
         Item               Value     Threshold  Converged?
 Maximum Force            0.006368     0.000450     NO 
 RMS     Force            0.003019     0.000300     NO 
 Maximum Displacement     0.025665     0.001800     NO 
 RMS     Displacement     0.010191     0.001200     NO 
 Predicted change in Energy=-2.596273D-04
 GradGradGradGradGradGradGradGradGradGradGradGradGradGradGradGradGradGrad

 Leave Link  103 at Tue Jan  3 09:07:30 2023, MaxMem=   536870912 cpu:               0.0 elap:               0.0
 (Enter /opt/software/gaussian/g16.c01/l9999.exe)
 Unable to Open any file for archive entry.
 1\1\GINC-GRA774\Force\UB3LYP\Gen\C2H4S1\BHAVUK\03-Jan-2023\0\\#p ub3ly
 p/chkbasis force guess=read geom=check scf=(maxcycle=900,verytightline
 q,xqc) integral=grid=ultrafine symmetry=None density=current pop=(cm5,
 hlygat,mbs,npa) output=wfx\\0003_q000_m01_k00_opt_uwb97xd_def2svpd/000
 3_q000_m01_k00_force_ub3lyp_def2tzvpd stable-force\\0,1\C,0.9838325225
 ,-0.0325586033,0.0488580178\S,2.6071301422,0.0991997065,0.0187984451\C
 ,3.2273228911,0.736197977,-1.3460048506\H,0.570421034,-0.4575297175,0.
 9597448627\H,0.3438072589,0.2782232167,-0.7754915598\H,2.615218944,1.0
 564841772,-2.1877415072\H,4.3104572053,0.8236432464,-1.365823405\\Vers
 ion=ES64L-G16RevC.01\HF=-476.7918002\S2=0.\S2-1=0.\S2A=0.\RMSD=1.716e-
 10\RMSF=3.019e-03\Dipole=-0.0695995,0.0351779,-0.0927715\Quadrupole=0.
 6813376,-1.5608327,0.8794951,0.3394987,-0.2819721,-1.3202311\PG=Unknow
 n\\@
 The archive entry for this job was punched.

 Writing a WFNX file to "0003_q000_m01_k00_force_ub3lyp_def2tzvpd.wfx"


 NOTHING RESEMBLES A NEW PHENOMENON AS MUCH AS A MISTAKE.

                               -- ENRICO FERMI (?)
 Job cpu time:       0 days  0 hours  0 minutes 36.4 seconds.
 Elapsed time:       0 days  0 hours  0 minutes 18.1 seconds.
 File lengths (MBytes):  RWF=     21 Int=      0 D2E=      0 Chk=      5 Scr=      1
 Normal termination of Gaussian 16 at Tue Jan  3 09:07:30 2023.
