 Entering Gaussian System, Link 0=g16
 Input=0003_q000_m01_k00_force_uwb97xd_def2qzvp.com
 Output=0003_q000_m01_k00_force_uwb97xd_def2qzvp.log
 Initial command:
 /opt/software/gaussian/g16.c01/l1.exe "/localscratch/bhavuk.2151385.0/Gau-21098.inp" -scrdir="/localscratch/bhavuk.2151385.0/"
 Entering Link 1 = /opt/software/gaussian/g16.c01/l1.exe PID=     21100.
  
 Copyright (c) 1988-2019, Gaussian, Inc.  All Rights Reserved.
  
 This is part of the Gaussian(R) 16 program.  It is based on
 the Gaussian(R) 09 system (copyright 2009, Gaussian, Inc.),
 the Gaussian(R) 03 system (copyright 2003, Gaussian, Inc.),
 the Gaussian(R) 98 system (copyright 1998, Gaussian, Inc.),
 the Gaussian(R) 94 system (copyright 1995, Gaussian, Inc.),
 the Gaussian 92(TM) system (copyright 1992, Gaussian, Inc.),
 the Gaussian 90(TM) system (copyright 1990, Gaussian, Inc.),
 the Gaussian 88(TM) system (copyright 1988, Gaussian, Inc.),
 the Gaussian 86(TM) system (copyright 1986, Carnegie Mellon
 University), and the Gaussian 82(TM) system (copyright 1983,
 Carnegie Mellon University). Gaussian is a federally registered
 trademark of Gaussian, Inc.
  
 This software contains proprietary and confidential information,
 including trade secrets, belonging to Gaussian, Inc.
  
 This software is provided under written license and may be
 used, copied, transmitted, or stored only in accord with that
 written license.
  
 The following legend is applicable only to US Government
 contracts under FAR:
  
                    RESTRICTED RIGHTS LEGEND
  
 Use, reproduction and disclosure by the US Government is
 subject to restrictions as set forth in subparagraphs (a)
 and (c) of the Commercial Computer Software - Restricted
 Rights clause in FAR 52.227-19.
  
 Gaussian, Inc.
 340 Quinnipiac St., Bldg. 40, Wallingford CT 06492
  
  
 ---------------------------------------------------------------
 Warning -- This program may not be used in any manner that
 competes with the business of Gaussian, Inc. or will provide
 assistance to any competitor of Gaussian, Inc.  The licensee
 of this program is prohibited from giving any competitor of
 Gaussian, Inc. access to this program.  By using this program,
 the user acknowledges that Gaussian, Inc. is engaged in the
 business of creating and licensing software in the field of
 computational chemistry and represents and warrants to the
 licensee that it is not a competitor of Gaussian, Inc. and that
 it will not use this program in any manner prohibited above.
 ---------------------------------------------------------------
  

 Cite this work as:
 Gaussian 16, Revision C.01,
 M. J. Frisch, G. W. Trucks, H. B. Schlegel, G. E. Scuseria, 
 M. A. Robb, J. R. Cheeseman, G. Scalmani, V. Barone, 
 G. A. Petersson, H. Nakatsuji, X. Li, M. Caricato, A. V. Marenich, 
 J. Bloino, B. G. Janesko, R. Gomperts, B. Mennucci, H. P. Hratchian, 
 J. V. Ortiz, A. F. Izmaylov, J. L. Sonnenberg, D. Williams-Young, 
 F. Ding, F. Lipparini, F. Egidi, J. Goings, B. Peng, A. Petrone, 
 T. Henderson, D. Ranasinghe, V. G. Zakrzewski, J. Gao, N. Rega, 
 G. Zheng, W. Liang, M. Hada, M. Ehara, K. Toyota, R. Fukuda, 
 J. Hasegawa, M. Ishida, T. Nakajima, Y. Honda, O. Kitao, H. Nakai, 
 T. Vreven, K. Throssell, J. A. Montgomery, Jr., J. E. Peralta, 
 F. Ogliaro, M. J. Bearpark, J. J. Heyd, E. N. Brothers, K. N. Kudin, 
 V. N. Staroverov, T. A. Keith, R. Kobayashi, J. Normand, 
 K. Raghavachari, A. P. Rendell, J. C. Burant, S. S. Iyengar, 
 J. Tomasi, M. Cossi, J. M. Millam, M. Klene, C. Adamo, R. Cammi, 
 J. W. Ochterski, R. L. Martin, K. Morokuma, O. Farkas, 
 J. B. Foresman, and D. J. Fox, Gaussian, Inc., Wallingford CT, 2019.
 
 ******************************************
 Gaussian 16:  ES64L-G16RevC.01  3-Jul-2019
                 3-Jan-2023 
 ******************************************
 %chk=0003_q000_m01_k00_force_uwb97xd_def2qzvp.chk
 %nprocshared=2
 Will use up to    2 processors via shared memory.
 %mem=4GB
 ----------------------------------------------------------------------
 #p uwb97xd/gen stable=opt scf=(maxcycle=900,verytightlineq,xqc) integr
 al=grid=ultrafine symmetry=None density=current iop(99/18=-1) output=w
 fn
 ----------------------------------------------------------------------
 1/38=1,172=1/1;
 2/12=2,15=3,17=6,18=5,40=1/2;
 3/5=7,11=2,25=1,30=1,74=-58,75=-5,116=2/1,2,3;
 4//1;
 5/5=2,7=900,8=3,13=1,17=3,38=5/2,8;
 6/7=2,8=2,9=2,10=2,22=-1,28=1/1;
 8/6=1,10=90,11=11/1;
 9/8=-3,42=1,46=1/14;
 5/5=2,7=900,8=3,17=43,38=5/8(-2);
 6/7=2,8=2,9=2,10=2,22=-1,28=1/1;
 99/5=1,6=100,9=1,18=-1/99;
 Leave Link    1 at Tue Jan  3 09:05:41 2023, MaxMem=   536870912 cpu:               0.1 elap:               0.1
 (Enter /opt/software/gaussian/g16.c01/l101.exe)
 ----------------------------------------------------------------------
 0003_q000_m01_k00_opt_uwb97xd_def2svpd/0003_q000_m01_k00_force_uwb97xd
 _def2qzvp stable-force
 ----------------------------------------------------------------------
 Symbolic Z-matrix:
 Charge =  0 Multiplicity = 1
 C                     0.98383  -0.03256   0.04886 
 S                     2.60713   0.0992    0.0188 
 C                     3.22732   0.7362   -1.346 
 H                     0.57042  -0.45753   0.95974 
 H                     0.34381   0.27822  -0.77549 
 H                     2.61522   1.05648  -2.18774 
 H                     4.31046   0.82364  -1.36582 
 
 ITRead=  0  0  0  0  0  0  0
 MicOpt= -1 -1 -1 -1 -1 -1 -1
 NAtoms=      7 NQM=        7 NQMF=       0 NMMI=      0 NMMIF=      0
                NMic=       0 NMicF=      0.
                    Isotopes and Nuclear Properties:
 (Nuclear quadrupole moments (NQMom) in fm**2, nuclear magnetic moments (NMagM)
  in nuclear magnetons)

  Atom         1           2           3           4           5           6           7
 IAtWgt=          12          32          12           1           1           1           1
 AtmWgt=  12.0000000  31.9720718  12.0000000   1.0078250   1.0078250   1.0078250   1.0078250
 NucSpn=           0           0           0           1           1           1           1
 AtZEff=  -0.0000000  -0.0000000  -0.0000000  -0.0000000  -0.0000000  -0.0000000  -0.0000000
 NQMom=    0.0000000   0.0000000   0.0000000   0.0000000   0.0000000   0.0000000   0.0000000
 NMagM=    0.0000000   0.0000000   0.0000000   2.7928460   2.7928460   2.7928460   2.7928460
 AtZNuc=   6.0000000  16.0000000   6.0000000   1.0000000   1.0000000   1.0000000   1.0000000
 Leave Link  101 at Tue Jan  3 09:05:41 2023, MaxMem=   536870912 cpu:               0.4 elap:               0.2
 (Enter /opt/software/gaussian/g16.c01/l202.exe)
                          Input orientation:                          
 ---------------------------------------------------------------------
 Center     Atomic      Atomic             Coordinates (Angstroms)
 Number     Number       Type             X           Y           Z
 ---------------------------------------------------------------------
      1          6           0        0.983833   -0.032559    0.048858
      2         16           0        2.607130    0.099200    0.018798
      3          6           0        3.227323    0.736198   -1.346005
      4          1           0        0.570421   -0.457530    0.959745
      5          1           0        0.343807    0.278223   -0.775492
      6          1           0        2.615219    1.056484   -2.187742
      7          1           0        4.310457    0.823643   -1.365823
 ---------------------------------------------------------------------
                    Distance matrix (angstroms):
                    1          2          3          4          5
     1  C    0.000000
     2  S    1.628913   0.000000
     3  C    2.751341   1.628832   0.000000
     4  H    1.086841   2.311604   3.714915   0.000000
     5  H    1.088931   2.405323   2.974876   1.898350   0.000000
     6  H    2.974864   2.405260   1.088933   4.047234   2.785579
     7  H    3.714948   2.311562   1.086839   4.586670   4.047257
                    6          7
     6  H    0.000000
     7  H    1.898314   0.000000
 Symmetry turned off by external request.
 Stoichiometry    C2H4S
 Rotational constants (GHZ):          32.8865896           8.4327606           6.7117401
 Leave Link  202 at Tue Jan  3 09:05:41 2023, MaxMem=   536870912 cpu:               0.0 elap:               0.0
 (Enter /opt/software/gaussian/g16.c01/l301.exe)
 General basis read from cards:  (5D, 7F)
 Centers:       4      5      6      7
 S 4 1.00
     Exponent=  1.9069169000D+02 Coefficients=  7.0815167000D-04
     Exponent=  2.8605532000D+01 Coefficients=  5.4678827000D-03
     Exponent=  6.5095943000D+00 Coefficients=  2.7966605000D-02
     Exponent=  1.8412455000D+00 Coefficients=  1.0764538000D-01
 S 1 1.00
     Exponent=  5.9853725000D-01 Coefficients=  1.0000000000D+00
 S 1 1.00
     Exponent=  2.1397624000D-01 Coefficients=  1.0000000000D+00
 S 1 1.00
     Exponent=  8.0316286000D-02 Coefficients=  1.0000000000D+00
 P 1 1.00
     Exponent=  2.2920000000D+00 Coefficients=  1.0000000000D+00
 P 1 1.00
     Exponent=  8.3800000000D-01 Coefficients=  1.0000000000D+00
 P 1 1.00
     Exponent=  2.9200000000D-01 Coefficients=  1.0000000000D+00
 D 1 1.00
     Exponent=  2.0620000000D+00 Coefficients=  1.0000000000D+00
 D 1 1.00
     Exponent=  6.6200000000D-01 Coefficients=  1.0000000000D+00
 F 1 1.00
     Exponent=  1.3970000000D+00 Coefficients=  1.0000000000D+00
 ****
 Centers:       1      3
 S 8 1.00
     Exponent=  6.7025071029D+04 Coefficients=  3.8736308501D-05
     Exponent=  1.0039986538D+04 Coefficients=  3.0107917575D-04
     Exponent=  2.2849316911D+03 Coefficients=  1.5787918095D-03
     Exponent=  6.4714122130D+02 Coefficients=  6.6087087195D-03
     Exponent=  2.1109472335D+02 Coefficients=  2.3367123250D-02
     Exponent=  7.6177643862D+01 Coefficients=  7.0420716898D-02
     Exponent=  2.9633839163D+01 Coefficients=  1.7360344953D-01
     Exponent=  1.2187785081D+01 Coefficients=  3.2292305648D-01
 S 2 1.00
     Exponent=  5.3026006299D+01 Coefficients=  7.4897404492D-02
     Exponent=  1.5258502776D+01 Coefficients=  7.6136220983D-01
 S 1 1.00
     Exponent=  5.2403957464D+00 Coefficients=  1.0000000000D+00
 S 1 1.00
     Exponent=  2.2905022379D+00 Coefficients=  1.0000000000D+00
 S 1 1.00
     Exponent=  6.9673283006D-01 Coefficients=  1.0000000000D+00
 S 1 1.00
     Exponent=  2.7599337363D-01 Coefficients=  1.0000000000D+00
 S 1 1.00
     Exponent=  1.0739884389D-01 Coefficients=  1.0000000000D+00
 P 5 1.00
     Exponent=  1.0512555082D+02 Coefficients=  8.4647553844D-04
     Exponent=  2.4884461066D+01 Coefficients=  6.6274038534D-03
     Exponent=  7.8637230826D+00 Coefficients=  3.0120390419D-02
     Exponent=  2.8407001835D+00 Coefficients=  9.9951435476D-02
     Exponent=  1.1227137335D+00 Coefficients=  2.3826299282D-01
 P 1 1.00
     Exponent=  4.6050725555D-01 Coefficients=  1.0000000000D+00
 P 1 1.00
     Exponent=  1.8937530913D-01 Coefficients=  1.0000000000D+00
 P 1 1.00
     Exponent=  7.5983791611D-02 Coefficients=  1.0000000000D+00
 D 1 1.00
     Exponent=  1.8480000000D+00 Coefficients=  1.0000000000D+00
 D 1 1.00
     Exponent=  6.4900000000D-01 Coefficients=  1.0000000000D+00
 D 1 1.00
     Exponent=  2.2800000000D-01 Coefficients=  1.0000000000D+00
 F 1 1.00
     Exponent=  1.4190000000D+00 Coefficients=  1.0000000000D+00
 F 1 1.00
     Exponent=  4.8500000000D-01 Coefficients=  1.0000000000D+00
 G 1 1.00
     Exponent=  1.0110000000D+00 Coefficients=  1.0000000000D+00
 ****
 Centers:       2
 S 10 1.00
     Exponent=  1.2734109023D+06 Coefficients=  1.1767088246D-05
     Exponent=  1.9069783007D+05 Coefficients=  9.1478610166D-05
     Exponent=  4.3397885330D+04 Coefficients=  4.8090078640D-04
     Exponent=  1.2291809677D+04 Coefficients=  2.0257193592D-03
     Exponent=  4.0097420824D+03 Coefficients=  7.3190096406D-03
     Exponent=  1.4473531030D+03 Coefficients=  2.3300499900D-02
     Exponent=  5.6430102913D+02 Coefficients=  6.5386213610D-02
     Exponent=  2.3374506243D+02 Coefficients=  1.5614449910D-01
     Exponent=  1.0156402814D+02 Coefficients=  2.9318563787D-01
     Exponent=  4.5805907187D+01 Coefficients=  3.6287914289D-01
 S 3 1.00
     Exponent=  3.9427281503D+02 Coefficients=  1.8753305081D-02
     Exponent=  1.2172249591D+02 Coefficients=  1.6870726663D-01
     Exponent=  4.6754125963D+01 Coefficients=  6.3806830653D-01
 S 1 1.00
     Exponent=  2.0923008254D+01 Coefficients=  1.0000000000D+00
 S 1 1.00
     Exponent=  8.2685567800D+00 Coefficients=  1.0000000000D+00
 S 1 1.00
     Exponent=  3.8629345671D+00 Coefficients=  1.0000000000D+00
 S 1 1.00
     Exponent=  1.7794684781D+00 Coefficients=  1.0000000000D+00
 S 1 1.00
     Exponent=  6.1064260103D-01 Coefficients=  1.0000000000D+00
 S 1 1.00
     Exponent=  2.7412269445D-01 Coefficients=  1.0000000000D+00
 S 1 1.00
     Exponent=  1.1325939107D-01 Coefficients=  1.0000000000D+00
 P 8 1.00
     Exponent=  2.1898930459D+03 Coefficients=  2.3912552864D-04
     Exponent=  5.1894596592D+02 Coefficients=  2.0772032158D-03
     Exponent=  1.6819560151D+02 Coefficients=  1.1242420571D-02
     Exponent=  6.3745282788D+01 Coefficients=  4.4069933941D-02
     Exponent=  2.6597033077D+01 Coefficients=  1.2918778608D-01
     Exponent=  1.1774251449D+01 Coefficients=  2.6910820167D-01
     Exponent=  5.3534379024D+00 Coefficients=  3.7855928620D-01
     Exponent=  2.4701911802D+00 Coefficients=  2.9692134655D-01
 P 2 1.00
     Exponent=  8.2120288349D+01 Coefficients= -3.9420318847D-02
     Exponent=  4.9523532869D+00 Coefficients=  6.4048403090D-01
 P 1 1.00
     Exponent=  1.0828262029D+00 Coefficients=  1.0000000000D+00
 P 1 1.00
     Exponent=  4.9271277356D-01 Coefficients=  1.0000000000D+00
 P 1 1.00
     Exponent=  2.0483450942D-01 Coefficients=  1.0000000000D+00
 P 1 1.00
     Exponent=  8.0743615716D-02 Coefficients=  1.0000000000D+00
 D 1 1.00
     Exponent=  4.1590000000D+00 Coefficients=  1.0000000000D+00
 D 1 1.00
     Exponent=  1.0190000000D+00 Coefficients=  1.0000000000D+00
 D 1 1.00
     Exponent=  4.6400000000D-01 Coefficients=  1.0000000000D+00
 D 1 1.00
     Exponent=  1.9400000000D-01 Coefficients=  1.0000000000D+00
 F 1 1.00
     Exponent=  8.6900000000D-01 Coefficients=  1.0000000000D+00
 F 1 1.00
     Exponent=  3.3500000000D-01 Coefficients=  1.0000000000D+00
 G 1 1.00
     Exponent=  6.8300000000D-01 Coefficients=  1.0000000000D+00
 ****
 Ernie: Thresh=  0.10000D-02 Tol=  0.10000D-05 Strict=F.
   304 basis functions,   457 primitive gaussians,   370 cartesian basis functions
    16 alpha electrons       16 beta electrons
       nuclear repulsion energy       100.3080120317 Hartrees.
 IExCor= 4639 DFT=T Ex+Corr=wB97XD ExCW=0 ScaHFX=  1.000000
 ScaDFX=  1.000000  1.000000  1.000000  1.000000 ScalE2=  1.000000  1.000000
 IRadAn=      5 IRanWt=     -1 IRanGd=            0 ICorTp=0 IEmpDi=121
 HFx  wShort=  0.000000 wLong=  0.200000 cFull=  0.222036 cShort=  0.000000 cLong=  0.777964
 DFx  wShort=  0.000000 wLong=  0.200000 cFull=  0.000000 cShort=  0.000000 cLong=  1.000000
 NAtoms=    7 NActive=    7 NUniq=    7 SFac= 1.00D+00 NAtFMM=   60 NAOKFM=F Big=F
 Integral buffers will be    131072 words long.
 Raffenetti 2 integral format.
 Two-electron integral symmetry is turned off.
 R6Disp:  Grimme-D2 Dispersion energy=       -0.0011997330 Hartrees.
 Nuclear repulsion after empirical dispersion term =      100.3068122987 Hartrees.
 Leave Link  301 at Tue Jan  3 09:05:41 2023, MaxMem=   536870912 cpu:               0.2 elap:               0.1
 (Enter /opt/software/gaussian/g16.c01/l302.exe)
 NPDir=0 NMtPBC=     1 NCelOv=     1 NCel=       1 NClECP=     1 NCelD=      1
         NCelK=      1 NCelE2=     1 NClLst=     1 CellRange=     0.0.
 One-electron integrals computed using PRISM.
 NBasis=   304 RedAO= T EigKep=  1.23D-04  NBF=   304
 NBsUse=   304 1.00D-06 EigRej= -1.00D+00 NBFU=   304
 Precomputing XC quadrature grid using
 IXCGrd= 4 IRadAn=           5 IRanWt=          -1 IRanGd=           0 AccXCQ= 0.00D+00.
 Generated NRdTot=       0 NPtTot=           0 NUsed=           0 NTot=          32
 NSgBfM=   369   369   369   369   369 MxSgAt=     7 MxSgA2=     7.
 Leave Link  302 at Tue Jan  3 09:05:42 2023, MaxMem=   536870912 cpu:               0.6 elap:               0.3
 (Enter /opt/software/gaussian/g16.c01/l303.exe)
 DipDrv:  MaxL=1.
 Leave Link  303 at Tue Jan  3 09:05:42 2023, MaxMem=   536870912 cpu:               0.1 elap:               0.1
 (Enter /opt/software/gaussian/g16.c01/l401.exe)
 ExpMin= 7.60D-02 ExpMax= 1.27D+06 ExpMxC= 1.45D+03 IAcc=3 IRadAn=         5 AccDes= 0.00D+00
 Harris functional with IExCor= 4639 and IRadAn=       5 diagonalized for initial guess.
 HarFok:  IExCor= 4639 AccDes= 0.00D+00 IRadAn=         5 IDoV= 1 UseB2=F ITyADJ=14
 ICtDFT=  3500011 ScaDFX=  1.000000  1.000000  1.000000  1.000000
 FoFCou: FMM=F IPFlag=           0 FMFlag=      100000 FMFlg1=           0
         NFxFlg=           0 DoJE=T BraDBF=F KetDBF=T FulRan=T
         wScrn=  0.000000 ICntrl=       500 IOpCl=  0 I1Cent=   200000004 NGrid=           0
         NMat0=    1 NMatS0=      1 NMatT0=    0 NMatD0=    1 NMtDS0=    0 NMtDT0=    0
 Symmetry not used in FoFCou.
 Harris En= -465.989335966053    
 JPrj=0 DoOrth=F DoCkMO=F.
 Initial guess <Sx>= 0.0000 <Sy>= 0.0000 <Sz>= 0.0000 <S**2>=-0.0000 S=-0.0000
 Leave Link  401 at Tue Jan  3 09:05:44 2023, MaxMem=   536870912 cpu:               4.4 elap:               2.2
 (Enter /opt/software/gaussian/g16.c01/l502.exe)
 Two-electron integral symmetry not used.
 UHF open shell SCF:
 Using DIIS extrapolation, IDIIS=  1040.
 NGot=   536870912 LenX=   536592512 LenY=   536455171
 Requested convergence on RMS density matrix=1.00D-08 within 128 cycles.
 Requested convergence on MAX density matrix=1.00D-06.
 Requested convergence on             energy=1.00D-06.
 No special actions if energy rises.
 Fock matrices will be formed incrementally for  20 cycles.
 Integral accuracy reduced to 1.0D-05 until final iterations.

 Cycle   1  Pass 0  IDiag  1:
 FoFJK:  IHMeth= 1 ICntrl=       0 DoSepK=T KAlg= 0 I1Cent=           0 FoldK=F
 IRaf=         1 NMat=       1 IRICut=       1 DoRegI=T DoRafI=F ISym2E= 0 IDoP0=0 IntGTp=1.
 FoFCou: FMM=F IPFlag=           0 FMFlag=      100000 FMFlg1=           0
         NFxFlg=           0 DoJE=T BraDBF=F KetDBF=F FulRan=T
         wScrn=  0.000000 ICntrl=       500 IOpCl=  0 I1Cent=           0 NGrid=           0
         NMat0=    1 NMatS0=      1 NMatT0=    0 NMatD0=    1 NMtDS0=    0 NMtDT0=    0
 Symmetry not used in FoFCou.
 E= -476.541845074907    
 DIIS: error= 9.31D-02 at cycle   1 NSaved=   1.
 NSaved= 1 IEnMin= 1 EnMin= -476.541845074907     IErMin= 1 ErrMin= 9.31D-02
 ErrMax= 9.31D-02  0.00D+00 EMaxC= 1.00D-01 BMatC= 5.76D+00 BMatP= 5.76D+00
 IDIUse=3 WtCom= 6.92D-02 WtEn= 9.31D-01
 Coeff-Com:  0.100D+01
 Coeff-En:   0.100D+01
 Coeff:      0.100D+01
 Gap=     0.201 Goal=   None    Shift=    0.000
 Gap=     0.201 Goal=   None    Shift=    0.000
 GapD=    0.201 DampG=1.000 DampE=0.500 DampFc=0.5000 IDamp=-1.
 Damping current iteration by 5.00D-01
 RMSDP=1.74D-03 MaxDP=1.13D-01              OVMax= 2.96D-01

 Cycle   2  Pass 0  IDiag  1:
 RMSU=  8.50D-04    CP:  1.02D+00
 E= -476.648485505574     Delta-E=       -0.106640430668 Rises=F Damp=T
 DIIS: error= 4.03D-02 at cycle   2 NSaved=   2.
 NSaved= 2 IEnMin= 2 EnMin= -476.648485505574     IErMin= 2 ErrMin= 4.03D-02
 ErrMax= 4.03D-02  0.00D+00 EMaxC= 1.00D-01 BMatC= 8.31D-01 BMatP= 5.76D+00
 IDIUse=3 WtCom= 5.97D-01 WtEn= 4.03D-01
 Coeff-Com: -0.447D+00 0.145D+01
 Coeff-En:   0.000D+00 0.100D+01
 Coeff:     -0.267D+00 0.127D+01
 Gap=     0.295 Goal=   None    Shift=    0.000
 Gap=     0.295 Goal=   None    Shift=    0.000
 RMSDP=4.53D-04 MaxDP=2.39D-02 DE=-1.07D-01 OVMax= 1.74D-01

 Cycle   3  Pass 0  IDiag  1:
 RMSU=  4.46D-04    CP:  1.02D+00  1.09D+00
 E= -476.741650839255     Delta-E=       -0.093165333681 Rises=F Damp=F
 DIIS: error= 1.09D-02 at cycle   3 NSaved=   3.
 NSaved= 3 IEnMin= 3 EnMin= -476.741650839255     IErMin= 3 ErrMin= 1.09D-02
 ErrMax= 1.09D-02  0.00D+00 EMaxC= 1.00D-01 BMatC= 4.97D-02 BMatP= 8.31D-01
 IDIUse=3 WtCom= 8.91D-01 WtEn= 1.09D-01
 Coeff-Com: -0.156D+00 0.399D+00 0.757D+00
 Coeff-En:   0.000D+00 0.000D+00 0.100D+01
 Coeff:     -0.139D+00 0.355D+00 0.784D+00
 Gap=     0.277 Goal=   None    Shift=    0.000
 Gap=     0.277 Goal=   None    Shift=    0.000
 RMSDP=2.48D-04 MaxDP=1.37D-02 DE=-9.32D-02 OVMax= 5.96D-02

 Cycle   4  Pass 0  IDiag  1:
 RMSU=  1.35D-04    CP:  1.02D+00  1.31D+00  7.65D-01
 E= -476.752696811373     Delta-E=       -0.011045972118 Rises=F Damp=F
 DIIS: error= 2.76D-03 at cycle   4 NSaved=   4.
 NSaved= 4 IEnMin= 4 EnMin= -476.752696811373     IErMin= 4 ErrMin= 2.76D-03
 ErrMax= 2.76D-03  0.00D+00 EMaxC= 1.00D-01 BMatC= 5.25D-03 BMatP= 4.97D-02
 IDIUse=3 WtCom= 9.72D-01 WtEn= 2.76D-02
 Coeff-Com: -0.121D-01 0.289D-01 0.270D+00 0.713D+00
 Coeff-En:   0.000D+00 0.000D+00 0.000D+00 0.100D+01
 Coeff:     -0.117D-01 0.281D-01 0.263D+00 0.721D+00
 Gap=     0.284 Goal=   None    Shift=    0.000
 Gap=     0.284 Goal=   None    Shift=    0.000
 RMSDP=6.65D-05 MaxDP=2.93D-03 DE=-1.10D-02 OVMax= 9.98D-03

 Cycle   5  Pass 0  IDiag  1:
 RMSU=  3.57D-05    CP:  1.02D+00  1.27D+00  8.67D-01  8.79D-01
 E= -476.753934682948     Delta-E=       -0.001237871575 Rises=F Damp=F
 DIIS: error= 2.98D-04 at cycle   5 NSaved=   5.
 NSaved= 5 IEnMin= 5 EnMin= -476.753934682948     IErMin= 5 ErrMin= 2.98D-04
 ErrMax= 2.98D-04  0.00D+00 EMaxC= 1.00D-01 BMatC= 5.05D-05 BMatP= 5.25D-03
 IDIUse=3 WtCom= 9.97D-01 WtEn= 2.98D-03
 Coeff-Com:  0.297D-02-0.664D-02 0.350D-01 0.151D+00 0.818D+00
 Coeff-En:   0.000D+00 0.000D+00 0.000D+00 0.000D+00 0.100D+01
 Coeff:      0.296D-02-0.662D-02 0.349D-01 0.150D+00 0.819D+00
 Gap=     0.284 Goal=   None    Shift=    0.000
 Gap=     0.284 Goal=   None    Shift=    0.000
 RMSDP=1.37D-05 MaxDP=6.66D-04 DE=-1.24D-03 OVMax= 1.47D-03

 Cycle   6  Pass 0  IDiag  1:
 RMSU=  1.04D-05    CP:  1.02D+00  1.27D+00  8.78D-01  9.28D-01  1.09D+00
 E= -476.753950902024     Delta-E=       -0.000016219075 Rises=F Damp=F
 DIIS: error= 1.60D-04 at cycle   6 NSaved=   6.
 NSaved= 6 IEnMin= 6 EnMin= -476.753950902024     IErMin= 6 ErrMin= 1.60D-04
 ErrMax= 1.60D-04  0.00D+00 EMaxC= 1.00D-01 BMatC= 4.85D-06 BMatP= 5.05D-05
 IDIUse=3 WtCom= 9.98D-01 WtEn= 1.60D-03
 Coeff-Com:  0.152D-02-0.357D-02-0.248D-01-0.691D-01 0.120D+00 0.976D+00
 Coeff-En:   0.000D+00 0.000D+00 0.000D+00 0.000D+00 0.000D+00 0.100D+01
 Coeff:      0.152D-02-0.357D-02-0.248D-01-0.690D-01 0.120D+00 0.976D+00
 Gap=     0.284 Goal=   None    Shift=    0.000
 Gap=     0.284 Goal=   None    Shift=    0.000
 RMSDP=7.00D-06 MaxDP=2.74D-04 DE=-1.62D-05 OVMax= 9.91D-04

 Initial convergence to 1.0D-05 achieved.  Increase integral accuracy.
 Cycle   7  Pass 1  IDiag  1:
 E= -476.753975072436     Delta-E=       -0.000024170413 Rises=F Damp=F
 DIIS: error= 6.58D-05 at cycle   1 NSaved=   1.
 NSaved= 1 IEnMin= 1 EnMin= -476.753975072436     IErMin= 1 ErrMin= 6.58D-05
 ErrMax= 6.58D-05  0.00D+00 EMaxC= 1.00D-01 BMatC= 6.89D-06 BMatP= 6.89D-06
 IDIUse=1 WtCom= 1.00D+00 WtEn= 0.00D+00
 Coeff-Com:  0.100D+01
 Coeff:      0.100D+01
 Gap=     0.284 Goal=   None    Shift=    0.000
 Gap=     0.284 Goal=   None    Shift=    0.000
 RMSDP=7.00D-06 MaxDP=2.74D-04 DE=-2.42D-05 OVMax= 1.46D-04

 Cycle   8  Pass 1  IDiag  1:
 RMSU=  6.03D-06    CP:  1.00D+00
 E= -476.753975649238     Delta-E=       -0.000000576802 Rises=F Damp=F
 DIIS: error= 1.51D-05 at cycle   2 NSaved=   2.
 NSaved= 2 IEnMin= 2 EnMin= -476.753975649238     IErMin= 2 ErrMin= 1.51D-05
 ErrMax= 1.51D-05  0.00D+00 EMaxC= 1.00D-01 BMatC= 8.01D-08 BMatP= 6.89D-06
 IDIUse=1 WtCom= 1.00D+00 WtEn= 0.00D+00
 Coeff-Com: -0.411D-01 0.104D+01
 Coeff:     -0.411D-01 0.104D+01
 Gap=     0.284 Goal=   None    Shift=    0.000
 Gap=     0.284 Goal=   None    Shift=    0.000
 RMSDP=7.65D-07 MaxDP=4.67D-05 DE=-5.77D-07 OVMax= 1.37D-04

 Cycle   9  Pass 1  IDiag  1:
 RMSU=  5.70D-07    CP:  1.00D+00  1.08D+00
 E= -476.753975658009     Delta-E=       -0.000000008771 Rises=F Damp=F
 DIIS: error= 9.10D-06 at cycle   3 NSaved=   3.
 NSaved= 3 IEnMin= 3 EnMin= -476.753975658009     IErMin= 3 ErrMin= 9.10D-06
 ErrMax= 9.10D-06  0.00D+00 EMaxC= 1.00D-01 BMatC= 7.10D-08 BMatP= 8.01D-08
 IDIUse=1 WtCom= 1.00D+00 WtEn= 0.00D+00
 Coeff-Com: -0.305D-01 0.529D+00 0.502D+00
 Coeff:     -0.305D-01 0.529D+00 0.502D+00
 Gap=     0.284 Goal=   None    Shift=    0.000
 Gap=     0.284 Goal=   None    Shift=    0.000
 RMSDP=2.36D-07 MaxDP=9.87D-06 DE=-8.77D-09 OVMax= 4.60D-05

 Cycle  10  Pass 1  IDiag  1:
 RMSU=  2.18D-07    CP:  1.00D+00  1.08D+00  8.47D-01
 E= -476.753975674518     Delta-E=       -0.000000016510 Rises=F Damp=F
 DIIS: error= 1.60D-06 at cycle   4 NSaved=   4.
 NSaved= 4 IEnMin= 4 EnMin= -476.753975674518     IErMin= 4 ErrMin= 1.60D-06
 ErrMax= 1.60D-06  0.00D+00 EMaxC= 1.00D-01 BMatC= 1.63D-09 BMatP= 7.10D-08
 IDIUse=1 WtCom= 1.00D+00 WtEn= 0.00D+00
 Coeff-Com: -0.592D-02 0.759D-01 0.942D-01 0.836D+00
 Coeff:     -0.592D-02 0.759D-01 0.942D-01 0.836D+00
 Gap=     0.284 Goal=   None    Shift=    0.000
 Gap=     0.284 Goal=   None    Shift=    0.000
 RMSDP=9.66D-08 MaxDP=3.87D-06 DE=-1.65D-08 OVMax= 1.58D-05

 Cycle  11  Pass 1  IDiag  1:
 RMSU=  6.19D-08    CP:  1.00D+00  1.09D+00  9.48D-01  1.20D+00
 E= -476.753975674985     Delta-E=       -0.000000000467 Rises=F Damp=F
 DIIS: error= 1.55D-06 at cycle   5 NSaved=   5.
 NSaved= 5 IEnMin= 5 EnMin= -476.753975674985     IErMin= 5 ErrMin= 1.55D-06
 ErrMax= 1.55D-06  0.00D+00 EMaxC= 1.00D-01 BMatC= 9.23D-10 BMatP= 1.63D-09
 IDIUse=1 WtCom= 1.00D+00 WtEn= 0.00D+00
 Coeff-Com:  0.119D-02-0.343D-01-0.367D-01 0.413D+00 0.656D+00
 Coeff:      0.119D-02-0.343D-01-0.367D-01 0.413D+00 0.656D+00
 Gap=     0.284 Goal=   None    Shift=    0.000
 Gap=     0.284 Goal=   None    Shift=    0.000
 RMSDP=4.81D-08 MaxDP=1.64D-06 DE=-4.67D-10 OVMax= 9.39D-06

 Cycle  12  Pass 1  IDiag  1:
 RMSU=  2.73D-08    CP:  1.00D+00  1.09D+00  9.79D-01  1.35D+00  8.08D-01
 E= -476.753975675280     Delta-E=       -0.000000000295 Rises=F Damp=F
 DIIS: error= 4.37D-07 at cycle   6 NSaved=   6.
 NSaved= 6 IEnMin= 6 EnMin= -476.753975675280     IErMin= 6 ErrMin= 4.37D-07
 ErrMax= 4.37D-07  0.00D+00 EMaxC= 1.00D-01 BMatC= 1.20D-10 BMatP= 9.23D-10
 IDIUse=1 WtCom= 1.00D+00 WtEn= 0.00D+00
 Coeff-Com:  0.193D-02-0.340D-01-0.420D-01-0.112D-01 0.282D+00 0.803D+00
 Coeff:      0.193D-02-0.340D-01-0.420D-01-0.112D-01 0.282D+00 0.803D+00
 Gap=     0.284 Goal=   None    Shift=    0.000
 Gap=     0.284 Goal=   None    Shift=    0.000
 RMSDP=2.48D-08 MaxDP=1.16D-06 DE=-2.95D-10 OVMax= 3.24D-06

 Cycle  13  Pass 1  IDiag  1:
 RMSU=  7.17D-09    CP:  1.00D+00  1.09D+00  1.00D+00  1.42D+00  1.00D+00
                    CP:  1.12D+00
 E= -476.753975675320     Delta-E=       -0.000000000040 Rises=F Damp=F
 DIIS: error= 6.94D-08 at cycle   7 NSaved=   7.
 NSaved= 7 IEnMin= 7 EnMin= -476.753975675320     IErMin= 7 ErrMin= 6.94D-08
 ErrMax= 6.94D-08  0.00D+00 EMaxC= 1.00D-01 BMatC= 1.40D-12 BMatP= 1.20D-10
 IDIUse=1 WtCom= 1.00D+00 WtEn= 0.00D+00
 Coeff-Com: -0.924D-04 0.270D-02 0.375D-03-0.240D-01-0.331D-01-0.114D-01
 Coeff-Com:  0.107D+01
 Coeff:     -0.924D-04 0.270D-02 0.375D-03-0.240D-01-0.331D-01-0.114D-01
 Coeff:      0.107D+01
 Gap=     0.284 Goal=   None    Shift=    0.000
 Gap=     0.284 Goal=   None    Shift=    0.000
 RMSDP=4.92D-09 MaxDP=1.75D-07 DE=-3.99D-11 OVMax= 8.89D-07

 SCF Done:  E(UwB97XD) =  -476.753975675     A.U. after   13 cycles
            NFock= 13  Conv=0.49D-08     -V/T= 2.0024
 <Sx>= 0.0000 <Sy>= 0.0000 <Sz>= 0.0000 <S**2>=-0.0000 S=-0.0000
 <L.S>=  0.00000000000    
 KE= 4.756151243369D+02 PE=-1.328954474838D+03 EE= 2.762785625268D+02
 Annihilation of the first spin contaminant:
 S**2 before annihilation    -0.0000,   after     0.0000
 Leave Link  502 at Tue Jan  3 09:11:43 2023, MaxMem=   536870912 cpu:             718.0 elap:             359.2
 (Enter /opt/software/gaussian/g16.c01/l508.exe)
 QCSCF skips out because SCF is already converged.
 Leave Link  508 at Tue Jan  3 09:11:43 2023, MaxMem=   536870912 cpu:               0.0 elap:               0.0
 (Enter /opt/software/gaussian/g16.c01/l601.exe)
 Copying SCF densities to generalized density rwf, IOpCl= 1 IROHF=0.

 **********************************************************************

            Population analysis using the SCF Density.

 **********************************************************************

 Alpha  occ. eigenvalues --  -89.08601 -10.30027 -10.30026  -8.11661  -6.06280
 Alpha  occ. eigenvalues --   -6.06265  -6.05929  -0.94975  -0.79431  -0.66455
 Alpha  occ. eigenvalues --   -0.55759  -0.54613  -0.48675  -0.44640  -0.41564
 Alpha  occ. eigenvalues --   -0.27430
 Alpha virt. eigenvalues --    0.01006   0.10282   0.10473   0.12631   0.13862
 Alpha virt. eigenvalues --    0.15423   0.18728   0.19382   0.19755   0.23874
 Alpha virt. eigenvalues --    0.24639   0.25194   0.25226   0.28036   0.29968
 Alpha virt. eigenvalues --    0.31124   0.36321   0.37133   0.37392   0.39083
 Alpha virt. eigenvalues --    0.41028   0.42361   0.44957   0.47703   0.49697
 Alpha virt. eigenvalues --    0.52693   0.55750   0.56609   0.60153   0.61448
 Alpha virt. eigenvalues --    0.66739   0.69493   0.74164   0.74594   0.76042
 Alpha virt. eigenvalues --    0.77983   0.78934   0.79321   0.83518   0.85920
 Alpha virt. eigenvalues --    0.87344   0.87723   0.88693   0.89368   0.89906
 Alpha virt. eigenvalues --    0.91686   0.97039   0.98243   1.01077   1.02251
 Alpha virt. eigenvalues --    1.03465   1.05477   1.08029   1.08636   1.11152
 Alpha virt. eigenvalues --    1.12854   1.12941   1.14299   1.16467   1.20688
 Alpha virt. eigenvalues --    1.22776   1.31390   1.32312   1.36551   1.37617
 Alpha virt. eigenvalues --    1.43400   1.46408   1.48982   1.50462   1.50856
 Alpha virt. eigenvalues --    1.58376   1.60519   1.68244   1.69338   1.76221
 Alpha virt. eigenvalues --    1.76686   1.85276   1.90191   1.91071   1.95753
 Alpha virt. eigenvalues --    1.96550   1.96799   1.97304   2.01570   2.01716
 Alpha virt. eigenvalues --    2.02248   2.05015   2.08085   2.09702   2.13186
 Alpha virt. eigenvalues --    2.17773   2.18703   2.23750   2.26993   2.28917
 Alpha virt. eigenvalues --    2.33668   2.35902   2.37919   2.38797   2.41119
 Alpha virt. eigenvalues --    2.42691   2.44755   2.47070   2.47913   2.54143
 Alpha virt. eigenvalues --    2.56300   2.57922   2.62698   2.65702   2.67839
 Alpha virt. eigenvalues --    2.68157   2.70586   2.70693   2.71112   2.72871
 Alpha virt. eigenvalues --    2.79828   2.82503   2.82756   2.84647   2.85077
 Alpha virt. eigenvalues --    2.90643   2.91109   2.93902   2.97959   3.06162
 Alpha virt. eigenvalues --    3.07725   3.16219   3.16993   3.19266   3.31025
 Alpha virt. eigenvalues --    3.32698   3.35797   3.36036   3.38200   3.39661
 Alpha virt. eigenvalues --    3.43131   3.45279   3.45833   3.47537   3.50055
 Alpha virt. eigenvalues --    3.58803   3.60675   3.61520   3.63060   3.63510
 Alpha virt. eigenvalues --    3.64987   3.77123   3.78365   3.82579   3.84587
 Alpha virt. eigenvalues --    3.88342   3.89332   3.92626   3.99294   4.06054
 Alpha virt. eigenvalues --    4.13694   4.17336   4.19675   4.35244   4.38276
 Alpha virt. eigenvalues --    4.65336   4.66982   5.01474   5.11816   5.31093
 Alpha virt. eigenvalues --    5.31258   5.34590   5.36046   5.38170   5.38280
 Alpha virt. eigenvalues --    5.38388   5.43029   5.43109   5.43344   5.47656
 Alpha virt. eigenvalues --    5.51672   5.63134   5.66454   5.80894   5.84703
 Alpha virt. eigenvalues --    5.86340   5.87290   5.93402   5.95218   5.97341
 Alpha virt. eigenvalues --    6.03188   6.05378   6.06442   6.07533   6.09574
 Alpha virt. eigenvalues --    6.13108   6.14149   6.25305   6.27467   6.32019
 Alpha virt. eigenvalues --    6.35663   6.38436   6.38879   6.45253   6.49107
 Alpha virt. eigenvalues --    6.50175   6.50388   6.57654   6.61990   6.68849
 Alpha virt. eigenvalues --    6.71212   6.78089   6.81149   6.83047   6.88241
 Alpha virt. eigenvalues --    6.93401   6.95669   7.22259   7.23394   7.24995
 Alpha virt. eigenvalues --    7.25245   7.29644   7.33326   7.43583   7.44544
 Alpha virt. eigenvalues --    7.47515   7.55352   7.57741   7.59373   7.60089
 Alpha virt. eigenvalues --    7.64424   7.67824   7.70737   7.73309   7.76744
 Alpha virt. eigenvalues --    7.79925   7.94597   7.96514   8.02326   8.07315
 Alpha virt. eigenvalues --    8.10226   8.13019   8.19908   8.22782   8.27823
 Alpha virt. eigenvalues --    8.29882   8.36043   8.36424   8.38958   8.39558
 Alpha virt. eigenvalues --    8.40656   8.42596   8.45590   8.49419   8.52633
 Alpha virt. eigenvalues --    8.55046   8.67763   8.69371   8.81859   8.94052
 Alpha virt. eigenvalues --    8.98105   9.03121   9.07002   9.14057   9.15136
 Alpha virt. eigenvalues --    9.54846   9.55211   9.72621   9.72817   9.76000
 Alpha virt. eigenvalues --    9.89823   9.89961   9.90426   9.96430   9.96653
 Alpha virt. eigenvalues --   10.46160  10.47418  10.56448  10.58981  11.72665
 Alpha virt. eigenvalues --   11.83176  12.85819  12.93514  24.85888  28.59152
 Alpha virt. eigenvalues --   28.64556  28.80976  29.22976  29.56898  84.29941
 Alpha virt. eigenvalues --  147.69741 147.73923 451.44700
  Beta  occ. eigenvalues --  -89.08601 -10.30027 -10.30026  -8.11661  -6.06280
  Beta  occ. eigenvalues --   -6.06265  -6.05929  -0.94975  -0.79431  -0.66455
  Beta  occ. eigenvalues --   -0.55759  -0.54613  -0.48675  -0.44640  -0.41564
  Beta  occ. eigenvalues --   -0.27430
  Beta virt. eigenvalues --    0.01006   0.10282   0.10473   0.12631   0.13862
  Beta virt. eigenvalues --    0.15423   0.18728   0.19382   0.19755   0.23874
  Beta virt. eigenvalues --    0.24639   0.25194   0.25226   0.28036   0.29968
  Beta virt. eigenvalues --    0.31124   0.36321   0.37133   0.37392   0.39083
  Beta virt. eigenvalues --    0.41028   0.42361   0.44957   0.47703   0.49697
  Beta virt. eigenvalues --    0.52693   0.55750   0.56609   0.60153   0.61448
  Beta virt. eigenvalues --    0.66739   0.69493   0.74164   0.74594   0.76042
  Beta virt. eigenvalues --    0.77983   0.78934   0.79321   0.83518   0.85920
  Beta virt. eigenvalues --    0.87344   0.87723   0.88693   0.89368   0.89906
  Beta virt. eigenvalues --    0.91686   0.97039   0.98243   1.01077   1.02251
  Beta virt. eigenvalues --    1.03465   1.05477   1.08029   1.08636   1.11152
  Beta virt. eigenvalues --    1.12854   1.12941   1.14299   1.16467   1.20688
  Beta virt. eigenvalues --    1.22776   1.31390   1.32312   1.36551   1.37617
  Beta virt. eigenvalues --    1.43400   1.46408   1.48982   1.50462   1.50856
  Beta virt. eigenvalues --    1.58376   1.60519   1.68244   1.69338   1.76221
  Beta virt. eigenvalues --    1.76686   1.85276   1.90191   1.91071   1.95753
  Beta virt. eigenvalues --    1.96550   1.96799   1.97304   2.01570   2.01716
  Beta virt. eigenvalues --    2.02248   2.05015   2.08085   2.09702   2.13186
  Beta virt. eigenvalues --    2.17773   2.18703   2.23750   2.26993   2.28917
  Beta virt. eigenvalues --    2.33668   2.35902   2.37919   2.38797   2.41119
  Beta virt. eigenvalues --    2.42691   2.44755   2.47070   2.47913   2.54143
  Beta virt. eigenvalues --    2.56300   2.57922   2.62698   2.65702   2.67839
  Beta virt. eigenvalues --    2.68157   2.70586   2.70693   2.71112   2.72871
  Beta virt. eigenvalues --    2.79828   2.82503   2.82756   2.84647   2.85077
  Beta virt. eigenvalues --    2.90643   2.91109   2.93902   2.97959   3.06162
  Beta virt. eigenvalues --    3.07725   3.16219   3.16993   3.19266   3.31025
  Beta virt. eigenvalues --    3.32698   3.35797   3.36036   3.38200   3.39661
  Beta virt. eigenvalues --    3.43131   3.45279   3.45833   3.47537   3.50055
  Beta virt. eigenvalues --    3.58803   3.60675   3.61520   3.63060   3.63510
  Beta virt. eigenvalues --    3.64987   3.77123   3.78365   3.82579   3.84587
  Beta virt. eigenvalues --    3.88342   3.89332   3.92626   3.99294   4.06054
  Beta virt. eigenvalues --    4.13694   4.17336   4.19675   4.35244   4.38276
  Beta virt. eigenvalues --    4.65336   4.66982   5.01474   5.11816   5.31093
  Beta virt. eigenvalues --    5.31258   5.34590   5.36046   5.38170   5.38280
  Beta virt. eigenvalues --    5.38388   5.43029   5.43109   5.43344   5.47656
  Beta virt. eigenvalues --    5.51672   5.63134   5.66454   5.80894   5.84703
  Beta virt. eigenvalues --    5.86340   5.87290   5.93402   5.95218   5.97341
  Beta virt. eigenvalues --    6.03188   6.05378   6.06442   6.07533   6.09574
  Beta virt. eigenvalues --    6.13108   6.14149   6.25305   6.27467   6.32019
  Beta virt. eigenvalues --    6.35663   6.38436   6.38879   6.45253   6.49107
  Beta virt. eigenvalues --    6.50175   6.50388   6.57654   6.61990   6.68849
  Beta virt. eigenvalues --    6.71212   6.78089   6.81149   6.83047   6.88241
  Beta virt. eigenvalues --    6.93401   6.95669   7.22259   7.23394   7.24995
  Beta virt. eigenvalues --    7.25245   7.29644   7.33326   7.43583   7.44544
  Beta virt. eigenvalues --    7.47515   7.55352   7.57741   7.59373   7.60089
  Beta virt. eigenvalues --    7.64424   7.67824   7.70737   7.73309   7.76744
  Beta virt. eigenvalues --    7.79925   7.94597   7.96514   8.02326   8.07315
  Beta virt. eigenvalues --    8.10226   8.13019   8.19908   8.22782   8.27823
  Beta virt. eigenvalues --    8.29882   8.36043   8.36424   8.38958   8.39558
  Beta virt. eigenvalues --    8.40656   8.42596   8.45590   8.49419   8.52633
  Beta virt. eigenvalues --    8.55046   8.67763   8.69371   8.81859   8.94052
  Beta virt. eigenvalues --    8.98105   9.03121   9.07002   9.14057   9.15136
  Beta virt. eigenvalues --    9.54846   9.55211   9.72621   9.72817   9.76000
  Beta virt. eigenvalues --    9.89823   9.89961   9.90426   9.96430   9.96653
  Beta virt. eigenvalues --   10.46160  10.47418  10.56448  10.58981  11.72665
  Beta virt. eigenvalues --   11.83176  12.85819  12.93514  24.85888  28.59152
  Beta virt. eigenvalues --   28.64556  28.80976  29.22976  29.56898  84.29941
  Beta virt. eigenvalues --  147.69741 147.73923 451.44700
          Condensed to atoms (all electrons):
               1          2          3          4          5          6
     1  C    4.985599   0.564153  -0.116965   0.393236   0.419325  -0.000977
     2  S    0.564153  14.878204   0.564191  -0.032149  -0.034654  -0.034663
     3  C   -0.116965   0.564191   4.985489   0.004014  -0.000976   0.419329
     4  H    0.393236  -0.032149   0.004014   0.571551  -0.035071   0.000007
     5  H    0.419325  -0.034654  -0.000976  -0.035071   0.561430   0.003894
     6  H   -0.000977  -0.034663   0.419329   0.000007   0.003894   0.561456
     7  H    0.004014  -0.032148   0.393236  -0.000360   0.000007  -0.035072
               7
     1  C    0.004014
     2  S   -0.032148
     3  C    0.393236
     4  H   -0.000360
     5  H    0.000007
     6  H   -0.035072
     7  H    0.571527
          Atomic-Atomic Spin Densities.
               1          2          3          4          5          6
     1  C    0.000000  -0.000000   0.000000   0.000000   0.000000   0.000000
     2  S   -0.000000   0.000000  -0.000000  -0.000000  -0.000000   0.000000
     3  C    0.000000  -0.000000  -0.000000   0.000000   0.000000   0.000000
     4  H    0.000000  -0.000000   0.000000  -0.000000  -0.000000  -0.000000
     5  H    0.000000  -0.000000   0.000000  -0.000000  -0.000000   0.000000
     6  H    0.000000   0.000000   0.000000  -0.000000   0.000000  -0.000000
     7  H   -0.000000   0.000000   0.000000   0.000000  -0.000000   0.000000
               7
     1  C   -0.000000
     2  S    0.000000
     3  C    0.000000
     4  H    0.000000
     5  H   -0.000000
     6  H    0.000000
     7  H   -0.000000
 Mulliken charges and spin densities:
               1          2
     1  C   -0.248384   0.000000
     2  S    0.127065   0.000000
     3  C   -0.248318  -0.000000
     4  H    0.098772  -0.000000
     5  H    0.086044  -0.000000
     6  H    0.086026   0.000000
     7  H    0.098795   0.000000
 Sum of Mulliken charges =  -0.00000  -0.00000
 Mulliken charges and spin densities with hydrogens summed into heavy atoms:
               1          2
     1  C   -0.063567   0.000000
     2  S    0.127065   0.000000
     3  C   -0.063498  -0.000000
 Electronic spatial extent (au):  <R**2>=            870.6601
 Charge=             -0.0000 electrons
 Dipole moment (field-independent basis, Debye):
    X=             -0.1648    Y=              0.0833    Z=             -0.2197  Tot=              0.2870
 Quadrupole moment (field-independent basis, Debye-Ang):
   XX=            -25.0991   YY=            -28.3674   ZZ=            -24.9692
   XY=              0.4800   XZ=             -0.3879   YZ=             -1.8412
 Traceless Quadrupole moment (field-independent basis, Debye-Ang):
   XX=              1.0461   YY=             -2.2222   ZZ=              1.1760
   XY=              0.4800   XZ=             -0.3879   YZ=             -1.8412
 Octapole moment (field-independent basis, Debye-Ang**2):
  XXX=           -171.0353  YYY=            -21.4170  ZZZ=             26.2323  XYY=            -65.6056
  XXY=             -3.5781  XXZ=              6.8807  XZZ=            -60.6316  YZZ=             -3.9248
  YYZ=              9.7286  XYZ=             -3.1381
 Hexadecapole moment (field-independent basis, Debye-Ang**3):
 XXXX=           -940.3893 YYYY=            -69.0066 ZZZZ=           -120.6098 XXXY=            -45.2689
 XXXZ=             77.1786 YYYX=            -70.5517 YYYZ=             26.4928 ZZZX=             91.6486
 ZZZY=             16.6008 XXYY=           -193.6983 XXZZ=           -192.9973 YYZZ=            -30.2457
 XXYZ=             -1.3482 YYXZ=             33.0682 ZZXY=            -13.1469
 N-N= 1.003068122987D+02 E-N=-1.328954481988D+03  KE= 4.756151243369D+02
                          Isotropic Fermi Contact Couplings
        Atom                 a.u.       MegaHertz       Gauss      10(-4) cm-1
     1  C(13)              0.00000       0.00000       0.00000       0.00000
     2  S(33)             -0.00000      -0.00000      -0.00000      -0.00000
     3  C(13)              0.00000       0.00000       0.00000       0.00000
     4  H(1)               0.00000       0.00000       0.00000       0.00000
     5  H(1)               0.00000       0.00000       0.00000       0.00000
     6  H(1)              -0.00000      -0.00000      -0.00000      -0.00000
     7  H(1)              -0.00000      -0.00000      -0.00000      -0.00000
 --------------------------------------------------------
       Center         ----  Spin Dipole Couplings  ----
                      3XX-RR        3YY-RR        3ZZ-RR
 --------------------------------------------------------
     1   Atom        0.000000      0.000000     -0.000000
     2   Atom        0.000000      0.000000     -0.000000
     3   Atom       -0.000000     -0.000000      0.000000
     4   Atom       -0.000000     -0.000000      0.000000
     5   Atom       -0.000000     -0.000000      0.000000
     6   Atom       -0.000000      0.000000     -0.000000
     7   Atom       -0.000000      0.000000      0.000000
 --------------------------------------------------------
                        XY            XZ            YZ
 --------------------------------------------------------
     1   Atom       -0.000000      0.000000      0.000000
     2   Atom       -0.000000     -0.000000      0.000000
     3   Atom        0.000000     -0.000000     -0.000000
     4   Atom        0.000000     -0.000000     -0.000000
     5   Atom       -0.000000      0.000000     -0.000000
     6   Atom       -0.000000      0.000000      0.000000
     7   Atom       -0.000000      0.000000      0.000000
 --------------------------------------------------------


 ---------------------------------------------------------------------------------
              Anisotropic Spin Dipole Couplings in Principal Axis System
 ---------------------------------------------------------------------------------

       Atom             a.u.   MegaHertz   Gauss  10(-4) cm-1        Axes

              Baa    -0.0000    -0.000    -0.000    -0.000 -0.0660 -0.4148  0.9075
     1 C(13)  Bbb     0.0000     0.000     0.000     0.000  0.8626  0.4335  0.2609
              Bcc     0.0000     0.000     0.000     0.000 -0.5016  0.8000  0.3291
 
              Baa    -0.0000    -0.000    -0.000    -0.000  0.0566 -0.3866  0.9205
     2 S(33)  Bbb     0.0000     0.000     0.000     0.000  0.9768  0.2120  0.0290
              Bcc     0.0000     0.000     0.000     0.000 -0.2063  0.8976  0.3896
 
              Baa    -0.0000    -0.000    -0.000    -0.000  0.8738 -0.3203  0.3659
     3 C(13)  Bbb    -0.0000    -0.000    -0.000    -0.000  0.1855  0.9151  0.3580
              Bcc     0.0000     0.000     0.000     0.000 -0.4495 -0.2449  0.8590
 
              Baa    -0.0000    -0.000    -0.000    -0.000  0.9586 -0.2760  0.0697
     4 H(1)   Bbb    -0.0000    -0.000    -0.000    -0.000  0.2026  0.8336  0.5139
              Bcc     0.0000     0.000     0.000     0.000 -0.1999 -0.4785  0.8550
 
              Baa    -0.0000    -0.000    -0.000    -0.000  0.8488  0.4758 -0.2305
     5 H(1)   Bbb    -0.0000    -0.000    -0.000    -0.000 -0.3188  0.8084  0.4947
              Bcc     0.0000     0.000     0.000     0.000  0.4218 -0.3464  0.8379
 
              Baa    -0.0000    -0.000    -0.000    -0.000 -0.6008 -0.3302  0.7280
     6 H(1)   Bbb     0.0000     0.000     0.000     0.000  0.5475  0.4935  0.6758
              Bcc     0.0000     0.000     0.000     0.000 -0.5824  0.8046 -0.1157
 
              Baa    -0.0000    -0.000    -0.000    -0.000  0.9788  0.1291 -0.1592
     7 H(1)   Bbb     0.0000     0.000     0.000     0.000  0.0787  0.4805  0.8735
              Bcc     0.0000     0.000     0.000     0.000 -0.1892  0.8675 -0.4601
 

 ---------------------------------------------------------------------------------

 No NMR shielding tensors so no spin-rotation constants.
 Leave Link  601 at Tue Jan  3 09:11:44 2023, MaxMem=   536870912 cpu:               0.9 elap:               0.5
 (Enter /opt/software/gaussian/g16.c01/l801.exe)
 DoSCS=F DFT=T ScalE2(SS,OS)=  1.000000  1.000000
 Range of M.O.s used for correlation:     1   304
 NBasis=   304 NAE=    16 NBE=    16 NFC=     0 NFV=     0
 NROrb=    304 NOA=    16 NOB=    16 NVA=   288 NVB=   288

 **** Warning!!: The largest alpha MO coefficient is  0.18786654D+02


 **** Warning!!: The largest beta MO coefficient is  0.18786654D+02

 Leave Link  801 at Tue Jan  3 09:11:44 2023, MaxMem=   536870912 cpu:               0.1 elap:               0.0
 (Enter /opt/software/gaussian/g16.c01/l914.exe)
 UHF ground state
 Doing stability rather than CIS.
 Two-electron integral symmetry not used.
 MDV=   536870912 DFT=T DoStab=T Mixed=T DoRPA=F DoScal=F NonHer=F
 Making orbital integer symmetry assigments:
    12 initial guesses have been made.
 Convergence on wavefunction:    0.001000000000000
 Davidson Disk Diagonalization:  ConvIn= 1.00D-03 SkipCon=T Conv= 1.00D-03.
 Max sub-space:  2000 roots to seek:    12 dimension of matrix:         9216
 Iteration     1 Dimension    12 NMult     0 NNew     12
 CISAX will form    12 AO SS matrices at one time.
 NMat=    12 NSing=    12 JSym2X= 0.
 FoFJK:  IHMeth= 1 ICntrl=       0 DoSepK=T KAlg= 0 I1Cent=           0 FoldK=F
 IRaf=         1 NMat=      12 IRICut=       1 DoRegI=T DoRafI=F ISym2E= 0 IDoP0=3 IntGTp=3.
 FoFCou: FMM=F IPFlag=           0 FMFlag=      100000 FMFlg1=           0
         NFxFlg=           0 DoJE=F BraDBF=F KetDBF=F FulRan=T
         wScrn=  0.000000 ICntrl=       500 IOpCl=  0 I1Cent=           0 NGrid=           0
         NMat0=   12 NMatS0=     12 NMatT0=    0 NMatD0=   12 NMtDS0=    0 NMtDT0=    0
 Symmetry not used in FoFCou.
 Excitation Energies [eV] at current iteration:
 Root      1 :     0.786114938456122
 Root      2 :     5.302292133035291
 Root      3 :     5.801985317105526
 Root      4 :     5.816560169349636
 Root      5 :     5.943084411456372
 Root      6 :     5.972270475914169
 Root      7 :     6.327425180652650
 Root      8 :     6.550093002214658
 Root      9 :     6.757699746568039
 Root     10 :     6.805800473383115
 Root     11 :     7.524088790934983
 Root     12 :     9.581382604239273
 Iteration     2 Dimension    24 NMult    12 NNew     12
 CISAX will form    12 AO SS matrices at one time.
 NMat=    12 NSing=    12 JSym2X= 0.
 Root      1 not converged, maximum delta is    0.093031326751405
 Excitation Energies [eV] at current iteration:
 Root      1 :     0.269012846964222   Change is   -0.517102091491900
 Root      2 :     4.756945981157225   Change is   -0.545346151878066
 Root      3 :     5.195775387127605   Change is   -4.385607217111669
 Root      4 :     5.300820104988698   Change is   -0.501165212116828
 Root      5 :     5.505429933724516   Change is   -0.311130235625121
 Root      6 :     5.726952620234640   Change is   -0.216131791221732
 Root      7 :     5.810536129296923   Change is   -0.161734346617246
 Root      8 :     5.890666460433684   Change is   -0.436758720218966
 Root      9 :     6.285854909961811   Change is   -0.264238092252847
 Root     10 :     6.538054285680039   Change is   -0.219645460887999
 Root     11 :     6.668096291105941   Change is   -0.137704182277174
 Root     12 :     6.919055522382084   Change is   -0.605033268552900
 Iteration     3 Dimension    27 NMult    24 NNew      3
 CISAX will form     3 AO SS matrices at one time.
 NMat=     3 NSing=     3 JSym2X= 0.
 Root      1 not converged, maximum delta is    0.006142252317497
 Excitation Energies [eV] at current iteration:
 Root      1 :     0.260745514047137   Change is   -0.008267332917085
 Root      2 :     4.721685056599716   Change is   -0.035260924557509
 Root      3 :     5.016074071656275   Change is   -0.179701315471329
 Iteration     4 Dimension    30 NMult    27 NNew      3
 CISAX will form     3 AO SS matrices at one time.
 NMat=     3 NSing=     3 JSym2X= 0.
 Root      1 has converged.
 Excitation Energies [eV] at current iteration:
 Root      1 :     0.260456578369573   Change is   -0.000288935677564
 Root      2 :     4.717995318157262   Change is   -0.003689738442453
 Root      3 :     5.001479273342812   Change is   -0.014594798313464
 Convergence achieved on expansion vectors.
 ***********************************************************************
 Stability analysis using <AA,BB:AA,BB> singles matrix:
 ***********************************************************************
 1PDM for each excited state written to RWF  633
 Ground to excited state transition densities written to RWF  633

 Eigenvectors of the stability matrix:
 
 Excited state symmetry could not be determined.
 Eigenvector   1:  3.000-?Sym  Eigenvalue= 0.0095716  <S**2>=2.000
     16A -> 17A        0.69006
     16B -> 17B       -0.69006
 The wavefunction is stable under the perturbations considered.
 Leave Link  914 at Tue Jan  3 09:21:37 2023, MaxMem=   536870912 cpu:            1186.8 elap:             593.6
 (Enter /opt/software/gaussian/g16.c01/l508.exe)
 The wavefunction is already stable.
 Leave Link  508 at Tue Jan  3 09:21:37 2023, MaxMem=   536870912 cpu:               0.0 elap:               0.0
 (Enter /opt/software/gaussian/g16.c01/l601.exe)
 Copying SCF densities to generalized density rwf, IOpCl= 1 IROHF=0.

 **********************************************************************

            Population analysis using the SCF Density.

 **********************************************************************

 Alpha  occ. eigenvalues --  -89.08601 -10.30027 -10.30026  -8.11661  -6.06280
 Alpha  occ. eigenvalues --   -6.06265  -6.05929  -0.94975  -0.79431  -0.66455
 Alpha  occ. eigenvalues --   -0.55759  -0.54613  -0.48675  -0.44640  -0.41564
 Alpha  occ. eigenvalues --   -0.27430
 Alpha virt. eigenvalues --    0.01006   0.10282   0.10473   0.12631   0.13862
 Alpha virt. eigenvalues --    0.15423   0.18728   0.19382   0.19755   0.23874
 Alpha virt. eigenvalues --    0.24639   0.25194   0.25226   0.28036   0.29968
 Alpha virt. eigenvalues --    0.31124   0.36321   0.37133   0.37392   0.39083
 Alpha virt. eigenvalues --    0.41028   0.42361   0.44957   0.47703   0.49697
 Alpha virt. eigenvalues --    0.52693   0.55750   0.56609   0.60153   0.61448
 Alpha virt. eigenvalues --    0.66739   0.69493   0.74164   0.74594   0.76042
 Alpha virt. eigenvalues --    0.77983   0.78934   0.79321   0.83518   0.85920
 Alpha virt. eigenvalues --    0.87344   0.87723   0.88693   0.89368   0.89906
 Alpha virt. eigenvalues --    0.91686   0.97039   0.98243   1.01077   1.02251
 Alpha virt. eigenvalues --    1.03465   1.05477   1.08029   1.08636   1.11152
 Alpha virt. eigenvalues --    1.12854   1.12941   1.14299   1.16467   1.20688
 Alpha virt. eigenvalues --    1.22776   1.31390   1.32312   1.36551   1.37617
 Alpha virt. eigenvalues --    1.43400   1.46408   1.48982   1.50462   1.50856
 Alpha virt. eigenvalues --    1.58376   1.60519   1.68244   1.69338   1.76221
 Alpha virt. eigenvalues --    1.76686   1.85276   1.90191   1.91071   1.95753
 Alpha virt. eigenvalues --    1.96550   1.96799   1.97304   2.01570   2.01716
 Alpha virt. eigenvalues --    2.02248   2.05015   2.08085   2.09702   2.13186
 Alpha virt. eigenvalues --    2.17773   2.18703   2.23750   2.26993   2.28917
 Alpha virt. eigenvalues --    2.33668   2.35902   2.37919   2.38797   2.41119
 Alpha virt. eigenvalues --    2.42691   2.44755   2.47070   2.47913   2.54143
 Alpha virt. eigenvalues --    2.56300   2.57922   2.62698   2.65702   2.67839
 Alpha virt. eigenvalues --    2.68157   2.70586   2.70693   2.71112   2.72871
 Alpha virt. eigenvalues --    2.79828   2.82503   2.82756   2.84647   2.85077
 Alpha virt. eigenvalues --    2.90643   2.91109   2.93902   2.97959   3.06162
 Alpha virt. eigenvalues --    3.07725   3.16219   3.16993   3.19266   3.31025
 Alpha virt. eigenvalues --    3.32698   3.35797   3.36036   3.38200   3.39661
 Alpha virt. eigenvalues --    3.43131   3.45279   3.45833   3.47537   3.50055
 Alpha virt. eigenvalues --    3.58803   3.60675   3.61520   3.63060   3.63510
 Alpha virt. eigenvalues --    3.64987   3.77123   3.78365   3.82579   3.84587
 Alpha virt. eigenvalues --    3.88342   3.89332   3.92626   3.99294   4.06054
 Alpha virt. eigenvalues --    4.13694   4.17336   4.19675   4.35244   4.38276
 Alpha virt. eigenvalues --    4.65336   4.66982   5.01474   5.11816   5.31093
 Alpha virt. eigenvalues --    5.31258   5.34590   5.36046   5.38170   5.38280
 Alpha virt. eigenvalues --    5.38388   5.43029   5.43109   5.43344   5.47656
 Alpha virt. eigenvalues --    5.51672   5.63134   5.66454   5.80894   5.84703
 Alpha virt. eigenvalues --    5.86340   5.87290   5.93402   5.95218   5.97341
 Alpha virt. eigenvalues --    6.03188   6.05378   6.06442   6.07533   6.09574
 Alpha virt. eigenvalues --    6.13108   6.14149   6.25305   6.27467   6.32019
 Alpha virt. eigenvalues --    6.35663   6.38436   6.38879   6.45253   6.49107
 Alpha virt. eigenvalues --    6.50175   6.50388   6.57654   6.61990   6.68849
 Alpha virt. eigenvalues --    6.71212   6.78089   6.81149   6.83047   6.88241
 Alpha virt. eigenvalues --    6.93401   6.95669   7.22259   7.23394   7.24995
 Alpha virt. eigenvalues --    7.25245   7.29644   7.33326   7.43583   7.44544
 Alpha virt. eigenvalues --    7.47515   7.55352   7.57741   7.59373   7.60089
 Alpha virt. eigenvalues --    7.64424   7.67824   7.70737   7.73309   7.76744
 Alpha virt. eigenvalues --    7.79925   7.94597   7.96514   8.02326   8.07315
 Alpha virt. eigenvalues --    8.10226   8.13019   8.19908   8.22782   8.27823
 Alpha virt. eigenvalues --    8.29882   8.36043   8.36424   8.38958   8.39558
 Alpha virt. eigenvalues --    8.40656   8.42596   8.45590   8.49419   8.52633
 Alpha virt. eigenvalues --    8.55046   8.67763   8.69371   8.81859   8.94052
 Alpha virt. eigenvalues --    8.98105   9.03121   9.07002   9.14057   9.15136
 Alpha virt. eigenvalues --    9.54846   9.55211   9.72621   9.72817   9.76000
 Alpha virt. eigenvalues --    9.89823   9.89961   9.90426   9.96430   9.96653
 Alpha virt. eigenvalues --   10.46160  10.47418  10.56448  10.58981  11.72665
 Alpha virt. eigenvalues --   11.83176  12.85819  12.93514  24.85888  28.59152
 Alpha virt. eigenvalues --   28.64556  28.80976  29.22976  29.56898  84.29941
 Alpha virt. eigenvalues --  147.69741 147.73923 451.44700
  Beta  occ. eigenvalues --  -89.08601 -10.30027 -10.30026  -8.11661  -6.06280
  Beta  occ. eigenvalues --   -6.06265  -6.05929  -0.94975  -0.79431  -0.66455
  Beta  occ. eigenvalues --   -0.55759  -0.54613  -0.48675  -0.44640  -0.41564
  Beta  occ. eigenvalues --   -0.27430
  Beta virt. eigenvalues --    0.01006   0.10282   0.10473   0.12631   0.13862
  Beta virt. eigenvalues --    0.15423   0.18728   0.19382   0.19755   0.23874
  Beta virt. eigenvalues --    0.24639   0.25194   0.25226   0.28036   0.29968
  Beta virt. eigenvalues --    0.31124   0.36321   0.37133   0.37392   0.39083
  Beta virt. eigenvalues --    0.41028   0.42361   0.44957   0.47703   0.49697
  Beta virt. eigenvalues --    0.52693   0.55750   0.56609   0.60153   0.61448
  Beta virt. eigenvalues --    0.66739   0.69493   0.74164   0.74594   0.76042
  Beta virt. eigenvalues --    0.77983   0.78934   0.79321   0.83518   0.85920
  Beta virt. eigenvalues --    0.87344   0.87723   0.88693   0.89368   0.89906
  Beta virt. eigenvalues --    0.91686   0.97039   0.98243   1.01077   1.02251
  Beta virt. eigenvalues --    1.03465   1.05477   1.08029   1.08636   1.11152
  Beta virt. eigenvalues --    1.12854   1.12941   1.14299   1.16467   1.20688
  Beta virt. eigenvalues --    1.22776   1.31390   1.32312   1.36551   1.37617
  Beta virt. eigenvalues --    1.43400   1.46408   1.48982   1.50462   1.50856
  Beta virt. eigenvalues --    1.58376   1.60519   1.68244   1.69338   1.76221
  Beta virt. eigenvalues --    1.76686   1.85276   1.90191   1.91071   1.95753
  Beta virt. eigenvalues --    1.96550   1.96799   1.97304   2.01570   2.01716
  Beta virt. eigenvalues --    2.02248   2.05015   2.08085   2.09702   2.13186
  Beta virt. eigenvalues --    2.17773   2.18703   2.23750   2.26993   2.28917
  Beta virt. eigenvalues --    2.33668   2.35902   2.37919   2.38797   2.41119
  Beta virt. eigenvalues --    2.42691   2.44755   2.47070   2.47913   2.54143
  Beta virt. eigenvalues --    2.56300   2.57922   2.62698   2.65702   2.67839
  Beta virt. eigenvalues --    2.68157   2.70586   2.70693   2.71112   2.72871
  Beta virt. eigenvalues --    2.79828   2.82503   2.82756   2.84647   2.85077
  Beta virt. eigenvalues --    2.90643   2.91109   2.93902   2.97959   3.06162
  Beta virt. eigenvalues --    3.07725   3.16219   3.16993   3.19266   3.31025
  Beta virt. eigenvalues --    3.32698   3.35797   3.36036   3.38200   3.39661
  Beta virt. eigenvalues --    3.43131   3.45279   3.45833   3.47537   3.50055
  Beta virt. eigenvalues --    3.58803   3.60675   3.61520   3.63060   3.63510
  Beta virt. eigenvalues --    3.64987   3.77123   3.78365   3.82579   3.84587
  Beta virt. eigenvalues --    3.88342   3.89332   3.92626   3.99294   4.06054
  Beta virt. eigenvalues --    4.13694   4.17336   4.19675   4.35244   4.38276
  Beta virt. eigenvalues --    4.65336   4.66982   5.01474   5.11816   5.31093
  Beta virt. eigenvalues --    5.31258   5.34590   5.36046   5.38170   5.38280
  Beta virt. eigenvalues --    5.38388   5.43029   5.43109   5.43344   5.47656
  Beta virt. eigenvalues --    5.51672   5.63134   5.66454   5.80894   5.84703
  Beta virt. eigenvalues --    5.86340   5.87290   5.93402   5.95218   5.97341
  Beta virt. eigenvalues --    6.03188   6.05378   6.06442   6.07533   6.09574
  Beta virt. eigenvalues --    6.13108   6.14149   6.25305   6.27467   6.32019
  Beta virt. eigenvalues --    6.35663   6.38436   6.38879   6.45253   6.49107
  Beta virt. eigenvalues --    6.50175   6.50388   6.57654   6.61990   6.68849
  Beta virt. eigenvalues --    6.71212   6.78089   6.81149   6.83047   6.88241
  Beta virt. eigenvalues --    6.93401   6.95669   7.22259   7.23394   7.24995
  Beta virt. eigenvalues --    7.25245   7.29644   7.33326   7.43583   7.44544
  Beta virt. eigenvalues --    7.47515   7.55352   7.57741   7.59373   7.60089
  Beta virt. eigenvalues --    7.64424   7.67824   7.70737   7.73309   7.76744
  Beta virt. eigenvalues --    7.79925   7.94597   7.96514   8.02326   8.07315
  Beta virt. eigenvalues --    8.10226   8.13019   8.19908   8.22782   8.27823
  Beta virt. eigenvalues --    8.29882   8.36043   8.36424   8.38958   8.39558
  Beta virt. eigenvalues --    8.40656   8.42596   8.45590   8.49419   8.52633
  Beta virt. eigenvalues --    8.55046   8.67763   8.69371   8.81859   8.94052
  Beta virt. eigenvalues --    8.98105   9.03121   9.07002   9.14057   9.15136
  Beta virt. eigenvalues --    9.54846   9.55211   9.72621   9.72817   9.76000
  Beta virt. eigenvalues --    9.89823   9.89961   9.90426   9.96430   9.96653
  Beta virt. eigenvalues --   10.46160  10.47418  10.56448  10.58981  11.72665
  Beta virt. eigenvalues --   11.83176  12.85819  12.93514  24.85888  28.59152
  Beta virt. eigenvalues --   28.64556  28.80976  29.22976  29.56898  84.29941
  Beta virt. eigenvalues --  147.69741 147.73923 451.44700
          Condensed to atoms (all electrons):
               1          2          3          4          5          6
     1  C    4.985599   0.564153  -0.116965   0.393236   0.419325  -0.000977
     2  S    0.564153  14.878204   0.564191  -0.032149  -0.034654  -0.034663
     3  C   -0.116965   0.564191   4.985489   0.004014  -0.000976   0.419329
     4  H    0.393236  -0.032149   0.004014   0.571551  -0.035071   0.000007
     5  H    0.419325  -0.034654  -0.000976  -0.035071   0.561430   0.003894
     6  H   -0.000977  -0.034663   0.419329   0.000007   0.003894   0.561456
     7  H    0.004014  -0.032148   0.393236  -0.000360   0.000007  -0.035072
               7
     1  C    0.004014
     2  S   -0.032148
     3  C    0.393236
     4  H   -0.000360
     5  H    0.000007
     6  H   -0.035072
     7  H    0.571527
          Atomic-Atomic Spin Densities.
               1          2          3          4          5          6
     1  C    0.000000  -0.000000   0.000000   0.000000   0.000000   0.000000
     2  S   -0.000000   0.000000  -0.000000  -0.000000  -0.000000   0.000000
     3  C    0.000000  -0.000000  -0.000000   0.000000   0.000000   0.000000
     4  H    0.000000  -0.000000   0.000000  -0.000000  -0.000000  -0.000000
     5  H    0.000000  -0.000000   0.000000  -0.000000  -0.000000   0.000000
     6  H    0.000000   0.000000   0.000000  -0.000000   0.000000  -0.000000
     7  H   -0.000000   0.000000   0.000000   0.000000  -0.000000   0.000000
               7
     1  C   -0.000000
     2  S    0.000000
     3  C    0.000000
     4  H    0.000000
     5  H   -0.000000
     6  H    0.000000
     7  H   -0.000000
 Mulliken charges and spin densities:
               1          2
     1  C   -0.248384   0.000000
     2  S    0.127065   0.000000
     3  C   -0.248318  -0.000000
     4  H    0.098772  -0.000000
     5  H    0.086044  -0.000000
     6  H    0.086026   0.000000
     7  H    0.098795   0.000000
 Sum of Mulliken charges =  -0.00000  -0.00000
 Mulliken charges and spin densities with hydrogens summed into heavy atoms:
               1          2
     1  C   -0.063567   0.000000
     2  S    0.127065   0.000000
     3  C   -0.063498  -0.000000
 Electronic spatial extent (au):  <R**2>=            870.6601
 Charge=             -0.0000 electrons
 Dipole moment (field-independent basis, Debye):
    X=             -0.1648    Y=              0.0833    Z=             -0.2197  Tot=              0.2870
 Quadrupole moment (field-independent basis, Debye-Ang):
   XX=            -25.0991   YY=            -28.3674   ZZ=            -24.9692
   XY=              0.4800   XZ=             -0.3879   YZ=             -1.8412
 Traceless Quadrupole moment (field-independent basis, Debye-Ang):
   XX=              1.0461   YY=             -2.2222   ZZ=              1.1760
   XY=              0.4800   XZ=             -0.3879   YZ=             -1.8412
 Octapole moment (field-independent basis, Debye-Ang**2):
  XXX=           -171.0353  YYY=            -21.4170  ZZZ=             26.2323  XYY=            -65.6056
  XXY=             -3.5781  XXZ=              6.8807  XZZ=            -60.6316  YZZ=             -3.9248
  YYZ=              9.7286  XYZ=             -3.1381
 Hexadecapole moment (field-independent basis, Debye-Ang**3):
 XXXX=           -940.3893 YYYY=            -69.0066 ZZZZ=           -120.6098 XXXY=            -45.2689
 XXXZ=             77.1786 YYYX=            -70.5517 YYYZ=             26.4928 ZZZX=             91.6486
 ZZZY=             16.6008 XXYY=           -193.6983 XXZZ=           -192.9973 YYZZ=            -30.2457
 XXYZ=             -1.3482 YYXZ=             33.0682 ZZXY=            -13.1469
 N-N= 1.003068122987D+02 E-N=-1.328954481988D+03  KE= 4.756151243369D+02
                          Isotropic Fermi Contact Couplings
        Atom                 a.u.       MegaHertz       Gauss      10(-4) cm-1
     1  C(13)              0.00000       0.00000       0.00000       0.00000
     2  S(33)             -0.00000      -0.00000      -0.00000      -0.00000
     3  C(13)              0.00000       0.00000       0.00000       0.00000
     4  H(1)               0.00000       0.00000       0.00000       0.00000
     5  H(1)               0.00000       0.00000       0.00000       0.00000
     6  H(1)              -0.00000      -0.00000      -0.00000      -0.00000
     7  H(1)              -0.00000      -0.00000      -0.00000      -0.00000
 --------------------------------------------------------
       Center         ----  Spin Dipole Couplings  ----
                      3XX-RR        3YY-RR        3ZZ-RR
 --------------------------------------------------------
     1   Atom        0.000000      0.000000     -0.000000
     2   Atom        0.000000      0.000000     -0.000000
     3   Atom       -0.000000     -0.000000      0.000000
     4   Atom       -0.000000     -0.000000      0.000000
     5   Atom       -0.000000     -0.000000      0.000000
     6   Atom       -0.000000      0.000000     -0.000000
     7   Atom       -0.000000      0.000000      0.000000
 --------------------------------------------------------
                        XY            XZ            YZ
 --------------------------------------------------------
     1   Atom       -0.000000      0.000000      0.000000
     2   Atom       -0.000000     -0.000000      0.000000
     3   Atom        0.000000     -0.000000     -0.000000
     4   Atom        0.000000     -0.000000     -0.000000
     5   Atom       -0.000000      0.000000     -0.000000
     6   Atom       -0.000000      0.000000      0.000000
     7   Atom       -0.000000      0.000000      0.000000
 --------------------------------------------------------


 ---------------------------------------------------------------------------------
              Anisotropic Spin Dipole Couplings in Principal Axis System
 ---------------------------------------------------------------------------------

       Atom             a.u.   MegaHertz   Gauss  10(-4) cm-1        Axes

              Baa    -0.0000    -0.000    -0.000    -0.000 -0.0660 -0.4148  0.9075
     1 C(13)  Bbb     0.0000     0.000     0.000     0.000  0.8626  0.4335  0.2609
              Bcc     0.0000     0.000     0.000     0.000 -0.5016  0.8000  0.3291
 
              Baa    -0.0000    -0.000    -0.000    -0.000  0.0566 -0.3866  0.9205
     2 S(33)  Bbb     0.0000     0.000     0.000     0.000  0.9768  0.2120  0.0290
              Bcc     0.0000     0.000     0.000     0.000 -0.2063  0.8976  0.3896
 
              Baa    -0.0000    -0.000    -0.000    -0.000  0.8738 -0.3203  0.3659
     3 C(13)  Bbb    -0.0000    -0.000    -0.000    -0.000  0.1855  0.9151  0.3580
              Bcc     0.0000     0.000     0.000     0.000 -0.4495 -0.2449  0.8590
 
              Baa    -0.0000    -0.000    -0.000    -0.000  0.9586 -0.2760  0.0697
     4 H(1)   Bbb    -0.0000    -0.000    -0.000    -0.000  0.2026  0.8336  0.5139
              Bcc     0.0000     0.000     0.000     0.000 -0.1999 -0.4785  0.8550
 
              Baa    -0.0000    -0.000    -0.000    -0.000  0.8488  0.4758 -0.2305
     5 H(1)   Bbb    -0.0000    -0.000    -0.000    -0.000 -0.3188  0.8084  0.4947
              Bcc     0.0000     0.000     0.000     0.000  0.4218 -0.3464  0.8379
 
              Baa    -0.0000    -0.000    -0.000    -0.000 -0.6008 -0.3302  0.7280
     6 H(1)   Bbb     0.0000     0.000     0.000     0.000  0.5475  0.4935  0.6758
              Bcc     0.0000     0.000     0.000     0.000 -0.5824  0.8046 -0.1157
 
              Baa    -0.0000    -0.000    -0.000    -0.000  0.9788  0.1291 -0.1592
     7 H(1)   Bbb     0.0000     0.000     0.000     0.000  0.0787  0.4805  0.8735
              Bcc     0.0000     0.000     0.000     0.000 -0.1892  0.8675 -0.4601
 

 ---------------------------------------------------------------------------------

 No NMR shielding tensors so no spin-rotation constants.
 Leave Link  601 at Tue Jan  3 09:21:38 2023, MaxMem=   536870912 cpu:               0.9 elap:               0.5
 (Enter /opt/software/gaussian/g16.c01/l9999.exe)

 Test job not archived.
 1\1\GINC-GRA738\Stability\UwB97XD\Gen\C2H4S1\BHAVUK\03-Jan-2023\0\\#p 
 uwb97xd/gen stable=opt scf=(maxcycle=900,verytightlineq,xqc) integral=
 grid=ultrafine symmetry=None density=current iop(99/18=-1) output=wfn\
 \0003_q000_m01_k00_opt_uwb97xd_def2svpd/0003_q000_m01_k00_force_uwb97x
 d_def2qzvp stable-force\\0,1\C,0,0.9838325225,-0.0325586033,0.04885801
 78\S,0,2.6071301422,0.0991997065,0.0187984451\C,0,3.2273228911,0.73619
 7977,-1.3460048506\H,0,0.570421034,-0.4575297175,0.9597448627\H,0,0.34
 38072589,0.2782232167,-0.7754915598\H,0,2.615218944,1.0564841772,-2.18
 77415072\H,0,4.3104572053,0.8236432464,-1.365823405\\Version=ES64L-G16
 RevC.01\HF=-476.7539757\S2=0.\S2-1=0.\S2A=0.\RMSD=4.925e-09\Dipole=-0.
 0648214,0.0327778,-0.0864241\Quadrupole=0.7777781,-1.6521306,0.8743525
 ,0.356852,-0.2883641,-1.3688663\PG=Unknown\\@

 Writing a WFN file to "0003_q000_m01_k00_force_uwb97xd_def2qzvp.wfn"


 CONFIDENCE: THAT QUIET ASSURED FEELING YOU HAVE
 JUST BEFORE YOU FALL FLAT ON YOUR FACE.
 Job cpu time:       0 days  0 hours 31 minutes 53.3 seconds.
 Elapsed time:       0 days  0 hours 15 minutes 56.9 seconds.
 File lengths (MBytes):  RWF=    226 Int=      0 D2E=      0 Chk=     13 Scr=      1
 Normal termination of Gaussian 16 at Tue Jan  3 09:21:38 2023.
 Initial command:
 /opt/software/gaussian/g16.c01/l1.exe "/localscratch/bhavuk.2151385.0/Gau-21098.inp" -scrdir="/localscratch/bhavuk.2151385.0/"
 Entering Link 1 = /opt/software/gaussian/g16.c01/l1.exe PID=     24310.
  
 Copyright (c) 1988-2019, Gaussian, Inc.  All Rights Reserved.
  
 This is part of the Gaussian(R) 16 program.  It is based on
 the Gaussian(R) 09 system (copyright 2009, Gaussian, Inc.),
 the Gaussian(R) 03 system (copyright 2003, Gaussian, Inc.),
 the Gaussian(R) 98 system (copyright 1998, Gaussian, Inc.),
 the Gaussian(R) 94 system (copyright 1995, Gaussian, Inc.),
 the Gaussian 92(TM) system (copyright 1992, Gaussian, Inc.),
 the Gaussian 90(TM) system (copyright 1990, Gaussian, Inc.),
 the Gaussian 88(TM) system (copyright 1988, Gaussian, Inc.),
 the Gaussian 86(TM) system (copyright 1986, Carnegie Mellon
 University), and the Gaussian 82(TM) system (copyright 1983,
 Carnegie Mellon University). Gaussian is a federally registered
 trademark of Gaussian, Inc.
  
 This software contains proprietary and confidential information,
 including trade secrets, belonging to Gaussian, Inc.
  
 This software is provided under written license and may be
 used, copied, transmitted, or stored only in accord with that
 written license.
  
 The following legend is applicable only to US Government
 contracts under FAR:
  
                    RESTRICTED RIGHTS LEGEND
  
 Use, reproduction and disclosure by the US Government is
 subject to restrictions as set forth in subparagraphs (a)
 and (c) of the Commercial Computer Software - Restricted
 Rights clause in FAR 52.227-19.
  
 Gaussian, Inc.
 340 Quinnipiac St., Bldg. 40, Wallingford CT 06492
  
  
 ---------------------------------------------------------------
 Warning -- This program may not be used in any manner that
 competes with the business of Gaussian, Inc. or will provide
 assistance to any competitor of Gaussian, Inc.  The licensee
 of this program is prohibited from giving any competitor of
 Gaussian, Inc. access to this program.  By using this program,
 the user acknowledges that Gaussian, Inc. is engaged in the
 business of creating and licensing software in the field of
 computational chemistry and represents and warrants to the
 licensee that it is not a competitor of Gaussian, Inc. and that
 it will not use this program in any manner prohibited above.
 ---------------------------------------------------------------
  

 Cite this work as:
 Gaussian 16, Revision C.01,
 M. J. Frisch, G. W. Trucks, H. B. Schlegel, G. E. Scuseria, 
 M. A. Robb, J. R. Cheeseman, G. Scalmani, V. Barone, 
 G. A. Petersson, H. Nakatsuji, X. Li, M. Caricato, A. V. Marenich, 
 J. Bloino, B. G. Janesko, R. Gomperts, B. Mennucci, H. P. Hratchian, 
 J. V. Ortiz, A. F. Izmaylov, J. L. Sonnenberg, D. Williams-Young, 
 F. Ding, F. Lipparini, F. Egidi, J. Goings, B. Peng, A. Petrone, 
 T. Henderson, D. Ranasinghe, V. G. Zakrzewski, J. Gao, N. Rega, 
 G. Zheng, W. Liang, M. Hada, M. Ehara, K. Toyota, R. Fukuda, 
 J. Hasegawa, M. Ishida, T. Nakajima, Y. Honda, O. Kitao, H. Nakai, 
 T. Vreven, K. Throssell, J. A. Montgomery, Jr., J. E. Peralta, 
 F. Ogliaro, M. J. Bearpark, J. J. Heyd, E. N. Brothers, K. N. Kudin, 
 V. N. Staroverov, T. A. Keith, R. Kobayashi, J. Normand, 
 K. Raghavachari, A. P. Rendell, J. C. Burant, S. S. Iyengar, 
 J. Tomasi, M. Cossi, J. M. Millam, M. Klene, C. Adamo, R. Cammi, 
 J. W. Ochterski, R. L. Martin, K. Morokuma, O. Farkas, 
 J. B. Foresman, and D. J. Fox, Gaussian, Inc., Wallingford CT, 2019.
 
 ******************************************
 Gaussian 16:  ES64L-G16RevC.01  3-Jul-2019
                 3-Jan-2023 
 ******************************************
 %chk=0003_q000_m01_k00_force_uwb97xd_def2qzvp.chk
 %nprocshared=2
 Will use up to    2 processors via shared memory.
 %mem=4GB
 ----------------------------------------------------------------------
 #p uwb97xd/chkbasis force guess=read geom=check scf=(maxcycle=900,very
 tightlineq,xqc) integral=grid=ultrafine symmetry=None density=current 
 pop=(cm5,hlygat,mbs,npa) output=wfx
 ----------------------------------------------------------------------
 1/10=7,29=2,30=1,38=1/1,3;
 2/12=2,15=3,40=1/2;
 3/5=7,6=2,11=2,14=-4,25=1,30=1,67=1,71=1,74=-58,75=-5,116=2/1,2,3;
 4/5=1/1;
 5/5=2,7=900,8=3,13=1,17=3,38=6/2,8;
 6/7=2,8=2,9=2,10=2,15=8,20=15,22=-1,27=100,28=1,40=-1,79=1/1,2,7;
 7/29=1,30=1/1,2,3,16;
 1/10=7,30=1/3;
 99/6=200/99;
 Leave Link    1 at Tue Jan  3 09:21:38 2023, MaxMem=   536870912 cpu:               0.2 elap:               0.1
 (Enter /opt/software/gaussian/g16.c01/l101.exe)
 ----------------------------------------------------------------------
 0003_q000_m01_k00_opt_uwb97xd_def2svpd/0003_q000_m01_k00_force_uwb97xd
 _def2qzvp stable-force
 ----------------------------------------------------------------------
 Structure from the checkpoint file:  "0003_q000_m01_k00_force_uwb97xd_def2qzvp.chk"
 Charge =  0 Multiplicity = 1
 Z-Matrix found in chk file.
 C,0,0.9838325225,-0.0325586033,0.0488580178
 S,0,2.6071301422,0.0991997065,0.0187984451
 C,0,3.2273228911,0.736197977,-1.3460048506
 H,0,0.570421034,-0.4575297175,0.9597448627
 H,0,0.3438072589,0.2782232167,-0.7754915598
 H,0,2.615218944,1.0564841772,-2.1877415072
 H,0,4.3104572053,0.8236432464,-1.365823405
 Recover connectivity data from disk.
 ITRead=  0  0  0  0  0  0  0
 MicOpt= -1 -1 -1 -1 -1 -1 -1
 NAtoms=      7 NQM=        7 NQMF=       0 NMMI=      0 NMMIF=      0
                NMic=       0 NMicF=      0.
                    Isotopes and Nuclear Properties:
 (Nuclear quadrupole moments (NQMom) in fm**2, nuclear magnetic moments (NMagM)
  in nuclear magnetons)

  Atom         1           2           3           4           5           6           7
 IAtWgt=          12          32          12           1           1           1           1
 AtmWgt=  12.0000000  31.9720718  12.0000000   1.0078250   1.0078250   1.0078250   1.0078250
 NucSpn=           0           0           0           1           1           1           1
 AtZEff=   3.6000000  13.6000000   3.6000000   1.0000000   1.0000000   1.0000000   1.0000000
 NQMom=    0.0000000   0.0000000   0.0000000   0.0000000   0.0000000   0.0000000   0.0000000
 NMagM=    0.0000000   0.0000000   0.0000000   2.7928460   2.7928460   2.7928460   2.7928460
 AtZNuc=   6.0000000  16.0000000   6.0000000   1.0000000   1.0000000   1.0000000   1.0000000
 Leave Link  101 at Tue Jan  3 09:21:38 2023, MaxMem=   536870912 cpu:               0.4 elap:               0.2
 (Enter /opt/software/gaussian/g16.c01/l103.exe)

 GradGradGradGradGradGradGradGradGradGradGradGradGradGradGradGradGradGrad
 Berny optimization.
 Initialization pass.
 Trust Radius=3.00D-01 FncErr=1.00D-07 GrdErr=1.00D-07 EigMax=2.50D+02 EigMin=1.00D-04
 Number of steps in this run=      2 maximum allowed number of steps=      2.
 GradGradGradGradGradGradGradGradGradGradGradGradGradGradGradGradGradGrad

 Leave Link  103 at Tue Jan  3 09:21:38 2023, MaxMem=   536870912 cpu:               0.0 elap:               0.0
 (Enter /opt/software/gaussian/g16.c01/l202.exe)
                          Input orientation:                          
 ---------------------------------------------------------------------
 Center     Atomic      Atomic             Coordinates (Angstroms)
 Number     Number       Type             X           Y           Z
 ---------------------------------------------------------------------
      1          6           0        0.983833   -0.032559    0.048858
      2         16           0        2.607130    0.099200    0.018798
      3          6           0        3.227323    0.736198   -1.346005
      4          1           0        0.570421   -0.457530    0.959745
      5          1           0        0.343807    0.278223   -0.775492
      6          1           0        2.615219    1.056484   -2.187742
      7          1           0        4.310457    0.823643   -1.365823
 ---------------------------------------------------------------------
                    Distance matrix (angstroms):
                    1          2          3          4          5
     1  C    0.000000
     2  S    1.628913   0.000000
     3  C    2.751341   1.628832   0.000000
     4  H    1.086841   2.311604   3.714915   0.000000
     5  H    1.088931   2.405323   2.974876   1.898350   0.000000
     6  H    2.974864   2.405260   1.088933   4.047234   2.785579
     7  H    3.714948   2.311562   1.086839   4.586670   4.047257
                    6          7
     6  H    0.000000
     7  H    1.898314   0.000000
 Symmetry turned off by external request.
 Stoichiometry    C2H4S
 Rotational constants (GHZ):          32.8865896           8.4327606           6.7117401
 Leave Link  202 at Tue Jan  3 09:21:38 2023, MaxMem=   536870912 cpu:               0.0 elap:               0.0
 (Enter /opt/software/gaussian/g16.c01/l301.exe)
 Basis read from chk: "0003_q000_m01_k00_force_uwb97xd_def2qzvp.chk" (5D, 7F)
 No pseudopotential information found on chk file.
   304 basis functions,   457 primitive gaussians,   370 cartesian basis functions
    16 alpha electrons       16 beta electrons
       nuclear repulsion energy       100.3080120317 Hartrees.
 IExCor= 4639 DFT=T Ex+Corr=wB97XD ExCW=0 ScaHFX=  1.000000
[...]
   197    H    4  pz     Ryd( 4p)     0.00000       7.97863
   198    H    4  dxy    Ryd( 3d)     0.00001       3.08366
   199    H    4  dxy    Ryd( 4d)     0.00000       8.03354
   200    H    4  dxz    Ryd( 3d)     0.00004       3.66926
   201    H    4  dxz    Ryd( 4d)     0.00000       8.43719
   202    H    4  dyz    Ryd( 3d)     0.00006       3.54402
   203    H    4  dyz    Ryd( 4d)     0.00000       8.39426
   204    H    4  dx2y2  Ryd( 3d)     0.00003       3.18749
   205    H    4  dx2y2  Ryd( 4d)     0.00000       8.04764
   206    H    4  dz2    Ryd( 3d)     0.00007       3.67093
   207    H    4  dz2    Ryd( 4d)     0.00000       8.52547
   208    H    4  f(0)   Ryd( 4f)     0.00001       6.83064
   209    H    4  f(C1)  Ryd( 4f)     0.00001       6.73964
   210    H    4  f(S1)  Ryd( 4f)     0.00002       6.68532
   211    H    4  f(C2)  Ryd( 4f)     0.00000       6.59980
   212    H    4  f(S2)  Ryd( 4f)     0.00001       6.54429
   213    H    4  f(C3)  Ryd( 4f)     0.00000       6.31012
   214    H    4  f(S3)  Ryd( 4f)     0.00000       6.30483
 
   215    H    5  S      Val( 1S)     0.38458       0.04860
   216    H    5  S      Ryd( 3S)     0.00037       1.33940
   217    H    5  S      Ryd( 2S)     0.00008       1.12395
   218    H    5  S      Ryd( 4S)     0.00000       5.23433
   219    H    5  px     Ryd( 2p)     0.00007       3.05092
   220    H    5  px     Ryd( 3p)     0.00004       3.99083
   221    H    5  px     Ryd( 4p)     0.00000       8.02214
   222    H    5  py     Ryd( 2p)     0.00003       2.45980
   223    H    5  py     Ryd( 3p)     0.00012       3.14551
   224    H    5  py     Ryd( 4p)     0.00000       7.61889
   225    H    5  pz     Ryd( 2p)     0.00018       3.11278
   226    H    5  pz     Ryd( 3p)     0.00003       4.37643
   227    H    5  pz     Ryd( 4p)     0.00000       8.11611
   228    H    5  dxy    Ryd( 3d)     0.00002       3.19045
   229    H    5  dxy    Ryd( 4d)     0.00000       8.08301
   230    H    5  dxz    Ryd( 3d)     0.00003       3.80668
   231    H    5  dxz    Ryd( 4d)     0.00000       8.49216
   232    H    5  dyz    Ryd( 3d)     0.00004       3.37851
   233    H    5  dyz    Ryd( 4d)     0.00000       8.23340
   234    H    5  dx2y2  Ryd( 3d)     0.00002       3.29379
   235    H    5  dx2y2  Ryd( 4d)     0.00000       8.13330
   236    H    5  dz2    Ryd( 3d)     0.00005       3.56400
   237    H    5  dz2    Ryd( 4d)     0.00000       8.42011
   238    H    5  f(0)   Ryd( 4f)     0.00000       6.78747
   239    H    5  f(C1)  Ryd( 4f)     0.00002       6.69676
   240    H    5  f(S1)  Ryd( 4f)     0.00001       6.63731
   241    H    5  f(C2)  Ryd( 4f)     0.00001       6.54986
   242    H    5  f(S2)  Ryd( 4f)     0.00001       6.50199
   243    H    5  f(C3)  Ryd( 4f)     0.00000       6.42707
   244    H    5  f(S3)  Ryd( 4f)     0.00000       6.39811
 
   245    H    6  S      Val( 1S)     0.38458       0.04859
   246    H    6  S      Ryd( 3S)     0.00037       1.33946
   247    H    6  S      Ryd( 2S)     0.00008       1.12407
   248    H    6  S      Ryd( 4S)     0.00000       5.23418
   249    H    6  px     Ryd( 2p)     0.00012       2.86622
   250    H    6  px     Ryd( 3p)     0.00002       3.95219
   251    H    6  px     Ryd( 4p)     0.00000       8.07027
   252    H    6  py     Ryd( 2p)     0.00002       2.49128
   253    H    6  py     Ryd( 3p)     0.00012       3.15253
   254    H    6  py     Ryd( 4p)     0.00000       7.61047
   255    H    6  pz     Ryd( 2p)     0.00014       3.26489
   256    H    6  pz     Ryd( 3p)     0.00004       4.40930
   257    H    6  pz     Ryd( 4p)     0.00000       8.07631
   258    H    6  dxy    Ryd( 3d)     0.00003       3.15327
   259    H    6  dxy    Ryd( 4d)     0.00000       8.05780
   260    H    6  dxz    Ryd( 3d)     0.00002       3.72266
   261    H    6  dxz    Ryd( 4d)     0.00001       8.48029
   262    H    6  dyz    Ryd( 3d)     0.00004       3.44365
   263    H    6  dyz    Ryd( 4d)     0.00000       8.27242
   264    H    6  dx2y2  Ryd( 3d)     0.00003       3.25164
   265    H    6  dx2y2  Ryd( 4d)     0.00000       8.09607
   266    H    6  dz2    Ryd( 3d)     0.00005       3.66196
   267    H    6  dz2    Ryd( 4d)     0.00000       8.45570
   268    H    6  f(0)   Ryd( 4f)     0.00000       6.80174
   269    H    6  f(C1)  Ryd( 4f)     0.00002       6.71042
   270    H    6  f(S1)  Ryd( 4f)     0.00001       6.66324
   271    H    6  f(C2)  Ryd( 4f)     0.00001       6.54751
   272    H    6  f(S2)  Ryd( 4f)     0.00001       6.50142
   273    H    6  f(C3)  Ryd( 4f)     0.00000       6.40884
   274    H    6  f(S3)  Ryd( 4f)     0.00000       6.36542
 
   275    H    7  S      Val( 1S)     0.38011       0.05132
   276    H    7  S      Ryd( 3S)     0.00024       1.60596
   277    H    7  S      Ryd( 2S)     0.00003       0.56360
   278    H    7  S      Ryd( 4S)     0.00000       5.48155
   279    H    7  px     Ryd( 2p)     0.00024       3.08788
   280    H    7  px     Ryd( 3p)     0.00002       5.84021
   281    H    7  px     Ryd( 4p)     0.00000       8.18565
   282    H    7  py     Ryd( 2p)     0.00002       2.01022
   283    H    7  py     Ryd( 3p)     0.00010       3.60378
   284    H    7  py     Ryd( 4p)     0.00000       7.30096
   285    H    7  pz     Ryd( 2p)     0.00001       2.17830
   286    H    7  pz     Ryd( 3p)     0.00004       3.75787
   287    H    7  pz     Ryd( 4p)     0.00000       7.60841
   288    H    7  dxy    Ryd( 3d)     0.00011       3.53085
   289    H    7  dxy    Ryd( 4d)     0.00000       8.42861
   290    H    7  dxz    Ryd( 3d)     0.00006       3.64182
   291    H    7  dxz    Ryd( 4d)     0.00000       8.51642
   292    H    7  dyz    Ryd( 3d)     0.00000       2.92893
   293    H    7  dyz    Ryd( 4d)     0.00000       7.84616
   294    H    7  dx2y2  Ryd( 3d)     0.00002       3.81322
   295    H    7  dx2y2  Ryd( 4d)     0.00001       8.56653
   296    H    7  dz2    Ryd( 3d)     0.00001       3.24099
   297    H    7  dz2    Ryd( 4d)     0.00000       8.07999
   298    H    7  f(0)   Ryd( 4f)     0.00000       6.35650
   299    H    7  f(C1)  Ryd( 4f)     0.00001       6.73187
   300    H    7  f(S1)  Ryd( 4f)     0.00000       6.07634
   301    H    7  f(C2)  Ryd( 4f)     0.00001       6.61458
   302    H    7  f(S2)  Ryd( 4f)     0.00000       6.69194
   303    H    7  f(C3)  Ryd( 4f)     0.00003       6.70068
   304    H    7  f(S3)  Ryd( 4f)     0.00000       6.84274

 WARNING:  Population inversion found on atom  C    1
           Population inversion found on atom  S    2
           Population inversion found on atom  H    4
           Population inversion found on atom  H    5
           Population inversion found on atom  H    6
           Population inversion found on atom  H    7


 Summary of Natural Population Analysis:                  
                                                          
                                       Natural Population 
                Natural  -----------------------------------------------
    Atom  No    Charge         Core      Valence    Rydberg      Total
 -----------------------------------------------------------------------
      C    1   -0.42679      0.99980     2.41155    0.01544     3.42679
      S    2    0.38724      4.99922     2.56645    0.04709     7.61276
      C    3   -0.42679      0.99980     2.41155    0.01544     3.42679
      H    4    0.11890      0.00000     0.38012    0.00098     0.38110
      H    5    0.11426      0.00000     0.38458    0.00115     0.38574
      H    6    0.11427      0.00000     0.38458    0.00115     0.38573
      H    7    0.11891      0.00000     0.38011    0.00098     0.38109
 =======================================================================
   * Total *    0.00000      6.99881     8.91895    0.08224    16.00000

                                 Natural Population      
 --------------------------------------------------------
   Core                       6.99881 ( 99.9830% of   7)
   Valence                    8.91895 ( 99.0995% of   9)
   Natural Minimal Basis     15.91776 ( 99.4860% of  16)
   Natural Rydberg Basis      0.08224 (  0.5140% of  16)
 --------------------------------------------------------

    Atom  No          Natural Electron Configuration
 ----------------------------------------------------------------------------
      C    1      [core]2S( 0.58)2p( 1.83)3p( 0.01)3d( 0.01)
      S    2      [core]3S( 0.76)3p( 1.81)4S( 0.01)3d( 0.03)4p( 0.01)
      C    3      [core]2S( 0.58)2p( 1.83)3p( 0.01)3d( 0.01)
      H    4            1S( 0.38)
      H    5            1S( 0.38)
      H    6            1S( 0.38)
      H    7            1S( 0.38)


 NBO analysis skipped by request.
 Leave Link  607 at Tue Jan  3 09:22:17 2023, MaxMem=   536870912 cpu:               4.0 elap:               2.0
 (Enter /opt/software/gaussian/g16.c01/l701.exe)
 ... and contract with generalized density number  0.
 Compute integral first derivatives.
 R6Disp: Adding Grimme-D2 dispersion energy 1st derivatives to the gradient.
 Leave Link  701 at Tue Jan  3 09:22:17 2023, MaxMem=   536870912 cpu:               0.5 elap:               0.3
 (Enter /opt/software/gaussian/g16.c01/l702.exe)
 L702 exits ... SP integral derivatives will be done elsewhere.
 Leave Link  702 at Tue Jan  3 09:22:17 2023, MaxMem=   536870912 cpu:               0.1 elap:               0.0
 (Enter /opt/software/gaussian/g16.c01/l703.exe)
 Integral derivatives from FoFJK, PRISM(SPDF).
 Compute integral first derivatives, UseDBF=F ICtDFT=           0.
 Calling FoFJK, ICntrl=      2127 FMM=F ISym2X=0 I1Cent= 0 IOpClX= 1 NMat=1 NMatS=1 NMatT=0.
 FoFJK:  IHMeth= 1 ICntrl=    2127 DoSepK=T KAlg= 0 I1Cent=           0 FoldK=F
 IRaf=         1 NMat=       1 IRICut=       1 DoRegI=T DoRafI=F ISym2E= 0 IDoP0=0 IntGTp=1.
 FoFCou: FMM=F IPFlag=           0 FMFlag=      100000 FMFlg1=         800
         NFxFlg=           0 DoJE=F BraDBF=F KetDBF=F FulRan=T
         wScrn=  0.000000 ICntrl=      2527 IOpCl=  0 I1Cent=           0 NGrid=           0
         NMat0=    1 NMatS0=      1 NMatT0=    0 NMatD0=    1 NMtDS0=    0 NMtDT0=    0
 Symmetry not used in FoFCou.
 Leave Link  703 at Tue Jan  3 09:25:11 2023, MaxMem=   536870912 cpu:             347.3 elap:             173.7
 (Enter /opt/software/gaussian/g16.c01/l716.exe)
 Dipole        =-6.48209348D-02 3.27777169D-02-8.64233970D-02
 -------------------------------------------------------------------
 Center     Atomic                   Forces (Hartrees/Bohr)
 Number     Number              X              Y              Z
 -------------------------------------------------------------------
      1        6           0.005006519    0.000408185   -0.000097144
      2       16          -0.007320436    0.003680874   -0.009723358
      3        6          -0.001916295   -0.001955345    0.004197135
      4        1           0.002815016    0.002872673   -0.006145712
      5        1           0.004351359   -0.002210630    0.005815020
      6        1           0.004382611   -0.002198696    0.005796303
      7        1          -0.007318775   -0.000597060    0.000157756
 -------------------------------------------------------------------
 Cartesian Forces:  Max     0.009723358 RMS     0.004552344
 Z-matrix is all fixed cartesians, so copy forces.
 Force constants in Cartesian coordinates: 
                1             2             3             4             5 
      1  0.799457D+00
      2  0.386953D-01  0.202300D+00
      3  0.262318D-01 -0.197489D+00  0.573805D+00
      4 -0.458605D+00 -0.232735D-01 -0.165583D-01  0.577555D+00
      5 -0.320482D-01 -0.525335D-01  0.183029D-01  0.867656D-01  0.122175D+00
      6  0.365769D-02  0.197847D-01 -0.872720D-01 -0.110154D+00 -0.165608D+00
      7  0.122699D-02 -0.100692D-01  0.221250D-01 -0.139616D+00 -0.489763D-01
      8 -0.597775D-03  0.748286D-02  0.517705D-03 -0.577409D-01 -0.107626D+00
      9  0.278568D-03 -0.108316D-02  0.102956D-01  0.116790D+00  0.142526D+00
     10 -0.144909D+00 -0.441803D-01  0.836168D-01  0.115252D-02 -0.932375D-02
     11 -0.404522D-01 -0.846163D-01  0.105218D+00 -0.241587D-03  0.264194D-02
     12  0.750267D-01  0.104603D+00 -0.264763D+00  0.410365D-03 -0.299905D-02
     13 -0.197168D+00  0.388020D-01 -0.115426D+00 -0.916549D-03  0.691836D-02
     14  0.343779D-01 -0.722913D-01  0.735979D-01 -0.146773D-02  0.180903D-01
     15 -0.105206D+00  0.743316D-01 -0.232001D+00  0.158269D-03  0.144866D-02
     16 -0.246017D-04  0.336366D-03  0.145813D-03  0.192862D-01 -0.309494D-02
     17  0.337132D-03 -0.460942D-02 -0.199817D-02  0.528610D-02  0.146053D-01
     18  0.146171D-03 -0.199852D-02 -0.866351D-03 -0.120134D-01  0.780803D-02
     19  0.227250D-04 -0.310706D-03 -0.134690D-03  0.114404D-02 -0.240739D-03
     20 -0.312161D-03  0.426801D-02  0.185017D-02 -0.932793D-02  0.264671D-02
     21 -0.135369D-03  0.185083D-02  0.802328D-03  0.213670D-01 -0.147893D-02
                6             7             8             9            10 
      6  0.407473D+00
      7  0.965700D-01  0.667382D+00
      8  0.141042D+00  0.492959D-01  0.225135D+00
      9 -0.351317D+00 -0.206782D-01 -0.248346D+00  0.683203D+00
     10  0.213707D-01  0.228255D-04 -0.312081D-03 -0.135286D-03  0.115530D+00
     11 -0.146606D-02 -0.312069D-03  0.426675D-02  0.184962D-02  0.445604D-01
     12  0.901525D-02 -0.135235D-03  0.184900D-02  0.801534D-03 -0.864441D-01
     13 -0.191712D-01 -0.246447D-04  0.336954D-03  0.146068D-03  0.282041D-01
     14  0.324183D-04  0.336979D-03 -0.460733D-02 -0.199726D-02  0.925576D-02
     15  0.148968D-01  0.146176D-03 -0.199858D-02 -0.866379D-03 -0.184082D-01
     16  0.731953D-02 -0.179623D+00  0.329496D-01 -0.989913D-01  0.000000D+00
     17  0.921888D-02  0.373763D-01 -0.753070D-01  0.810589D-01  0.000000D+00
     18 -0.181486D-02 -0.109211D+00  0.803191D-01 -0.246533D+00  0.000000D+00
     19  0.407512D-03 -0.349368D+00 -0.239317D-01  0.258983D-02  0.000000D+00
     20 -0.300348D-02 -0.276515D-01 -0.493443D-01  0.259912D-01  0.000000D+00
     21  0.901933D-02  0.111835D-01  0.266169D-01 -0.955832D-01  0.000000D+00
               11            12            13            14            15 
     11  0.698063D-01
     12 -0.111340D+00  0.260624D+00
     13 -0.355446D-02  0.111423D-01  0.169905D+00
     14  0.790132D-02  0.788712D-02 -0.425029D-01  0.509070D-01
     15  0.573850D-02 -0.567740D-02  0.123309D+00 -0.795202D-01  0.223648D+00
     16  0.000000D+00  0.000000D+00  0.000000D+00  0.000000D+00  0.000000D+00
     17  0.000000D+00  0.000000D+00  0.000000D+00  0.000000D+00  0.000000D+00
     18  0.000000D+00  0.000000D+00  0.000000D+00  0.000000D+00  0.000000D+00
     19  0.000000D+00  0.000000D+00  0.000000D+00  0.000000D+00  0.000000D+00
     20  0.000000D+00  0.000000D+00  0.000000D+00  0.000000D+00  0.000000D+00
     21  0.000000D+00  0.000000D+00  0.000000D+00  0.000000D+00  0.000000D+00
               16            17            18            19            20 
     16  0.161831D+00
     17 -0.418445D-01  0.522901D-01
     18  0.120449D+00 -0.826089D-01  0.230340D+00
     19 -0.147004D-02 -0.115499D-02  0.629518D-03  0.349671D+00
     20  0.116534D-01  0.130211D-01 -0.351969D-02  0.256381D-01  0.294086D-01
     21 -0.289230D-01 -0.567069D-02  0.188748D-01 -0.349217D-02 -0.213182D-01
               21 
     21  0.668867D-01
 Leave Link  716 at Tue Jan  3 09:25:11 2023, MaxMem=   536870912 cpu:               0.1 elap:               0.1
 (Enter /opt/software/gaussian/g16.c01/l103.exe)

 GradGradGradGradGradGradGradGradGradGradGradGradGradGradGradGradGradGrad
 Berny optimization.
 Search for a local minimum.
 Step number   1 out of a maximum of    2
 All quantities printed in internal units (Hartrees-Bohrs-Radians)
 Second derivative matrix not updated -- first step.
 ITU=  0
     Eigenvalues ---    0.00860   0.01482   0.01804   0.07108   0.07556
     Eigenvalues ---    0.11270   0.14823   0.15345   0.17618   0.32617
     Eigenvalues ---    0.36576   0.82416   0.92900   1.11635   1.31988
 Angle between quadratic step and forces=  42.33 degrees.
 Linear search not attempted -- first point.
 B after Tr=    -0.002006    0.001007   -0.002661
         Rot=    1.000000   -0.000015   -0.000005    0.000009 Ang=  -0.00 deg.
 Variable       Old X    -DE/DX   Delta X   Delta X   Delta X     New X
                                 (Linear)    (Quad)   (Total)
    X1        1.85917   0.00501   0.00000   0.02047   0.01846   1.87764
    Y1       -0.06153   0.00041   0.00000   0.00595   0.00692  -0.05461
    Z1        0.09233  -0.00010   0.00000  -0.01025  -0.01293   0.07940
    X2        4.92676  -0.00732   0.00000  -0.00590  -0.00790   4.91886
    Y2        0.18746   0.00368   0.00000   0.00288   0.00380   0.19126
    Z2        0.03552  -0.00972   0.00000  -0.00788  -0.01059   0.02494
    X3        6.09876  -0.00192   0.00000  -0.01795  -0.01995   6.07880
    Y3        1.39121  -0.00196   0.00000  -0.00718  -0.00620   1.38501
    Z3       -2.54358   0.00420   0.00000   0.01362   0.01094  -2.53264
    X4        1.07794   0.00282   0.00000   0.02860   0.02660   1.10454
    Y4       -0.86461   0.00287   0.00000   0.01430   0.01524  -0.84937
    Z4        1.81365  -0.00615   0.00000  -0.02757  -0.03027   1.78339
    X5        0.64970   0.00435   0.00000   0.03226   0.03024   0.67995
    Y5        0.52577  -0.00221   0.00000  -0.00069   0.00035   0.52612
    Z5       -1.46547   0.00582   0.00000   0.00680   0.00415  -1.46132
    X6        4.94205   0.00438   0.00000  -0.00468  -0.00669   4.93536
    Y6        1.99647  -0.00220   0.00000  -0.01326  -0.01221   1.98425
    Z6       -4.13423   0.00580   0.00000   0.02976   0.02711  -4.10712
    X7        8.14558  -0.00732   0.00000  -0.03875  -0.04075   8.10483
    Y7        1.55646  -0.00060   0.00000  -0.00885  -0.00790   1.54856
    Z7       -2.58103   0.00016   0.00000   0.01428   0.01159  -2.56944
         Item               Value     Threshold  Converged?
 Maximum Force            0.009723     0.000450     NO 
 RMS     Force            0.004552     0.000300     NO 
 Maximum Displacement     0.040755     0.001800     NO 
 RMS     Displacement     0.018094     0.001200     NO 
 Predicted change in Energy=-6.433224D-04
 GradGradGradGradGradGradGradGradGradGradGradGradGradGradGradGradGradGrad

 Leave Link  103 at Tue Jan  3 09:25:11 2023, MaxMem=   536870912 cpu:               0.0 elap:               0.0
 (Enter /opt/software/gaussian/g16.c01/l9999.exe)
 Unable to Open any file for archive entry.
 1\1\GINC-GRA738\Force\UwB97XD\Gen\C2H4S1\BHAVUK\03-Jan-2023\0\\#p uwb9
 7xd/chkbasis force guess=read geom=check scf=(maxcycle=900,verytightli
 neq,xqc) integral=grid=ultrafine symmetry=None density=current pop=(cm
 5,hlygat,mbs,npa) output=wfx\\0003_q000_m01_k00_opt_uwb97xd_def2svpd/0
 003_q000_m01_k00_force_uwb97xd_def2qzvp stable-force\\0,1\C,0.98383252
 25,-0.0325586033,0.0488580178\S,2.6071301422,0.0991997065,0.0187984451
 \C,3.2273228911,0.736197977,-1.3460048506\H,0.570421034,-0.4575297175,
 0.9597448627\H,0.3438072589,0.2782232167,-0.7754915598\H,2.615218944,1
 .0564841772,-2.1877415072\H,4.3104572053,0.8236432464,-1.365823405\\Ve
 rsion=ES64L-G16RevC.01\HF=-476.7539757\S2=0.\S2-1=0.\S2A=0.\RMSD=1.037
 e-09\RMSF=4.552e-03\Dipole=-0.0648209,0.0327777,-0.0864234\Quadrupole=
 0.7777797,-1.6521305,0.8743508,0.356851,-0.2883602,-1.3688651\PG=Unkno
 wn\\@
 The archive entry for this job was punched.

 Writing a WFNX file to "0003_q000_m01_k00_force_uwb97xd_def2qzvp.wfx"


 LAW OF COMPENSATION:
      NO CALCULATION IS EVER A COMPLETE FAILURE; IT 
      CAN ALWAYS SERVE AS A BAD EXAMPLE.

                                           -- ANON
 Job cpu time:       0 days  0 hours  7 minutes  5.6 seconds.
 Elapsed time:       0 days  0 hours  3 minutes 32.6 seconds.
 File lengths (MBytes):  RWF=     91 Int=      0 D2E=      0 Chk=     13 Scr=      1
 Normal termination of Gaussian 16 at Tue Jan  3 09:25:11 2023.
