 Entering Gaussian System, Link 0=g16
 Input=0004_q000_m01_k00_force_uhf_def2svpd.com
 Output=0004_q000_m01_k00_force_uhf_def2svpd.log
 Initial command:
 /opt/software/gaussian/g16.c01/l1.exe "/localscratch/bhavuk.2151401.0/Gau-5243.inp" -scrdir="/localscratch/bhavuk.2151401.0/"
 Entering Link 1 = /opt/software/gaussian/g16.c01/l1.exe PID=      5244.
  
 Copyright (c) 1988-2019, Gaussian, Inc.  All Rights Reserved.
  
 This is part of the Gaussian(R) 16 program.  It is based on
 the Gaussian(R) 09 system (copyright 2009, Gaussian, Inc.),
 the Gaussian(R) 03 system (copyright 2003, Gaussian, Inc.),
 the Gaussian(R) 98 system (copyright 1998, Gaussian, Inc.),
 the Gaussian(R) 94 system (copyright 1995, Gaussian, Inc.),
 the Gaussian 92(TM) system (copyright 1992, Gaussian, Inc.),
 the Gaussian 90(TM) system (copyright 1990, Gaussian, Inc.),
 the Gaussian 88(TM) system (copyright 1988, Gaussian, Inc.),
 the Gaussian 86(TM) system (copyright 1986, Carnegie Mellon
 University), and the Gaussian 82(TM) system (copyright 1983,
 Carnegie Mellon University). Gaussian is a federally registered
 trademark of Gaussian, Inc.
  
 This software contains proprietary and confidential information,
 including trade secrets, belonging to Gaussian, Inc.
  
 This software is provided under written license and may be
 used, copied, transmitted, or stored only in accord with that
 written license.
  
 The following legend is applicable only to US Government
 contracts under FAR:
  
                    RESTRICTED RIGHTS LEGEND
  
 Use, reproduction and disclosure by the US Government is
 subject to restrictions as set forth in subparagraphs (a)
 and (c) of the Commercial Computer Software - Restricted
 Rights clause in FAR 52.227-19.
  
 Gaussian, Inc.
 340 Quinnipiac St., Bldg. 40, Wallingford CT 06492
  
  
 ---------------------------------------------------------------
 Warning -- This program may not be used in any manner that
 competes with the business of Gaussian, Inc. or will provide
 assistance to any competitor of Gaussian, Inc.  The licensee
 of this program is prohibited from giving any competitor of
 Gaussian, Inc. access to this program.  By using this program,
 the user acknowledges that Gaussian, Inc. is engaged in the
 business of creating and licensing software in the field of
 computational chemistry and represents and warrants to the
 licensee that it is not a competitor of Gaussian, Inc. and that
 it will not use this program in any manner prohibited above.
 ---------------------------------------------------------------
  

 Cite this work as:
 Gaussian 16, Revision C.01,
 M. J. Frisch, G. W. Trucks, H. B. Schlegel, G. E. Scuseria, 
 M. A. Robb, J. R. Cheeseman, G. Scalmani, V. Barone, 
 G. A. Petersson, H. Nakatsuji, X. Li, M. Caricato, A. V. Marenich, 
 J. Bloino, B. G. Janesko, R. Gomperts, B. Mennucci, H. P. Hratchian, 
 J. V. Ortiz, A. F. Izmaylov, J. L. Sonnenberg, D. Williams-Young, 
 F. Ding, F. Lipparini, F. Egidi, J. Goings, B. Peng, A. Petrone, 
 T. Henderson, D. Ranasinghe, V. G. Zakrzewski, J. Gao, N. Rega, 
 G. Zheng, W. Liang, M. Hada, M. Ehara, K. Toyota, R. Fukuda, 
 J. Hasegawa, M. Ishida, T. Nakajima, Y. Honda, O. Kitao, H. Nakai, 
 T. Vreven, K. Throssell, J. A. Montgomery, Jr., J. E. Peralta, 
 F. Ogliaro, M. J. Bearpark, J. J. Heyd, E. N. Brothers, K. N. Kudin, 
 V. N. Staroverov, T. A. Keith, R. Kobayashi, J. Normand, 
 K. Raghavachari, A. P. Rendell, J. C. Burant, S. S. Iyengar, 
 J. Tomasi, M. Cossi, J. M. Millam, M. Klene, C. Adamo, R. Cammi, 
 J. W. Ochterski, R. L. Martin, K. Morokuma, O. Farkas, 
 J. B. Foresman, and D. J. Fox, Gaussian, Inc., Wallingford CT, 2019.
 
 ******************************************
 Gaussian 16:  ES64L-G16RevC.01  3-Jul-2019
                 3-Jan-2023 
 ******************************************
 %chk=0004_q000_m01_k00_force_uhf_def2svpd.chk
 %nprocshared=2
 Will use up to    2 processors via shared memory.
 %mem=4GB
 ----------------------------------------------------------------------
 #p uhf/gen stable=opt scf=(maxcycle=900,verytightlineq,xqc) integral=g
 rid=ultrafine symmetry=None density=current iop(99/18=-1) output=wfn
 ----------------------------------------------------------------------
 1/38=1,172=1/1;
 2/12=2,15=3,17=6,18=5,40=1/2;
 3/5=7,11=2,25=1,30=1,75=-5,116=2/1,2,3;
 4//1;
 5/5=2,7=900,8=3,13=1,17=3,38=5/2,8;
 6/7=2,8=2,9=2,10=2,22=-1,28=1/1;
 8/6=1,10=90,11=11/1;
 9/8=-3,42=1,46=1/14;
 5/5=2,7=900,8=3,17=43,38=5/8(-2);
 6/7=2,8=2,9=2,10=2,22=-1,28=1/1;
 99/5=1,6=100,9=1,18=-1/99;
 Leave Link    1 at Tue Jan  3 09:06:29 2023, MaxMem=   536870912 cpu:               0.1 elap:               0.1
 (Enter /opt/software/gaussian/g16.c01/l101.exe)
 ----------------------------------------------------------------------
 0004_q000_m01_k00_opt_uwb97xd_def2svpd/0004_q000_m01_k00_force_uhf_def
 2svpd stable-force
 ----------------------------------------------------------------------
 Symbolic Z-matrix:
 Charge =  0 Multiplicity = 1
 C                     0.88829   0.14223   0.10893 
 S                     2.50672   0.10417   0.04489 
 N                     3.30324   1.2299    0.77076 
 H                     0.37527  -0.66533  -0.41323 
 H                     0.32428   0.91486   0.63386 
 H                     2.71384   1.92012   1.24185 
 
 ITRead=  0  0  0  0  0  0
 MicOpt= -1 -1 -1 -1 -1 -1
 NAtoms=      6 NQM=        6 NQMF=       0 NMMI=      0 NMMIF=      0
                NMic=       0 NMicF=      0.
                    Isotopes and Nuclear Properties:
 (Nuclear quadrupole moments (NQMom) in fm**2, nuclear magnetic moments (NMagM)
  in nuclear magnetons)

  Atom         1           2           3           4           5           6
 IAtWgt=          12          32          14           1           1           1
 AtmWgt=  12.0000000  31.9720718  14.0030740   1.0078250   1.0078250   1.0078250
 NucSpn=           0           0           2           1           1           1
 AtZEff=  -0.0000000  -0.0000000  -0.0000000  -0.0000000  -0.0000000  -0.0000000
 NQMom=    0.0000000   0.0000000   2.0440000   0.0000000   0.0000000   0.0000000
 NMagM=    0.0000000   0.0000000   0.4037610   2.7928460   2.7928460   2.7928460
 AtZNuc=   6.0000000  16.0000000   7.0000000   1.0000000   1.0000000   1.0000000
 Leave Link  101 at Tue Jan  3 09:06:29 2023, MaxMem=   536870912 cpu:               0.5 elap:               0.3
 (Enter /opt/software/gaussian/g16.c01/l202.exe)
                          Input orientation:                          
 ---------------------------------------------------------------------
 Center     Atomic      Atomic             Coordinates (Angstroms)
 Number     Number       Type             X           Y           Z
 ---------------------------------------------------------------------
      1          6           0        0.888294    0.142235    0.108926
      2         16           0        2.506724    0.104170    0.044890
      3          7           0        3.303240    1.229897    0.770762
      4          1           0        0.375274   -0.665334   -0.413229
      5          1           0        0.324276    0.914865    0.633860
      6          1           0        2.713842    1.920118    1.241851
 ---------------------------------------------------------------------
                    Distance matrix (angstroms):
                    1          2          3          4          5
     1  C    0.000000
     2  S    1.620144   0.000000
     3  N    2.730019   1.558394   0.000000
     4  H    1.089956   2.311945   3.683303   0.000000
     5  H    1.091159   2.401498   2.998702   1.896319   0.000000
     6  H    2.788730   2.184785   1.022604   3.859113   2.662745
                    6
     6  H    0.000000
 Symmetry turned off by external request.
 Stoichiometry    CH3NS
 Rotational constants (GHZ):          36.3131241           8.8290023           7.1022055
 Leave Link  202 at Tue Jan  3 09:06:29 2023, MaxMem=   536870912 cpu:               0.0 elap:               0.0
 (Enter /opt/software/gaussian/g16.c01/l301.exe)
 General basis read from cards:  (5D, 7F)
 Centers:       4      5      6
 S 3 1.00
     Exponent=  1.3010701000D+01 Coefficients=  1.9682158000D-02
     Exponent=  1.9622572000D+00 Coefficients=  1.3796524000D-01
     Exponent=  4.4453796000D-01 Coefficients=  4.7831935000D-01
 S 1 1.00
     Exponent=  1.2194962000D-01 Coefficients=  1.0000000000D+00
 P 1 1.00
     Exponent=  8.0000000000D-01 Coefficients=  1.0000000000D+00
 P 1 1.00
     Exponent=  1.1704099050D-01 Coefficients=  1.0000000000D+00
 ****
 Centers:       1
 S 5 1.00
     Exponent=  1.2384016938D+03 Coefficients=  5.4568832082D-03
     Exponent=  1.8629004992D+02 Coefficients=  4.0638409211D-02
     Exponent=  4.2251176346D+01 Coefficients=  1.8025593888D-01
     Exponent=  1.1676557932D+01 Coefficients=  4.6315121755D-01
     Exponent=  3.5930506482D+00 Coefficients=  4.4087173314D-01
 S 1 1.00
     Exponent=  4.0245147363D-01 Coefficients=  1.0000000000D+00
 S 1 1.00
     Exponent=  1.3090182668D-01 Coefficients=  1.0000000000D+00
 S 1 1.00
     Exponent=  6.7053540256D-02 Coefficients=  1.0000000000D+00
 P 3 1.00
     Exponent=  9.4680970621D+00 Coefficients=  3.8387871728D-02
     Exponent=  2.0103545142D+00 Coefficients=  2.1117025112D-01
     Exponent=  5.4771004707D-01 Coefficients=  5.1328172114D-01
 P 1 1.00
     Exponent=  1.5268613795D-01 Coefficients=  1.0000000000D+00
 D 1 1.00
     Exponent=  8.0000000000D-01 Coefficients=  1.0000000000D+00
 D 1 1.00
     Exponent=  1.1713185140D-01 Coefficients=  1.0000000000D+00
 ****
 Centers:       3
 S 5 1.00
     Exponent=  1.7128415853D+03 Coefficients= -5.3934125305D-03
     Exponent=  2.5764812677D+02 Coefficients= -4.0221581118D-02
     Exponent=  5.8458245853D+01 Coefficients= -1.7931144990D-01
     Exponent=  1.6198367905D+01 Coefficients= -4.6376317823D-01
     Exponent=  5.0052600809D+00 Coefficients= -4.4171422662D-01
 S 1 1.00
     Exponent=  5.8731856571D-01 Coefficients=  1.0000000000D+00
 S 1 1.00
     Exponent=  1.8764592253D-01 Coefficients=  1.0000000000D+00
 S 1 1.00
     Exponent=  9.6171241529D-02 Coefficients=  1.0000000000D+00
 P 3 1.00
     Exponent=  1.3571470233D+01 Coefficients= -4.0072398852D-02
     Exponent=  2.9257372874D+00 Coefficients= -2.1807045028D-01
     Exponent=  7.9927750754D-01 Coefficients= -5.1294466049D-01
 P 1 1.00
     Exponent=  2.1954348034D-01 Coefficients=  1.0000000000D+00
 D 1 1.00
     Exponent=  1.0000000000D+00 Coefficients=  1.0000000000D+00
 D 1 1.00
     Exponent=  1.6697708112D-01 Coefficients=  1.0000000000D+00
 ****
 Centers:       2
 S 5 1.00
     Exponent=  9.1849303010D+03 Coefficients= -2.2294387756D-03
     Exponent=  1.3815105503D+03 Coefficients= -1.6683029937D-02
     Exponent=  3.1387147580D+02 Coefficients= -7.5262436116D-02
     Exponent=  8.8053870623D+01 Coefficients= -1.9376827038D-01
     Exponent=  2.7039914905D+01 Coefficients= -1.7718020803D-01
 S 3 1.00
     Exponent=  4.5648731303D+01 Coefficients= -1.0736062573D-01
     Exponent=  4.9664522326D+00 Coefficients=  6.5066293018D-01
     Exponent=  2.0116242047D+00 Coefficients=  5.9712155354D-01
 S 1 1.00
     Exponent=  3.5661077013D-01 Coefficients=  1.0000000000D+00
 S 1 1.00
     Exponent=  1.3507221477D-01 Coefficients=  1.0000000000D+00
 S 1 1.00
     Exponent=  4.4999823506D-02 Coefficients=  1.0000000000D+00
 P 5 1.00
     Exponent=  2.6198233439D+02 Coefficients= -9.2729929822D-03
     Exponent=  6.1306894736D+01 Coefficients= -6.6547669241D-02
     Exponent=  1.9103729887D+01 Coefficients= -2.4828595903D-01
     Exponent=  6.6567720378D+00 Coefficients= -4.8703847402D-01
     Exponent=  2.3959635161D+00 Coefficients= -3.9337850312D-01
 P 1 1.00
     Exponent=  6.1776161679D-01 Coefficients=  1.0000000000D+00
 P 1 1.00
     Exponent=  1.6993376871D-01 Coefficients=  1.0000000000D+00
 P 1 1.00
     Exponent=  4.1706793676D-02 Coefficients=  1.0000000000D+00
 D 1 1.00
     Exponent=  5.5000000000D-01 Coefficients=  1.0000000000D+00
 D 1 1.00
     Exponent=  1.0172853717D-01 Coefficients=  1.0000000000D+00
 ****
 Ernie: Thresh=  0.10000D-02 Tol=  0.10000D-05 Strict=F.
    91 basis functions,   141 primitive gaussians,    97 cartesian basis functions
    16 alpha electrons       16 beta electrons
       nuclear repulsion energy       102.0311797422 Hartrees.
 IExCor=    0 DFT=F Ex=HF Corr=None ExCW=0 ScaHFX=  1.000000
 ScaDFX=  1.000000  1.000000  1.000000  1.000000 ScalE2=  1.000000  1.000000
 IRadAn=      5 IRanWt=     -1 IRanGd=            0 ICorTp=0 IEmpDi=  4
 NAtoms=    6 NActive=    6 NUniq=    6 SFac= 1.00D+00 NAtFMM=   60 NAOKFM=F Big=F
 Integral buffers will be    131072 words long.
 Raffenetti 2 integral format.
 Two-electron integral symmetry is turned off.
 Leave Link  301 at Tue Jan  3 09:06:29 2023, MaxMem=   536870912 cpu:               0.2 elap:               0.1
 (Enter /opt/software/gaussian/g16.c01/l302.exe)
 NPDir=0 NMtPBC=     1 NCelOv=     1 NCel=       1 NClECP=     1 NCelD=      1
         NCelK=      1 NCelE2=     1 NClLst=     1 CellRange=     0.0.
 One-electron integrals computed using PRISM.
 NBasis=    91 RedAO= T EigKep=  4.68D-04  NBF=    91
 NBsUse=    91 1.00D-06 EigRej= -1.00D+00 NBFU=    91
 Leave Link  302 at Tue Jan  3 09:06:29 2023, MaxMem=   536870912 cpu:               0.3 elap:               0.1
 (Enter /opt/software/gaussian/g16.c01/l303.exe)
 DipDrv:  MaxL=1.
 Leave Link  303 at Tue Jan  3 09:06:29 2023, MaxMem=   536870912 cpu:               0.1 elap:               0.1
 (Enter /opt/software/gaussian/g16.c01/l401.exe)
 ExpMin= 4.17D-02 ExpMax= 9.18D+03 ExpMxC= 1.38D+03 IAcc=3 IRadAn=         5 AccDes= 0.00D+00
 Harris functional with IExCor=  205 and IRadAn=       5 diagonalized for initial guess.
 HarFok:  IExCor=  205 AccDes= 0.00D+00 IRadAn=         5 IDoV= 1 UseB2=F ITyADJ=14
 ICtDFT=  3500011 ScaDFX=  1.000000  1.000000  1.000000  1.000000
 FoFCou: FMM=F IPFlag=           0 FMFlag=      100000 FMFlg1=           0
         NFxFlg=           0 DoJE=T BraDBF=F KetDBF=T FulRan=T
         wScrn=  0.000000 ICntrl=       500 IOpCl=  0 I1Cent=   200000004 NGrid=           0
         NMat0=    1 NMatS0=      1 NMatT0=    0 NMatD0=    1 NMtDS0=    0 NMtDT0=    0
 Symmetry not used in FoFCou.
 Harris En= -491.111712161840    
 JPrj=0 DoOrth=F DoCkMO=F.
 Initial guess <Sx>= 0.0000 <Sy>= 0.0000 <Sz>= 0.0000 <S**2>=-0.0000 S=-0.0000
 Leave Link  401 at Tue Jan  3 09:06:30 2023, MaxMem=   536870912 cpu:               0.7 elap:               0.3
 (Enter /opt/software/gaussian/g16.c01/l502.exe)
 Keep R1 and R2 ints in memory in canonical form, NReq=18390017.
 FoFCou: FMM=F IPFlag=           0 FMFlag=           0 FMFlg1=           0
         NFxFlg=           0 DoJE=F BraDBF=F KetDBF=F FulRan=T
         wScrn=  0.000000 ICntrl=       600 IOpCl=  0 I1Cent=           0 NGrid=           0
         NMat0=    1 NMatS0=   4186 NMatT0=    0 NMatD0=    1 NMtDS0=    0 NMtDT0=    0
 Symmetry not used in FoFCou.
 Two-electron integral symmetry not used.
 UHF open shell SCF:
 Using DIIS extrapolation, IDIIS=  1040.
 NGot=   536870912 LenX=   519323767 LenY=   519313917
 Requested convergence on RMS density matrix=1.00D-08 within 128 cycles.
 Requested convergence on MAX density matrix=1.00D-06.
 Requested convergence on             energy=1.00D-06.
 No special actions if energy rises.

 Cycle   1  Pass 1  IDiag  1:
 E= -491.098169563712    
 DIIS: error= 3.91D-02 at cycle   1 NSaved=   1.
 NSaved= 1 IEnMin= 1 EnMin= -491.098169563712     IErMin= 1 ErrMin= 3.91D-02
 ErrMax= 3.91D-02  0.00D+00 EMaxC= 1.00D-01 BMatC= 1.06D+00 BMatP= 1.06D+00
 IDIUse=3 WtCom= 6.09D-01 WtEn= 3.91D-01
 Coeff-Com:  0.100D+01
 Coeff-En:   0.100D+01
 Coeff:      0.100D+01
 Gap=     0.312 Goal=   None    Shift=    0.000
 Gap=     0.312 Goal=   None    Shift=    0.000
 GapD=    0.312 DampG=1.000 DampE=0.500 DampFc=0.5000 IDamp=-1.
 Damping current iteration by 5.00D-01
 RMSDP=9.09D-03 MaxDP=1.52D-01              OVMax= 1.95D-01

 Cycle   2  Pass 1  IDiag  1:
 E= -491.203988681760     Delta-E=       -0.105819118048 Rises=F Damp=T
 DIIS: error= 1.21D-02 at cycle   2 NSaved=   2.
 NSaved= 2 IEnMin= 2 EnMin= -491.203988681760     IErMin= 2 ErrMin= 1.21D-02
 ErrMax= 1.21D-02  0.00D+00 EMaxC= 1.00D-01 BMatC= 1.31D-01 BMatP= 1.06D+00
 IDIUse=3 WtCom= 8.79D-01 WtEn= 1.21D-01
 Coeff-Com: -0.358D+00 0.136D+01
 Coeff-En:   0.000D+00 0.100D+01
 Coeff:     -0.315D+00 0.131D+01
 Gap=     0.392 Goal=   None    Shift=    0.000
 Gap=     0.392 Goal=   None    Shift=    0.000
 RMSDP=3.05D-03 MaxDP=4.53D-02 DE=-1.06D-01 OVMax= 8.19D-02

 Cycle   3  Pass 1  IDiag  1:
 E= -491.293028848054     Delta-E=       -0.089040166294 Rises=F Damp=F
 DIIS: error= 2.50D-03 at cycle   3 NSaved=   3.
 NSaved= 3 IEnMin= 3 EnMin= -491.293028848054     IErMin= 3 ErrMin= 2.50D-03
 ErrMax= 2.50D-03  0.00D+00 EMaxC= 1.00D-01 BMatC= 3.65D-03 BMatP= 1.31D-01
 IDIUse=3 WtCom= 9.75D-01 WtEn= 2.50D-02
 Coeff-Com: -0.566D-01 0.802D-01 0.976D+00
 Coeff-En:   0.000D+00 0.000D+00 0.100D+01
 Coeff:     -0.552D-01 0.782D-01 0.977D+00
 Gap=     0.387 Goal=   None    Shift=    0.000
 Gap=     0.387 Goal=   None    Shift=    0.000
 RMSDP=5.75D-04 MaxDP=7.59D-03 DE=-8.90D-02 OVMax= 1.22D-02

 Cycle   4  Pass 1  IDiag  1:
 E= -491.294029978525     Delta-E=       -0.001001130471 Rises=F Damp=F
 DIIS: error= 1.51D-03 at cycle   4 NSaved=   4.
 NSaved= 4 IEnMin= 4 EnMin= -491.294029978525     IErMin= 4 ErrMin= 1.51D-03
 ErrMax= 1.51D-03  0.00D+00 EMaxC= 1.00D-01 BMatC= 7.07D-04 BMatP= 3.65D-03
 IDIUse=3 WtCom= 9.85D-01 WtEn= 1.51D-02
 Coeff-Com: -0.240D-02-0.204D-01 0.301D+00 0.722D+00
 Coeff-En:   0.000D+00 0.000D+00 0.000D+00 0.100D+01
 Coeff:     -0.236D-02-0.201D-01 0.296D+00 0.726D+00
 Gap=     0.388 Goal=   None    Shift=    0.000
 Gap=     0.388 Goal=   None    Shift=    0.000
 RMSDP=2.39D-04 MaxDP=4.11D-03 DE=-1.00D-03 OVMax= 1.10D-02

 Cycle   5  Pass 1  IDiag  1:
 E= -491.294271866762     Delta-E=       -0.000241888237 Rises=F Damp=F
 DIIS: error= 5.10D-04 at cycle   5 NSaved=   5.
 NSaved= 5 IEnMin= 5 EnMin= -491.294271866762     IErMin= 5 ErrMin= 5.10D-04
 ErrMax= 5.10D-04  0.00D+00 EMaxC= 1.00D-01 BMatC= 1.52D-04 BMatP= 7.07D-04
 IDIUse=3 WtCom= 9.95D-01 WtEn= 5.10D-03
 Coeff-Com:  0.114D-01-0.212D-01-0.111D+00 0.208D+00 0.913D+00
 Coeff-En:   0.000D+00 0.000D+00 0.000D+00 0.000D+00 0.100D+01
 Coeff:      0.113D-01-0.211D-01-0.111D+00 0.207D+00 0.913D+00
 Gap=     0.388 Goal=   None    Shift=    0.000
 Gap=     0.388 Goal=   None    Shift=    0.000
 RMSDP=1.13D-04 MaxDP=1.96D-03 DE=-2.42D-04 OVMax= 2.50D-03

 Cycle   6  Pass 1  IDiag  1:
 E= -491.294335254104     Delta-E=       -0.000063387342 Rises=F Damp=F
 DIIS: error= 1.65D-04 at cycle   6 NSaved=   6.
 NSaved= 6 IEnMin= 6 EnMin= -491.294335254104     IErMin= 6 ErrMin= 1.65D-04
 ErrMax= 1.65D-04  0.00D+00 EMaxC= 1.00D-01 BMatC= 1.30D-05 BMatP= 1.52D-04
 IDIUse=3 WtCom= 9.98D-01 WtEn= 1.65D-03
 Coeff-Com:  0.296D-02-0.299D-02-0.546D-01-0.250D-01-0.192D-01 0.110D+01
 Coeff-En:   0.000D+00 0.000D+00 0.000D+00 0.000D+00 0.000D+00 0.100D+01
 Coeff:      0.295D-02-0.299D-02-0.545D-01-0.250D-01-0.191D-01 0.110D+01
 Gap=     0.388 Goal=   None    Shift=    0.000
 Gap=     0.388 Goal=   None    Shift=    0.000
 RMSDP=5.84D-05 MaxDP=7.40D-04 DE=-6.34D-05 OVMax= 2.94D-03

 Cycle   7  Pass 1  IDiag  1:
 E= -491.294349634775     Delta-E=       -0.000014380671 Rises=F Damp=F
 DIIS: error= 9.50D-05 at cycle   7 NSaved=   7.
 NSaved= 7 IEnMin= 7 EnMin= -491.294349634775     IErMin= 7 ErrMin= 9.50D-05
 ErrMax= 9.50D-05  0.00D+00 EMaxC= 1.00D-01 BMatC= 4.30D-06 BMatP= 1.30D-05
 IDIUse=1 WtCom= 1.00D+00 WtEn= 0.00D+00
 Coeff-Com: -0.231D-02 0.324D-02 0.428D-01 0.258D-01-0.217D+00-0.498D+00
 Coeff-Com:  0.165D+01
 Coeff:     -0.231D-02 0.324D-02 0.428D-01 0.258D-01-0.217D+00-0.498D+00
 Coeff:      0.165D+01
 Gap=     0.388 Goal=   None    Shift=    0.000
 Gap=     0.388 Goal=   None    Shift=    0.000
 RMSDP=5.25D-05 MaxDP=6.98D-04 DE=-1.44D-05 OVMax= 2.26D-03

 Cycle   8  Pass 1  IDiag  1:
 E= -491.294355155420     Delta-E=       -0.000005520644 Rises=F Damp=F
 DIIS: error= 3.32D-05 at cycle   8 NSaved=   8.
 NSaved= 8 IEnMin= 8 EnMin= -491.294355155420     IErMin= 8 ErrMin= 3.32D-05
 ErrMax= 3.32D-05  0.00D+00 EMaxC= 1.00D-01 BMatC= 5.07D-07 BMatP= 4.30D-06
 IDIUse=1 WtCom= 1.00D+00 WtEn= 0.00D+00
 Coeff-Com: -0.917D-04-0.243D-03 0.401D-02 0.110D-01 0.768D-02-0.100D+00
 Coeff-Com: -0.296D+00 0.137D+01
 Coeff:     -0.917D-04-0.243D-03 0.401D-02 0.110D-01 0.768D-02-0.100D+00
 Coeff:     -0.296D+00 0.137D+01
 Gap=     0.388 Goal=   None    Shift=    0.000
 Gap=     0.388 Goal=   None    Shift=    0.000
 RMSDP=2.44D-05 MaxDP=3.71D-04 DE=-5.52D-06 OVMax= 9.98D-04

 Cycle   9  Pass 1  IDiag  1:
 E= -491.294355911358     Delta-E=       -0.000000755939 Rises=F Damp=F
 DIIS: error= 9.32D-06 at cycle   9 NSaved=   9.
 NSaved= 9 IEnMin= 9 EnMin= -491.294355911358     IErMin= 9 ErrMin= 9.32D-06
 ErrMax= 9.32D-06  0.00D+00 EMaxC= 1.00D-01 BMatC= 3.18D-08 BMatP= 5.07D-07
 IDIUse=1 WtCom= 1.00D+00 WtEn= 0.00D+00
 Coeff-Com:  0.220D-03-0.204D-03-0.609D-02-0.347D-02 0.214D-01 0.881D-01
 Coeff-Com: -0.170D+00-0.189D+00 0.126D+01
 Coeff:      0.220D-03-0.204D-03-0.609D-02-0.347D-02 0.214D-01 0.881D-01
 Coeff:     -0.170D+00-0.189D+00 0.126D+01
 Gap=     0.388 Goal=   None    Shift=    0.000
 Gap=     0.388 Goal=   None    Shift=    0.000
 RMSDP=5.62D-06 MaxDP=1.06D-04 DE=-7.56D-07 OVMax= 1.80D-04

 Cycle  10  Pass 1  IDiag  1:
 E= -491.294355945874     Delta-E=       -0.000000034516 Rises=F Damp=F
 DIIS: error= 1.96D-06 at cycle  10 NSaved=  10.
 NSaved=10 IEnMin=10 EnMin= -491.294355945874     IErMin=10 ErrMin= 1.96D-06
 ErrMax= 1.96D-06  0.00D+00 EMaxC= 1.00D-01 BMatC= 1.46D-09 BMatP= 3.18D-08
 IDIUse=1 WtCom= 1.00D+00 WtEn= 0.00D+00
 Coeff-Com: -0.777D-04 0.126D-03 0.117D-02 0.351D-03-0.548D-02-0.173D-01
 Coeff-Com:  0.650D-01-0.388D-01-0.325D+00 0.132D+01
 Coeff:     -0.777D-04 0.126D-03 0.117D-02 0.351D-03-0.548D-02-0.173D-01
 Coeff:      0.650D-01-0.388D-01-0.325D+00 0.132D+01
 Gap=     0.388 Goal=   None    Shift=    0.000
 Gap=     0.388 Goal=   None    Shift=    0.000
 RMSDP=8.98D-07 MaxDP=1.71D-05 DE=-3.45D-08 OVMax= 2.15D-05

 Cycle  11  Pass 1  IDiag  1:
 E= -491.294355947177     Delta-E=       -0.000000001303 Rises=F Damp=F
 DIIS: error= 5.19D-07 at cycle  11 NSaved=  11.
 NSaved=11 IEnMin=11 EnMin= -491.294355947177     IErMin=11 ErrMin= 5.19D-07
 ErrMax= 5.19D-07  0.00D+00 EMaxC= 1.00D-01 BMatC= 6.70D-11 BMatP= 1.46D-09
 IDIUse=1 WtCom= 1.00D+00 WtEn= 0.00D+00
 Coeff-Com:  0.182D-04-0.336D-04-0.186D-03 0.385D-04 0.101D-02 0.217D-02
 Coeff-Com: -0.148D-01 0.204D-01 0.575D-01-0.461D+00 0.139D+01
 Coeff:      0.182D-04-0.336D-04-0.186D-03 0.385D-04 0.101D-02 0.217D-02
 Coeff:     -0.148D-01 0.204D-01 0.575D-01-0.461D+00 0.139D+01
 Gap=     0.388 Goal=   None    Shift=    0.000
 Gap=     0.388 Goal=   None    Shift=    0.000
 RMSDP=1.85D-07 MaxDP=2.18D-06 DE=-1.30D-09 OVMax= 5.55D-06

 Cycle  12  Pass 1  IDiag  1:
 E= -491.294355947252     Delta-E=       -0.000000000074 Rises=F Damp=F
 DIIS: error= 1.09D-07 at cycle  12 NSaved=  12.
 NSaved=12 IEnMin=12 EnMin= -491.294355947252     IErMin=12 ErrMin= 1.09D-07
 ErrMax= 1.09D-07  0.00D+00 EMaxC= 1.00D-01 BMatC= 4.40D-12 BMatP= 6.70D-11
 IDIUse=1 WtCom= 1.00D+00 WtEn= 0.00D+00
 Coeff-Com: -0.516D-05 0.106D-04 0.213D-04-0.501D-04-0.141D-03-0.351D-04
 Coeff-Com:  0.319D-02-0.763D-02-0.689D-02 0.129D+00-0.592D+00 0.147D+01
 Coeff:     -0.516D-05 0.106D-04 0.213D-04-0.501D-04-0.141D-03-0.351D-04
 Coeff:      0.319D-02-0.763D-02-0.689D-02 0.129D+00-0.592D+00 0.147D+01
 Gap=     0.388 Goal=   None    Shift=    0.000
 Gap=     0.388 Goal=   None    Shift=    0.000
 RMSDP=5.07D-08 MaxDP=7.96D-07 DE=-7.45D-11 OVMax= 1.20D-06

 Cycle  13  Pass 1  IDiag  1:
 E= -491.294355947256     Delta-E=       -0.000000000005 Rises=F Damp=F
 DIIS: error= 2.19D-08 at cycle  13 NSaved=  13.
 NSaved=13 IEnMin=13 EnMin= -491.294355947256     IErMin=13 ErrMin= 2.19D-08
 ErrMax= 2.19D-08  0.00D+00 EMaxC= 1.00D-01 BMatC= 2.26D-13 BMatP= 4.40D-12
 IDIUse=1 WtCom= 1.00D+00 WtEn= 0.00D+00
 Coeff-Com: -0.628D-06 0.104D-05 0.901D-05 0.473D-05-0.445D-04-0.164D-03
 Coeff-Com:  0.675D-03-0.469D-03-0.279D-02 0.135D-01-0.146D-01-0.208D+00
 Coeff-Com:  0.121D+01
 Coeff:     -0.628D-06 0.104D-05 0.901D-05 0.473D-05-0.445D-04-0.164D-03
 Coeff:      0.675D-03-0.469D-03-0.279D-02 0.135D-01-0.146D-01-0.208D+00
 Coeff:      0.121D+01
 Gap=     0.388 Goal=   None    Shift=    0.000
 Gap=     0.388 Goal=   None    Shift=    0.000
 RMSDP=1.16D-08 MaxDP=2.14D-07 DE=-4.77D-12 OVMax= 2.83D-07

 Cycle  14  Pass 1  IDiag  1:
 E= -491.294355947258     Delta-E=       -0.000000000002 Rises=F Damp=F
 DIIS: error= 3.88D-09 at cycle  14 NSaved=  14.
 NSaved=14 IEnMin=14 EnMin= -491.294355947258     IErMin=14 ErrMin= 3.88D-09
 ErrMax= 3.88D-09  0.00D+00 EMaxC= 1.00D-01 BMatC= 8.99D-15 BMatP= 2.26D-13
 IDIUse=1 WtCom= 1.00D+00 WtEn= 0.00D+00
 Coeff-Com:  0.377D-06-0.724D-06-0.255D-05 0.206D-05 0.144D-04 0.185D-04
 Coeff-Com: -0.266D-03 0.478D-03 0.817D-03-0.937D-02 0.384D-01-0.588D-01
 Coeff-Com: -0.168D+00 0.120D+01
 Coeff:      0.377D-06-0.724D-06-0.255D-05 0.206D-05 0.144D-04 0.185D-04
 Coeff:     -0.266D-03 0.478D-03 0.817D-03-0.937D-02 0.384D-01-0.588D-01
 Coeff:     -0.168D+00 0.120D+01
 Gap=     0.388 Goal=   None    Shift=    0.000
 Gap=     0.388 Goal=   None    Shift=    0.000
 RMSDP=1.98D-09 MaxDP=3.03D-08 DE=-1.59D-12 OVMax= 4.19D-08

 SCF Done:  E(UHF) =  -491.294355947     A.U. after   14 cycles
            NFock= 14  Conv=0.20D-08     -V/T= 2.0016
 <Sx>= 0.0000 <Sy>= 0.0000 <Sz>= 0.0000 <S**2>=-0.0000 S=-0.0000
 <L.S>=  0.00000000000    
 KE= 4.905234972732D+02 PE=-1.368393644379D+03 EE= 2.845446114162D+02
 Annihilation of the first spin contaminant:
 S**2 before annihilation    -0.0000,   after     0.0000
 Leave Link  502 at Tue Jan  3 09:06:30 2023, MaxMem=   536870912 cpu:               1.3 elap:               0.8
 (Enter /opt/software/gaussian/g16.c01/l508.exe)
 QCSCF skips out because SCF is already converged.
 Leave Link  508 at Tue Jan  3 09:06:31 2023, MaxMem=   536870912 cpu:               0.0 elap:               0.0
 (Enter /opt/software/gaussian/g16.c01/l601.exe)
 Copying SCF densities to generalized density rwf, IOpCl= 1 IROHF=0.

 **********************************************************************

            Population analysis using the SCF Density.

 **********************************************************************

 Alpha  occ. eigenvalues --  -92.04683 -15.55675 -11.28677  -9.06894  -6.75679
 Alpha  occ. eigenvalues --   -6.75542  -6.75456  -1.21779  -1.02083  -0.80990
 Alpha  occ. eigenvalues --   -0.66833  -0.64525  -0.52554  -0.50086  -0.44151
 Alpha  occ. eigenvalues --   -0.33439
 Alpha virt. eigenvalues --    0.05378   0.08885   0.09397   0.10651   0.12212
 Alpha virt. eigenvalues --    0.14899   0.18068   0.19465   0.24526   0.25974
 Alpha virt. eigenvalues --    0.27233   0.29133   0.31184   0.31578   0.32812
 Alpha virt. eigenvalues --    0.34048   0.35351   0.36212   0.41018   0.41171
 Alpha virt. eigenvalues --    0.42231   0.44692   0.44967   0.47790   0.49002
 Alpha virt. eigenvalues --    0.49030   0.52045   0.52831   0.56506   0.58621
 Alpha virt. eigenvalues --    0.60986   0.63028   0.66722   0.68247   0.72861
 Alpha virt. eigenvalues --    0.81976   0.94819   0.95670   1.00688   1.01599
 Alpha virt. eigenvalues --    1.09356   1.10250   1.11178   1.13923   1.20096
 Alpha virt. eigenvalues --    1.20171   1.27312   1.28371   1.34221   1.39964
 Alpha virt. eigenvalues --    1.40167   1.42742   1.51001   1.57445   1.68010
 Alpha virt. eigenvalues --    1.68870   1.76182   1.84166   1.95631   2.00012
 Alpha virt. eigenvalues --    2.06822   2.19003   2.36218   2.36525   2.38325
 Alpha virt. eigenvalues --    2.48336   2.55621   2.74161   2.78178   2.95435
 Alpha virt. eigenvalues --    2.95442   3.20514   3.31184   3.32146   3.75509
  Beta  occ. eigenvalues --  -92.04683 -15.55675 -11.28677  -9.06894  -6.75679
  Beta  occ. eigenvalues --   -6.75542  -6.75456  -1.21779  -1.02083  -0.80990
  Beta  occ. eigenvalues --   -0.66833  -0.64525  -0.52554  -0.50086  -0.44151
  Beta  occ. eigenvalues --   -0.33439
  Beta virt. eigenvalues --    0.05378   0.08885   0.09397   0.10651   0.12212
  Beta virt. eigenvalues --    0.14899   0.18068   0.19465   0.24526   0.25974
  Beta virt. eigenvalues --    0.27233   0.29133   0.31184   0.31578   0.32812
  Beta virt. eigenvalues --    0.34048   0.35351   0.36212   0.41018   0.41171
  Beta virt. eigenvalues --    0.42231   0.44692   0.44967   0.47790   0.49002
  Beta virt. eigenvalues --    0.49030   0.52045   0.52831   0.56506   0.58621
  Beta virt. eigenvalues --    0.60986   0.63028   0.66722   0.68247   0.72861
  Beta virt. eigenvalues --    0.81976   0.94819   0.95670   1.00688   1.01599
  Beta virt. eigenvalues --    1.09356   1.10250   1.11178   1.13923   1.20096
  Beta virt. eigenvalues --    1.20171   1.27312   1.28371   1.34221   1.39964
  Beta virt. eigenvalues --    1.40167   1.42742   1.51001   1.57445   1.68010
  Beta virt. eigenvalues --    1.68870   1.76182   1.84166   1.95631   2.00012
  Beta virt. eigenvalues --    2.06822   2.19003   2.36218   2.36525   2.38325
  Beta virt. eigenvalues --    2.48336   2.55621   2.74161   2.78178   2.95435
  Beta virt. eigenvalues --    2.95442   3.20514   3.31184   3.32146   3.75509
          Condensed to atoms (all electrons):
               1          2          3          4          5          6
     1  C    4.832871   0.225837  -0.015097   0.370965   0.440600  -0.034451
     2  S    0.225837  15.437735   0.035799   0.000323  -0.017337   0.094678
     3  N   -0.015097   0.035799   7.365749   0.011059  -0.015612   0.067858
     4  H    0.370965   0.000323   0.011059   0.716993  -0.076912  -0.002194
     5  H    0.440600  -0.017337  -0.015612  -0.076912   0.633839   0.008881
     6  H   -0.034451   0.094678   0.067858  -0.002194   0.008881   0.824020
          Atomic-Atomic Spin Densities.
               1          2          3          4          5          6
     1  C    0.000000   0.000000   0.000000   0.000000   0.000000   0.000000
     2  S    0.000000   0.000000   0.000000   0.000000   0.000000   0.000000
     3  N    0.000000   0.000000   0.000000   0.000000   0.000000   0.000000
     4  H    0.000000   0.000000   0.000000   0.000000   0.000000   0.000000
     5  H    0.000000   0.000000   0.000000   0.000000   0.000000   0.000000
     6  H    0.000000   0.000000   0.000000   0.000000   0.000000   0.000000
 Mulliken charges and spin densities:
               1          2
     1  C    0.179275   0.000000
     2  S    0.222965   0.000000
     3  N   -0.449756   0.000000
     4  H   -0.020235   0.000000
     5  H    0.026541   0.000000
     6  H    0.041209   0.000000
 Sum of Mulliken charges =  -0.00000   0.00000
 Mulliken charges and spin densities with hydrogens summed into heavy atoms:
               1          2
     1  C    0.185581   0.000000
     2  S    0.222965   0.000000
     3  N   -0.408547   0.000000
 Electronic spatial extent (au):  <R**2>=            824.3128
 Charge=             -0.0000 electrons
 Dipole moment (field-independent basis, Debye):
    X=             -3.0559    Y=             -0.4625    Z=             -0.2324  Tot=              3.0994
 Quadrupole moment (field-independent basis, Debye-Ang):
   XX=            -41.3011   YY=            -25.1382   ZZ=            -26.4577
   XY=             -4.0880   XZ=             -2.4881   YZ=              1.7605
 Traceless Quadrupole moment (field-independent basis, Debye-Ang):
   XX=            -10.3355   YY=              5.8275   ZZ=              4.5080
   XY=             -4.0880   XZ=             -2.4881   YZ=              1.7605
 Octapole moment (field-independent basis, Debye-Ang**2):
  XXX=           -242.3849  YYY=            -28.5542  ZZZ=            -19.7943  XYY=            -61.1006
  XXY=            -31.5619  XXZ=            -19.4760  XZZ=            -60.4788  YZZ=             -8.7152
  YYZ=             -2.8974  XYZ=              0.0976
 Hexadecapole moment (field-independent basis, Debye-Ang**3):
 XXXX=          -1233.1802 YYYY=            -93.7193 ZZZZ=            -61.5076 XXXY=           -187.4038
 XXXZ=           -115.4218 YYYX=            -90.0873 YYYZ=            -12.4317 ZZZX=            -59.6179
 ZZZY=            -19.7298 XXYY=           -196.3942 XXZZ=           -179.4442 YYZZ=            -21.3182
 XXYZ=            -15.7136 YYXZ=            -11.7504 ZZXY=            -28.1792
 N-N= 1.020311797422D+02 E-N=-1.368393644471D+03  KE= 4.905234972732D+02
                          Isotropic Fermi Contact Couplings
        Atom                 a.u.       MegaHertz       Gauss      10(-4) cm-1
     1  C(13)              0.00000       0.00000       0.00000       0.00000
     2  S(33)              0.00000       0.00000       0.00000       0.00000
     3  N(14)              0.00000       0.00000       0.00000       0.00000
     4  H(1)               0.00000       0.00000       0.00000       0.00000
     5  H(1)               0.00000       0.00000       0.00000       0.00000
     6  H(1)               0.00000       0.00000       0.00000       0.00000
 --------------------------------------------------------
       Center         ----  Spin Dipole Couplings  ----
                      3XX-RR        3YY-RR        3ZZ-RR
 --------------------------------------------------------
     1   Atom        0.000000      0.000000      0.000000
     2   Atom        0.000000      0.000000      0.000000
     3   Atom        0.000000      0.000000      0.000000
     4   Atom        0.000000      0.000000      0.000000
     5   Atom        0.000000      0.000000      0.000000
     6   Atom        0.000000      0.000000      0.000000
 --------------------------------------------------------
                        XY            XZ            YZ
 --------------------------------------------------------
     1   Atom        0.000000      0.000000      0.000000
     2   Atom        0.000000      0.000000      0.000000
     3   Atom        0.000000      0.000000      0.000000
     4   Atom        0.000000      0.000000      0.000000
     5   Atom        0.000000      0.000000      0.000000
     6   Atom        0.000000      0.000000      0.000000
 --------------------------------------------------------


 ---------------------------------------------------------------------------------
              Anisotropic Spin Dipole Couplings in Principal Axis System
 ---------------------------------------------------------------------------------

       Atom             a.u.   MegaHertz   Gauss  10(-4) cm-1        Axes

              Baa     0.0000     0.000     0.000     0.000  1.0000  0.0000  0.0000
     1 C(13)  Bbb     0.0000     0.000     0.000     0.000 -0.0000  1.0000  0.0000
              Bcc     0.0000     0.000     0.000     0.000  0.0000  0.0000  1.0000
 
              Baa     0.0000     0.000     0.000     0.000  1.0000  0.0000  0.0000
     2 S(33)  Bbb     0.0000     0.000     0.000     0.000 -0.0000  1.0000  0.0000
              Bcc     0.0000     0.000     0.000     0.000  0.0000  0.0000  1.0000
 
              Baa     0.0000     0.000     0.000     0.000  1.0000  0.0000  0.0000
     3 N(14)  Bbb     0.0000     0.000     0.000     0.000 -0.0000  1.0000  0.0000
              Bcc     0.0000     0.000     0.000     0.000  0.0000  0.0000  1.0000
 
              Baa     0.0000     0.000     0.000     0.000  1.0000  0.0000  0.0000
     4 H(1)   Bbb     0.0000     0.000     0.000     0.000 -0.0000  1.0000  0.0000
              Bcc     0.0000     0.000     0.000     0.000  0.0000  0.0000  1.0000
 
              Baa     0.0000     0.000     0.000     0.000  1.0000  0.0000  0.0000
     5 H(1)   Bbb     0.0000     0.000     0.000     0.000 -0.0000  1.0000  0.0000
              Bcc     0.0000     0.000     0.000     0.000  0.0000  0.0000  1.0000
 
              Baa     0.0000     0.000     0.000     0.000  1.0000  0.0000  0.0000
     6 H(1)   Bbb     0.0000     0.000     0.000     0.000 -0.0000  1.0000  0.0000
              Bcc     0.0000     0.000     0.000     0.000  0.0000  0.0000  1.0000
 

 ---------------------------------------------------------------------------------

 No NMR shielding tensors so no spin-rotation constants.
 Leave Link  601 at Tue Jan  3 09:06:31 2023, MaxMem=   536870912 cpu:               0.3 elap:               0.2
 (Enter /opt/software/gaussian/g16.c01/l801.exe)
 Range of M.O.s used for correlation:     1    91
 NBasis=    91 NAE=    16 NBE=    16 NFC=     0 NFV=     0
 NROrb=     91 NOA=    16 NOB=    16 NVA=    75 NVB=    75

 **** Warning!!: The largest alpha MO coefficient is  0.14604015D+02


 **** Warning!!: The largest beta MO coefficient is  0.14604015D+02

 Leave Link  801 at Tue Jan  3 09:06:31 2023, MaxMem=   536870912 cpu:               0.1 elap:               0.0
 (Enter /opt/software/gaussian/g16.c01/l914.exe)
 UHF ground state
 Doing stability rather than CIS.
 Keep R1 and R2 ints in memory in canonical form, NReq=18390357.
 FoFCou: FMM=F IPFlag=           0 FMFlag=           0 FMFlg1=           0
         NFxFlg=           0 DoJE=F BraDBF=F KetDBF=F FulRan=T
         wScrn=  0.000000 ICntrl=       600 IOpCl=  0 I1Cent=           0 NGrid=           0
         NMat0=    1 NMatS0=   4186 NMatT0=    0 NMatD0=    1 NMtDS0=    0 NMtDT0=    0
 Symmetry not used in FoFCou.
 Two-electron integral symmetry not used.
 MDV=   536870912 DFT=F DoStab=T Mixed=F DoRPA=F DoScal=F NonHer=F
 Making orbital integer symmetry assigments:
    12 initial guesses have been made.
 Convergence on wavefunction:    0.001000000000000
 Davidson Disk Diagonalization:  ConvIn= 1.00D-03 SkipCon=T Conv= 1.00D-03.
 Max sub-space:  2000 roots to seek:    12 dimension of matrix:         2400
 Iteration     1 Dimension    12 NMult     0 NNew     12
 CISAX will form    12 AO SS matrices at one time.
 NMat=    12 NSing=    12 JSym2X= 0.
 Excitation Energies [eV] at current iteration:
 Root      1 :    -0.540442596912176
 Root      2 :     4.420588171603697
 Root      3 :     4.705211620907368
 Root      4 :     5.366964650906148
 Root      5 :     6.077098010379777
 Root      6 :     6.698994665780176
 Root      7 :     6.842450346086256
 Root      8 :     7.092176417222102
 Root      9 :     7.377250234000984
 Root     10 :     8.894997687371466
 Root     11 :     9.204320089874782
 Root     12 :    12.809086638252930
 Iteration     2 Dimension    24 NMult    12 NNew     12
 CISAX will form    12 AO SS matrices at one time.
 NMat=    12 NSing=    12 JSym2X= 0.
 Root      1 not converged, maximum delta is    0.059358798180227
 Excitation Energies [eV] at current iteration:
 Root      1 :    -1.706776775021376   Change is   -1.166334178109201
 Root      2 :     3.196555268272280   Change is   -1.224032903331416
 Root      3 :     3.418921170596959   Change is   -1.286290450310408
 Root      4 :     4.253581577079924   Change is   -1.113383073826224
 Root      5 :     4.837784123510472   Change is   -4.366535966364309
 Root      6 :     5.500940821887954   Change is   -0.576157188491823
 Root      7 :     5.938507791360541   Change is   -0.903942554725715
 Root      8 :     6.025123874662874   Change is   -0.673870791117301
 Root      9 :     6.340722511302292   Change is   -0.751453905919810
 Root     10 :     6.816778281016119   Change is   -0.560471952984865
 Root     11 :     7.953727705722346   Change is   -0.941269981649121
 Root     12 :     9.051271017946210   Change is   -3.757815620306720
 Iteration     3 Dimension    27 NMult    24 NNew      3
 CISAX will form     3 AO SS matrices at one time.
 NMat=     3 NSing=     3 JSym2X= 0.
 Root      1 not converged, maximum delta is    0.012493022567725
 Excitation Energies [eV] at current iteration:
 Root      1 :    -1.759609068445386   Change is   -0.052832293424009
 Root      2 :     3.074046343668758   Change is   -0.122508924603523
 Root      3 :     3.313618356881311   Change is   -0.105302813715648
 Iteration     4 Dimension    30 NMult    27 NNew      3
 CISAX will form     3 AO SS matrices at one time.
 NMat=     3 NSing=     3 JSym2X= 0.
 Root      1 not converged, maximum delta is    0.002516084359639
 Excitation Energies [eV] at current iteration:
 Root      1 :    -1.763673068721502   Change is   -0.004064000276116
 Root      2 :     3.053006435495047   Change is   -0.021039908173711
 Root      3 :     3.296374629564347   Change is   -0.017243727316964
 Iteration     5 Dimension    33 NMult    30 NNew      3
 CISAX will form     3 AO SS matrices at one time.
 NMat=     3 NSing=     3 JSym2X= 0.
 Root      1 has converged.
 Excitation Energies [eV] at current iteration:
 Root      1 :    -1.763919606018475   Change is   -0.000246537296972
 Root      2 :     3.049449631127407   Change is   -0.003556804367640
 Root      3 :     3.292926554695753   Change is   -0.003448074868594
 Convergence achieved on expansion vectors.
 ***********************************************************************
 Stability analysis using <AA,BB:AA,BB> singles matrix:
 ***********************************************************************
 1PDM for each excited state written to RWF  633
 Ground to excited state transition densities written to RWF  633

 Eigenvectors of the stability matrix:
 
 Excited state symmetry could not be determined.
 Eigenvector   1:  3.000-?Sym  Eigenvalue=-0.0648229  <S**2>=2.000
     16A -> 17A        0.65628
     16A -> 26A       -0.11816
     16A -> 29A       -0.12640
     16B -> 17B       -0.65628
     16B -> 26B        0.11816
     16B -> 29B        0.12640
 The wavefunction has an internal instability.
 Leave Link  914 at Tue Jan  3 09:06:32 2023, MaxMem=   536870912 cpu:               1.9 elap:               1.0
 (Enter /opt/software/gaussian/g16.c01/l508.exe)
 Keep R1 and R2 ints in memory in canonical form, NReq=18390417.
 FoFCou: FMM=F IPFlag=           0 FMFlag=           0 FMFlg1=           0
         NFxFlg=           0 DoJE=F BraDBF=F KetDBF=F FulRan=T
         wScrn=  0.000000 ICntrl=       600 IOpCl=  0 I1Cent=           0 NGrid=           0
         NMat0=    1 NMatS0=   4186 NMatT0=    0 NMatD0=    1 NMtDS0=    0 NMtDT0=    0
 Symmetry not used in FoFCou.
 Two-electron integral symmetry not used.
 Very tight linear equation convergence will be used.
 UHF wavefunction.
 Quadratic Convergence SCF Method.
 Line search only if initial step raises energy.
 Perform preliminary linear searches along instability eigenvector.
     ILin= 1 X=0.000D+00 Y=-4.912943559473D+02 DE= 0.00D+00
     ILin= 2 X=1.000D-01 Y=-4.912949912886D+02 DE=-6.35D-04
     ILin= 3 X=1.414D-01 Y=-4.912956010853D+02 DE=-1.25D-03
     ILin= 4 X=2.000D-01 Y=-4.912967448942D+02 DE=-2.39D-03
     ILin= 5 X=2.828D-01 Y=-4.912987352411D+02 DE=-4.38D-03
     ILin= 6 X=4.000D-01 Y=-4.913015728468D+02 DE=-7.22D-03
     ILin= 7 X=5.657D-01 Y=-4.913030286266D+02 DE=-8.67D-03
     ILin= 8 X=8.000D-01 Y=-4.912916572120D+02 DE= 2.70D-03
     An  expanding polynomial of degree  8 produced  0.5323
 Iteration F X= 5.323D-01 EE=-4.913031627811804D+02
     ILin= 1 X=0.000D+00 Y=-4.912943559473D+02 DE= 0.00D+00
     ILin= 2 X=1.000D-01 Y=-4.912949912874D+02 DE=-6.35D-04
     ILin= 3 X=1.414D-01 Y=-4.912956010819D+02 DE=-1.25D-03
 The two search directions are symmetric.
 Iteration B X= 5.323D-01 EE=-4.913031627811804D+02
 Take forward step, X= 5.323D-01 Step= 5.323D-01
 Iteration   1 EE= -491.303162757536                                    Grad=4.052D-02 Max rot=    0.8033 deg.
 Gradient too large for Newton-Raphson -- use scaled steepest descent instead.
 Alpha Gap=     0.443 HL deriv= 6.75D-03
  Beta Gap=     0.461 HL deriv= 2.72D-03
     ILin= 1 X=0.000D+00 Y=-4.913031627575D+02 DE= 0.00D+00 F= -3.34D-03
     ILin= 2 X=3.000D-01 Y=-4.913040654321D+02 DE=-9.03D-04 F= -2.68D-03 OKLS=F
     ILin= 3 X=6.000D-01 Y=-4.913047706318D+02 DE=-1.61D-03 F= -2.02D-03
     ILin= 4 X=1.200D+00 Y=-4.913055896183D+02 DE=-2.43D-03 F= -7.09D-04
     ILin= 5 X=2.400D+00 Y=-4.913048699632D+02 DE=-1.71D-03 F=  1.91D-03
     An  expanding polynomial of degree  5 produced  1.5246
 Iteration   2 EE= -491.305704612497     Delta-E=       -0.002541854961 Grad=2.014D-02 Max rot=    0.4414 deg.
 Gradient too large for Newton-Raphson -- use scaled steepest descent instead.
 Alpha Gap=     0.442 HL deriv= 1.74D-02
  Beta Gap=     0.458 HL deriv= 8.83D-03
     ILin= 1 X=0.000D+00 Y=-4.913057046125D+02 DE= 0.00D+00 F= -9.18D-04
     ILin= 2 X=7.000D-01 Y=-4.913061547883D+02 DE=-4.50D-04 F= -3.68D-04 OKLS=F
     ILin= 3 X=1.400D+00 Y=-4.913062192961D+02 DE=-5.15D-04 F=  1.84D-04
     Accept linear search using points  2 and  3.
     An  expanding polynomial of degree  3 produced  1.1168
 Iteration   3 EE= -491.306239747818     Delta-E=       -0.000535135321 Grad=1.809D-02 Max rot=    0.2289 deg.
 Gradient too large for Newton-Raphson -- use scaled steepest descent instead.
 Alpha Gap=     0.444 HL deriv= 8.99D-03
  Beta Gap=     0.467 HL deriv= 7.83D-03
     ILin= 1 X=0.000D+00 Y=-4.913062397478D+02 DE= 0.00D+00 F= -5.79D-04
     ILin= 2 X=1.300D+00 Y=-4.913065654838D+02 DE=-3.26D-04 F=  7.74D-05 OKLS=T
     Accept linear search using points  1 and  2.
     An  expanding polynomial of degree  2 produced  1.2100
     Minimum is close to point  2 DX= -9.00D-02 DF= -2.64D-06 DXR=  7.43D-02 DFR=  8.12D-03 which will be used.
 Iteration   4 EE= -491.306565483768     Delta-E=       -0.000325735949 Grad=1.706D-02 Max rot=    0.3615 deg.
 Gradient too large for Newton-Raphson -- use scaled steepest descent instead.
 Alpha Gap=     0.448 HL deriv= 1.41D-02
  Beta Gap=     0.465 HL deriv= 3.33D-03
     ILin= 1 X=0.000D+00 Y=-4.913065654838D+02 DE= 0.00D+00 F= -6.21D-04
     ILin= 2 X=1.200D+00 Y=-4.913067851438D+02 DE=-2.20D-04 F=  2.55D-04 OKLS=T
     Accept linear search using points  1 and  2.
     An  expanding polynomial of degree  2 produced  0.9073
 Iteration   5 EE= -491.306828520488     Delta-E=       -0.000263036720 Grad=1.282D-02 Max rot=    0.1650 deg.
 Gradient too large for Newton-Raphson -- use scaled steepest descent instead.
 Alpha Gap=     0.447 HL deriv= 6.37D-03
  Beta Gap=     0.474 HL deriv= 6.08D-03
     ILin= 1 X=0.000D+00 Y=-4.913068285205D+02 DE= 0.00D+00 F= -3.03D-04
     ILin= 2 X=1.000D+00 Y=-4.913070034176D+02 DE=-1.75D-04 F= -4.66D-05 OKLS=T
     Reject lnstep IMin12=  1  2 Big=T Turn=F Min= 1.182D+00 FVal=-4.913070076597D+02 Lims=  0.00D+00  1.00D+00
     ILin= 3 X=2.100D+00 Y=-4.913068997103D+02 DE=-7.12D-05 F=  2.35D-04
     An  expanding polynomial of degree  3 produced  1.1822
 Iteration   6 EE= -491.307007659728     Delta-E=       -0.000179139240 Grad=1.083D-02 Max rot=    0.2693 deg.
 Gradient too large for Newton-Raphson -- use scaled steepest descent instead.
 Alpha Gap=     0.451 HL deriv= 1.04D-02
  Beta Gap=     0.472 HL deriv= 1.93D-03
     ILin= 1 X=0.000D+00 Y=-4.913070076597D+02 DE= 0.00D+00 F= -2.76D-04
     ILin= 2 X=1.000D+00 Y=-4.913071404774D+02 DE=-1.33D-04 F=  1.03D-05 OKLS=T
     Accept linear search using points  1 and  2.
     An  expanding polynomial of degree  2 produced  0.9640
     Minimum is close to point  2 DX= -3.60D-02 DF= -1.85D-07 DXR=  3.73D-02 DFR=  1.39D-03 which will be used.
 Iteration   7 EE= -491.307140477393     Delta-E=       -0.000132817665 Grad=9.985D-03 Max rot=    0.1238 deg.
 QCNR:  CnvC1=4.90D-10 CnvC2=4.90D-09
 LinEq1:  Iter=  0 NonCon=     1 RMS=2.19D-04 Max=5.30D-03 NDo=     1
 AX will form     1 AO Fock derivatives at one time.
 LinEq1:  Iter=  1 NonCon=     1 RMS=1.99D-04 Max=6.95D-03 NDo=     1
 LinEq1:  Iter=  2 NonCon=     1 RMS=1.19D-05 Max=2.42D-04 NDo=     1
 LinEq1:  Iter=  3 NonCon=     1 RMS=5.83D-06 Max=1.62D-04 NDo=     1
 LinEq1:  Iter=  4 NonCon=     1 RMS=2.08D-06 Max=5.55D-05 NDo=     1
 LinEq1:  Iter=  5 NonCon=     1 RMS=4.45D-07 Max=4.50D-06 NDo=     1
 LinEq1:  Iter=  6 NonCon=     1 RMS=1.41D-07 Max=1.92D-06 NDo=     1
 LinEq1:  Iter=  7 NonCon=     1 RMS=3.81D-08 Max=3.86D-07 NDo=     1
 LinEq1:  Iter=  8 NonCon=     1 RMS=9.88D-09 Max=7.67D-08 NDo=     1
 LinEq1:  Iter=  9 NonCon=     1 RMS=2.87D-09 Max=3.02D-08 NDo=     1
 LinEq1:  Iter= 10 NonCon=     1 RMS=6.18D-10 Max=5.81D-09 NDo=     1
 LinEq1:  Iter= 11 NonCon=     0 RMS=1.25D-10 Max=1.30D-09 NDo=     1
 Linear equations converged to 4.899D-10 4.899D-09 after    11 iterations.
 Angle between quadratic step and gradient=  56.54 degrees.
     ILin= 1 X=0.000D+00 Y=-4.913071404774D+02 DE= 0.00D+00 F= -7.69D-04
     ILin= 2 X=1.000D+00 Y=-4.913075013329D+02 DE=-3.61D-04 F=  7.24D-05 OKLS=T
     Accept linear search using points  1 and  2.
     An  expanding polynomial of degree  2 produced  0.9207
     Minimum is close to point  2 DX= -7.93D-02 DF= -2.86D-06 DXR=  8.62D-02 DFR=  7.93D-03 which will be used.
 Iteration   8 EE= -491.307501332946     Delta-E=       -0.000360855553 Grad=9.597D-04 Max rot=    0.0185 deg.
 QCNR:  CnvC1=4.90D-10 CnvC2=4.90D-09
 LinEq1:  Iter=  0 NonCon=     1 RMS=2.68D-05 Max=7.08D-04 NDo=     1
 LinEq1:  Iter=  1 NonCon=     1 RMS=6.07D-06 Max=1.53D-04 NDo=     1
 LinEq1:  Iter=  2 NonCon=     1 RMS=2.07D-06 Max=4.76D-05 NDo=     1
 LinEq1:  Iter=  3 NonCon=     1 RMS=6.48D-07 Max=9.76D-06 NDo=     1
 LinEq1:  Iter=  4 NonCon=     1 RMS=2.22D-07 Max=3.39D-06 NDo=     1
 LinEq1:  Iter=  5 NonCon=     1 RMS=9.56D-08 Max=1.83D-06 NDo=     1
 LinEq1:  Iter=  6 NonCon=     1 RMS=3.22D-08 Max=3.86D-07 NDo=     1
 LinEq1:  Iter=  7 NonCon=     1 RMS=1.45D-08 Max=1.95D-07 NDo=     1
 LinEq1:  Iter=  8 NonCon=     1 RMS=4.90D-09 Max=5.33D-08 NDo=     1
 LinEq1:  Iter=  9 NonCon=     1 RMS=1.42D-09 Max=1.58D-08 NDo=     1
 LinEq1:  Iter= 10 NonCon=     0 RMS=3.36D-10 Max=3.68D-09 NDo=     1
 Linear equations converged to 4.899D-10 4.899D-09 after    10 iterations.
 Angle between quadratic step and gradient=  45.32 degrees.
     ILin= 1 X=0.000D+00 Y=-4.913075013329D+02 DE= 0.00D+00 F= -7.80D-06
     ILin= 2 X=1.000D+00 Y=-4.913075052596D+02 DE=-3.93D-06 F= -8.69D-08 OKLS=T
     Reject lnstep IMin12=  1  2 Big=T Turn=F Min= 1.011D+00 FVal=-4.913075052601D+02 Lims=  0.00D+00  1.00D+00
     ILin= 3 X=2.000D+00 Y=-4.913075015645D+02 DE=-2.32D-07 F=  7.45D-06
     An  expanding polynomial of degree  3 produced  1.0152
     Minimum is close to point  2 DX=  1.52D-02 DF= -8.79D-10 DXR=  1.50D-02 DFR=  2.24D-04 which will be used.
 Iteration   9 EE= -491.307505259563     Delta-E=       -0.000003926617 Grad=9.170D-06 Max rot=    0.0002 deg.
 QCNR:  CnvC1=9.17D-11 CnvC2=9.17D-10
 LinEq1:  Iter=  0 NonCon=     1 RMS=3.04D-07 Max=9.27D-06 NDo=     1
 LinEq1:  Iter=  1 NonCon=     1 RMS=7.00D-08 Max=1.76D-06 NDo=     1
 LinEq1:  Iter=  2 NonCon=     1 RMS=3.23D-08 Max=6.11D-07 NDo=     1
 LinEq1:  Iter=  3 NonCon=     1 RMS=1.04D-08 Max=2.25D-07 NDo=     1
 LinEq1:  Iter=  4 NonCon=     1 RMS=4.56D-09 Max=8.90D-08 NDo=     1
 LinEq1:  Iter=  5 NonCon=     1 RMS=1.81D-09 Max=2.30D-08 NDo=     1
 LinEq1:  Iter=  6 NonCon=     1 RMS=4.71D-10 Max=6.08D-09 NDo=     1
 LinEq1:  Iter=  7 NonCon=     1 RMS=1.52D-10 Max=1.36D-09 NDo=     1
 LinEq1:  Iter=  8 NonCon=     0 RMS=4.40D-11 Max=4.85D-10 NDo=     1
 Linear equations converged to 9.170D-11 9.170D-10 after     8 iterations.
 Angle between quadratic step and gradient=  38.20 degrees.
     ILin= 1 X=0.000D+00 Y=-4.913075052596D+02 DE= 0.00D+00 F= -1.04D-09
     ILin= 2 X=1.000D+00 Y=-4.913075052601D+02 DE=-5.19D-10
 Iteration  10 EE= -491.307505260082     Delta-E=       -0.000000000519 Grad=1.041D-07 Max rot=    0.0000 deg.
 Rotation gradient small -- convergence achieved.
 SCF Done:  E(UHF) =  -491.307505260     a.u. after   10 cycles
            Convg  =    0.1041D-06                    58 Fock formations.
              S**2 =  0.6428                  -V/T =  2.0009
 <Sx>= 0.0000 <Sy>= 0.0000 <Sz>= 0.0000 <S**2>= 0.6428 S= 0.4449
 <L.S>=  0.00000000000    
 Annihilation of the first spin contaminant:
 S**2 before annihilation     0.6428,   after     0.1046
 Leave Link  508 at Tue Jan  3 09:06:35 2023, MaxMem=   536870912 cpu:               2.8 elap:               2.3
 (Enter /opt/software/gaussian/g16.c01/l801.exe)
 Range of M.O.s used for correlation:     1    91
 NBasis=    91 NAE=    16 NBE=    16 NFC=     0 NFV=     0
 NROrb=     91 NOA=    16 NOB=    16 NVA=    75 NVB=    75

 **** Warning!!: The largest alpha MO coefficient is  0.14254753D+02


 **** Warning!!: The largest beta MO coefficient is  0.14500257D+02

 Leave Link  801 at Tue Jan  3 09:06:35 2023, MaxMem=   536870912 cpu:               0.1 elap:               0.0
 (Enter /opt/software/gaussian/g16.c01/l914.exe)
 UHF ground state
 Doing stability rather than CIS.
 Keep R1 and R2 ints in memory in canonical form, NReq=18390357.
 FoFCou: FMM=F IPFlag=           0 FMFlag=           0 FMFlg1=           0
         NFxFlg=           0 DoJE=F BraDBF=F KetDBF=F FulRan=T
         wScrn=  0.000000 ICntrl=       600 IOpCl=  0 I1Cent=           0 NGrid=           0
         NMat0=    1 NMatS0=   4186 NMatT0=    0 NMatD0=    1 NMtDS0=    0 NMtDT0=    0
 Symmetry not used in FoFCou.
 Two-electron integral symmetry not used.
 MDV=   536870912 DFT=F DoStab=T Mixed=F DoRPA=F DoScal=F NonHer=F
 Making orbital integer symmetry assigments:
    12 initial guesses have been made.
 Convergence on wavefunction:    0.001000000000000
 Davidson Disk Diagonalization:  ConvIn= 1.00D-03 SkipCon=T Conv= 1.00D-03.
 Max sub-space:  2000 roots to seek:    12 dimension of matrix:         2400
 Iteration     1 Dimension    12 NMult     0 NNew     12
 CISAX will form    12 AO SS matrices at one time.
 NMat=    12 NSing=    12 JSym2X= 0.
 Excitation Energies [eV] at current iteration:
 Root      1 :     4.198198820789511
 Root      2 :     4.811043168317914
 Root      3 :     6.100479568532193
 Root      4 :     6.730535852005093
 Root      5 :     6.753565096379934
 Root      6 :     6.894017174547981
 Root      7 :     7.391868652488836
 Root      8 :     7.674679584266375
 Root      9 :     7.876382273120232
 Root     10 :     8.256073222709931
 Root     11 :     9.326495328173310
 Root     12 :    10.438814488848122
 Iteration     2 Dimension    24 NMult    12 NNew     12
 CISAX will form    12 AO SS matrices at one time.
 NMat=    12 NSing=    12 JSym2X= 0.
 Root      1 not converged, maximum delta is    0.376685147432635
 Excitation Energies [eV] at current iteration:
 Root      1 :     2.566567546539245   Change is   -1.631631274250266
 Root      2 :     3.535474676955306   Change is   -1.275568491362608
 Root      3 :     3.996086965530225   Change is   -2.734448886474868
 Root      4 :     4.972253698740192   Change is   -1.128225869792001
 Root      5 :     6.115093135113674   Change is   -0.778924039434308
 Root      6 :     6.210271513016131   Change is   -0.543293583363802
 Root      7 :     6.482335452780448   Change is   -0.909533199708388
 Root      8 :     7.235353415733175   Change is   -0.641028857387058
 Root      9 :     7.360921137009997   Change is   -0.313758447256378
 Root     10 :     7.659153238155218   Change is   -0.596919984554714
 Root     11 :     8.015846104422808   Change is   -1.310649223750503
 Root     12 :     8.503606961539322   Change is   -1.935207527308800
 Iteration     3 Dimension    27 NMult    24 NNew      3
 CISAX will form     3 AO SS matrices at one time.
 NMat=     3 NSing=     3 JSym2X= 0.
 Root      1 not converged, maximum delta is    0.085937023650297
 Excitation Energies [eV] at current iteration:
 Root      1 :     2.293477208592989   Change is   -0.273090337946256
 Root      2 :     3.445320959624362   Change is   -0.090153717330945
 Root      3 :     3.725016740867171   Change is   -0.271070224663054
 Iteration     4 Dimension    30 NMult    27 NNew      3
 CISAX will form     3 AO SS matrices at one time.
 NMat=     3 NSing=     3 JSym2X= 0.
 Root      1 not converged, maximum delta is    0.015628432079078
 Excitation Energies [eV] at current iteration:
 Root      1 :     2.255481456992705   Change is   -0.037995751600284
 Root      2 :     3.436617854569590   Change is   -0.008703105054772
 Root      3 :     3.691730587256417   Change is   -0.033286153610754
 Iteration     5 Dimension    33 NMult    30 NNew      3
 CISAX will form     3 AO SS matrices at one time.
 NMat=     3 NSing=     3 JSym2X= 0.
 Root      1 not converged, maximum delta is    0.004597739675059
 Excitation Energies [eV] at current iteration:
 Root      1 :     2.248729005453036   Change is   -0.006752451539669
 Root      2 :     3.435693668305938   Change is   -0.000924186263652
 Root      3 :     3.686732603911929   Change is   -0.004997983344489
 Iteration     6 Dimension    36 NMult    33 NNew      3
 CISAX will form     3 AO SS matrices at one time.
 NMat=     3 NSing=     3 JSym2X= 0.
 Root      1 not converged, maximum delta is    0.002709108203954
 Excitation Energies [eV] at current iteration:
 Root      1 :     2.247232727480980   Change is   -0.001496277972056
 Root      2 :     3.435612482898423   Change is   -0.000081185407514
 Root      3 :     3.685503144664783   Change is   -0.001229459247146
 Iteration     7 Dimension    39 NMult    36 NNew      3
 CISAX will form     3 AO SS matrices at one time.
 NMat=     3 NSing=     3 JSym2X= 0.
 Root      1 not converged, maximum delta is    0.001048657041090
 Excitation Energies [eV] at current iteration:
 Root      1 :     2.246999148800310   Change is   -0.000233578680670
 Root      2 :     3.435605812162350   Change is   -0.000006670736073
 Root      3 :     3.685065129385761   Change is   -0.000438015279021
 Iteration     8 Dimension    42 NMult    39 NNew      3
 CISAX will form     3 AO SS matrices at one time.
 NMat=     3 NSing=     3 JSym2X= 0.
 Root      1 has converged.
 Excitation Energies [eV] at current iteration:
 Root      1 :     2.246971894359083   Change is   -0.000027254441228
 Root      2 :     3.435605220151163   Change is   -0.000000592011187
 Root      3 :     3.684988572324451   Change is   -0.000076557061310
 Convergence achieved on expansion vectors.
 ***********************************************************************
 Stability analysis using <AA,BB:AA,BB> singles matrix:
 ***********************************************************************
 1PDM for each excited state written to RWF  633
 Ground to excited state transition densities written to RWF  633

 Eigenvectors of the stability matrix:
 
 Excited state symmetry could not be determined.
 Eigenvector   1:  2.063-?Sym  Eigenvalue= 0.0825747  <S**2>=0.814
     13A -> 17A       -0.24339
     16A -> 17A        0.86502
     16A -> 26A       -0.16465
     16A -> 37A        0.11996
     16B -> 18B       -0.14064
 The wavefunction is stable under the perturbations considered.
 Leave Link  914 at Tue Jan  3 09:06:36 2023, MaxMem=   536870912 cpu:               2.4 elap:               1.2
 (Enter /opt/software/gaussian/g16.c01/l508.exe)
 The wavefunction is already stable.
 Leave Link  508 at Tue Jan  3 09:06:36 2023, MaxMem=   536870912 cpu:               0.0 elap:               0.0
 (Enter /opt/software/gaussian/g16.c01/l601.exe)
 Copying SCF densities to generalized density rwf, IOpCl= 1 IROHF=0.

 **********************************************************************

            Population analysis using the SCF Density.

 **********************************************************************

 Alpha  occ. eigenvalues --  -92.00550 -15.56412 -11.27873  -9.03326  -6.72230
 Alpha  occ. eigenvalues --   -6.71939  -6.71647  -1.20418  -1.02150  -0.80961
 Alpha  occ. eigenvalues --   -0.66806  -0.64306  -0.51638  -0.48907  -0.43880
 Alpha  occ. eigenvalues --   -0.34517
 Alpha virt. eigenvalues --    0.08845   0.08871   0.09623   0.10803   0.12432
 Alpha virt. eigenvalues --    0.15005   0.18195   0.19730   0.24563   0.26799
 Alpha virt. eigenvalues --    0.27003   0.29326   0.29866   0.31735   0.32560
 Alpha virt. eigenvalues --    0.34560   0.35444   0.36361   0.40777   0.42665
 Alpha virt. eigenvalues --    0.42935   0.44547   0.44776   0.47726   0.49274
 Alpha virt. eigenvalues --    0.49411   0.51745   0.52690   0.56437   0.58853
 Alpha virt. eigenvalues --    0.61019   0.63372   0.66359   0.67998   0.72925
 Alpha virt. eigenvalues --    0.81920   0.92585   0.96215   1.02032   1.02540
 Alpha virt. eigenvalues --    1.09598   1.11537   1.12397   1.14223   1.19900
 Alpha virt. eigenvalues --    1.21961   1.27304   1.28740   1.34959   1.40055
 Alpha virt. eigenvalues --    1.42518   1.44045   1.51333   1.58227   1.67135
 Alpha virt. eigenvalues --    1.68659   1.75874   1.83612   1.96124   1.99068
 Alpha virt. eigenvalues --    2.06430   2.17945   2.35224   2.36038   2.37909
 Alpha virt. eigenvalues --    2.47843   2.54425   2.75268   2.78321   2.95233
 Alpha virt. eigenvalues --    2.95990   3.20675   3.31473   3.32398   3.74483
  Beta  occ. eigenvalues --  -92.00710 -15.58782 -11.25825  -9.03495  -6.72328
  Beta  occ. eigenvalues --   -6.72314  -6.72026  -1.23772  -1.01556  -0.80329
  Beta  occ. eigenvalues --   -0.66944  -0.63495  -0.56473  -0.50566  -0.45440
  Beta  occ. eigenvalues --   -0.37119
  Beta virt. eigenvalues --    0.08934   0.09115   0.09611   0.10864   0.12723
  Beta virt. eigenvalues --    0.15156   0.18064   0.19366   0.25141   0.25627
  Beta virt. eigenvalues --    0.26990   0.29344   0.31990   0.32873   0.33446
  Beta virt. eigenvalues --    0.34661   0.35268   0.36984   0.40433   0.40633
  Beta virt. eigenvalues --    0.42738   0.44847   0.45133   0.48153   0.49078
  Beta virt. eigenvalues --    0.49536   0.53009   0.53399   0.56254   0.59058
  Beta virt. eigenvalues --    0.59912   0.63172   0.66387   0.68035   0.72049
  Beta virt. eigenvalues --    0.82332   0.96243   0.97621   1.02247   1.03207
  Beta virt. eigenvalues --    1.09452   1.09998   1.12068   1.14408   1.20477
  Beta virt. eigenvalues --    1.21459   1.27684   1.28813   1.34882   1.36232
  Beta virt. eigenvalues --    1.39301   1.43828   1.51311   1.57908   1.67949
  Beta virt. eigenvalues --    1.69852   1.74586   1.85639   1.96148   1.98045
  Beta virt. eigenvalues --    2.08249   2.17665   2.37145   2.39312   2.40364
  Beta virt. eigenvalues --    2.45607   2.57940   2.69395   2.79527   2.90844
  Beta virt. eigenvalues --    2.92630   3.18516   3.31850   3.32845   3.73220
          Condensed to atoms (all electrons):
               1          2          3          4          5          6
     1  C    4.984808   0.092601  -0.006023   0.361611   0.432704  -0.030911
     2  S    0.092601  15.732013   0.019931  -0.012661  -0.017000   0.085232
     3  N   -0.006023   0.019931   7.271665   0.012230  -0.015192   0.085519
     4  H    0.361611  -0.012661   0.012230   0.709258  -0.072021  -0.002144
     5  H    0.432704  -0.017000  -0.015192  -0.072021   0.627113   0.009132
     6  H   -0.030911   0.085232   0.085519  -0.002144   0.009132   0.789127
          Atomic-Atomic Spin Densities.
               1          2          3          4          5          6
     1  C    1.070897  -0.087951   0.001891   0.006874   0.002917  -0.005115
     2  S   -0.087951  -0.214618   0.096469  -0.013767   0.002517   0.030643
     3  N    0.001891   0.096469  -0.701256   0.000734   0.000617  -0.047306
     4  H    0.006874  -0.013767   0.000734  -0.089841  -0.000062  -0.000824
     5  H    0.002917   0.002517   0.000617  -0.000062  -0.104741  -0.000671
     6  H   -0.005115   0.030643  -0.047306  -0.000824  -0.000671   0.065627
 Mulliken charges and spin densities:
               1          2
     1  C    0.165210   0.989513
     2  S    0.099885  -0.186706
     3  N   -0.368130  -0.648852
     4  H    0.003727  -0.096885
     5  H    0.035264  -0.099423
     6  H    0.064045   0.042353
 Sum of Mulliken charges =   0.00000   0.00000
 Mulliken charges and spin densities with hydrogens summed into heavy atoms:
               1          2
     1  C    0.204201   0.793205
     2  S    0.099885  -0.186706
     3  N   -0.304086  -0.606499
 Electronic spatial extent (au):  <R**2>=            822.5665
 Charge=              0.0000 electrons
 Dipole moment (field-independent basis, Debye):
    X=             -2.8498    Y=              0.1293    Z=              0.1542  Tot=              2.8569
 Quadrupole moment (field-independent basis, Debye-Ang):
   XX=            -40.2180   YY=            -24.2696   ZZ=            -26.0606
   XY=             -1.9360   XZ=             -1.0800   YZ=              2.2383
 Traceless Quadrupole moment (field-independent basis, Debye-Ang):
   XX=            -10.0353   YY=              5.9131   ZZ=              4.1222
   XY=             -1.9360   XZ=             -1.0800   YZ=              2.2383
 Octapole moment (field-independent basis, Debye-Ang**2):
  XXX=           -236.4234  YYY=            -26.6236  ZZZ=            -18.4889  XYY=            -58.4678
  XXY=            -24.2522  XXZ=            -14.7447  XZZ=            -59.4578  YZZ=             -8.1362
  YYZ=             -2.5745  XYZ=              1.7904
 Hexadecapole moment (field-independent basis, Debye-Ang**3):
 XXXX=          -1203.7396 YYYY=            -89.7326 ZZZZ=            -59.4484 XXXY=           -162.1609
 XXXZ=            -99.2116 YYYX=            -83.6804 YYYZ=            -11.9083 ZZZX=            -55.1200
 ZZZY=            -18.4353 XXYY=           -188.0787 XXZZ=           -176.1231 YYZZ=            -20.7827
 XXYZ=            -10.3965 YYXZ=            -10.8434 ZZXY=            -26.2496
 N-N= 1.020311797422D+02 E-N=-1.369046075077D+03  KE= 4.908560317218D+02
                          Isotropic Fermi Contact Couplings
        Atom                 a.u.       MegaHertz       Gauss      10(-4) cm-1
     1  C(13)              0.25023     140.65433      50.18896      46.91724
     2  S(33)             -0.03567      -6.12499      -2.18555      -2.04308
     3  N(14)             -0.32303     -52.18621     -18.62134     -17.40745
     4  H(1)              -0.01918     -42.86887     -15.29668     -14.29952
     5  H(1)              -0.02035     -45.47477     -16.22653     -15.16875
     6  H(1)               0.01447      32.33008      11.53618      10.78415
 --------------------------------------------------------
       Center         ----  Spin Dipole Couplings  ----
                      3XX-RR        3YY-RR        3ZZ-RR
 --------------------------------------------------------
     1   Atom       -0.427714     -0.034671      0.462385
     2   Atom        0.172735      0.139930     -0.312665
     3   Atom        0.694654      0.062523     -0.757177
     4   Atom       -0.039637      0.029225      0.010411
     5   Atom       -0.034233      0.023342      0.010891
     6   Atom        0.020335     -0.018635     -0.001700
 --------------------------------------------------------
                        XY            XZ            YZ
 --------------------------------------------------------
     1   Atom       -0.013658      0.021656     -0.585453
     2   Atom        0.072665      0.028103      0.529285
     3   Atom        0.015987     -0.039793      0.966061
     4   Atom        0.038363      0.026293      0.019771
     5   Atom       -0.044458     -0.028635      0.017378
     6   Atom        0.067228      0.044378     -0.024092
 --------------------------------------------------------


 ---------------------------------------------------------------------------------
              Anisotropic Spin Dipole Couplings in Principal Axis System
 ---------------------------------------------------------------------------------

       Atom             a.u.   MegaHertz   Gauss  10(-4) cm-1        Axes

              Baa    -0.4283   -57.471   -20.507   -19.170  0.9956 -0.0654 -0.0672
     1 C(13)  Bbb    -0.4221   -56.643   -20.212   -18.894  0.0916  0.8314  0.5481
              Bcc     0.8504   114.114    40.719    38.064  0.0200 -0.5518  0.8337
 
              Baa    -0.6623   -27.155    -9.690    -9.058  0.0200 -0.5518  0.8337
     2 S(33)  Bbb     0.1557     6.383     2.278     2.129  0.9747 -0.1748 -0.1390
              Bcc     0.5066    20.772     7.412     6.929  0.2224  0.8154  0.5344
 
              Baa    -1.3976   -53.901   -19.233   -17.980  0.0201 -0.5518  0.8337
     3 N(14)  Bbb     0.6895    26.594     9.490     8.871  0.8233  0.4823  0.2994
              Bcc     0.7080    27.307     9.744     9.109 -0.5673  0.6804  0.4640
 
              Baa    -0.0608   -32.422   -11.569   -10.815  0.9104 -0.3346 -0.2433
     4 H(1)   Bbb    -0.0020    -1.089    -0.389    -0.363  0.0200 -0.5518  0.8337
              Bcc     0.0628    33.511    11.958    11.178  0.4133  0.7639  0.4956
 
              Baa    -0.0627   -33.461   -11.940   -11.161  0.8804  0.4050  0.2469
     5 H(1)   Bbb    -0.0013    -0.693    -0.247    -0.231  0.0200 -0.5518  0.8337
              Bcc     0.0640    34.154    12.187    11.393 -0.4739  0.7290  0.4939
 
              Baa    -0.0930   -49.595   -17.697   -16.543 -0.5794  0.6731  0.4595
     6 H(1)   Bbb     0.0153     8.172     2.916     2.726  0.0201 -0.5518  0.8337
              Bcc     0.0776    41.424    14.781    13.817  0.8148  0.4923  0.3062
 

 ---------------------------------------------------------------------------------

 No NMR shielding tensors so no spin-rotation constants.
 Leave Link  601 at Tue Jan  3 09:06:36 2023, MaxMem=   536870912 cpu:               0.4 elap:               0.2
 (Enter /opt/software/gaussian/g16.c01/l9999.exe)

 Test job not archived.
 1\1\GINC-GRA1085\Stability\UHF\Gen\C1H3N1S1\BHAVUK\03-Jan-2023\0\\#p u
 hf/gen stable=opt scf=(maxcycle=900,verytightlineq,xqc) integral=grid=
 ultrafine symmetry=None density=current iop(99/18=-1) output=wfn\\0004
 _q000_m01_k00_opt_uwb97xd_def2svpd/0004_q000_m01_k00_force_uhf_def2svp
 d stable-force\\0,1\C,0,0.8882935141,0.1422345627,0.1089263123\S,0,2.5
 067242222,0.1041696479,0.0448895292\N,0,3.3032398974,1.2298974173,0.77
 07622237\H,0,0.3752741579,-0.6653344173,-0.4132293362\H,0,0.3242760911
 ,0.9148647349,0.6338600998\H,0,2.7138421188,1.9201180545,1.2418511706\
 \Version=ES64L-G16RevC.01\HF=-491.3075053\S2=0.642841\S2-1=0.\S2A=0.10
 4587\RMSD=2.126e-09\Dipole=-1.1212149,0.0508659,0.0606766\Quadrupole=-
 7.4609817,4.3962581,3.0647236,-1.4393355,-0.8029664,1.6641076\PG=Unkno
 wn\\@

 Writing a WFN file to "0004_q000_m01_k00_force_uhf_def2svpd.wfn"


 IT IS A PROFOUNDLY ERRONEOUS TRUISM ... THAT WE SHOULD CULTIVATE
 THE HABIT OF THINKING OF WHAT WE ARE DOING.
 THE PRECISE OPPOSITE IS THE CASE.
 CIVILIZATION ADVANCES BY EXTENDING THE NUMBER OF IMPORTANT OPERATIONS
 WHICH WE CAN PERFORM WITHOUT THINKING ABOUT THEM.

                                    -- ALFRED NORTH WHITEHEAD
 Job cpu time:       0 days  0 hours  0 minutes 11.8 seconds.
 Elapsed time:       0 days  0 hours  0 minutes  6.8 seconds.
 File lengths (MBytes):  RWF=     80 Int=      0 D2E=      0 Chk=      2 Scr=      1
 Normal termination of Gaussian 16 at Tue Jan  3 09:06:37 2023.
 Initial command:
 /opt/software/gaussian/g16.c01/l1.exe "/localscratch/bhavuk.2151401.0/Gau-5243.inp" -scrdir="/localscratch/bhavuk.2151401.0/"
 Entering Link 1 = /opt/software/gaussian/g16.c01/l1.exe PID=      5429.
  
 Copyright (c) 1988-2019, Gaussian, Inc.  All Rights Reserved.
  
 This is part of the Gaussian(R) 16 program.  It is based on
 the Gaussian(R) 09 system (copyright 2009, Gaussian, Inc.),
 the Gaussian(R) 03 system (copyright 2003, Gaussian, Inc.),
 the Gaussian(R) 98 system (copyright 1998, Gaussian, Inc.),
 the Gaussian(R) 94 system (copyright 1995, Gaussian, Inc.),
 the Gaussian 92(TM) system (copyright 1992, Gaussian, Inc.),
 the Gaussian 90(TM) system (copyright 1990, Gaussian, Inc.),
 the Gaussian 88(TM) system (copyright 1988, Gaussian, Inc.),
 the Gaussian 86(TM) system (copyright 1986, Carnegie Mellon
 University), and the Gaussian 82(TM) system (copyright 1983,
 Carnegie Mellon University). Gaussian is a federally registered
 trademark of Gaussian, Inc.
  
 This software contains proprietary and confidential information,
 including trade secrets, belonging to Gaussian, Inc.
  
 This software is provided under written license and may be
 used, copied, transmitted, or stored only in accord with that
 written license.
  
 The following legend is applicable only to US Government
 contracts under FAR:
  
                    RESTRICTED RIGHTS LEGEND
  
 Use, reproduction and disclosure by the US Government is
 subject to restrictions as set forth in subparagraphs (a)
 and (c) of the Commercial Computer Software - Restricted
 Rights clause in FAR 52.227-19.
  
 Gaussian, Inc.
 340 Quinnipiac St., Bldg. 40, Wallingford CT 06492
  
  
 ---------------------------------------------------------------
 Warning -- This program may not be used in any manner that
 competes with the business of Gaussian, Inc. or will provide
 assistance to any competitor of Gaussian, Inc.  The licensee
 of this program is prohibited from giving any competitor of
 Gaussian, Inc. access to this program.  By using this program,
 the user acknowledges that Gaussian, Inc. is engaged in the
 business of creating and licensing software in the field of
 computational chemistry and represents and warrants to the
 licensee that it is not a competitor of Gaussian, Inc. and that
 it will not use this program in any manner prohibited above.
 ---------------------------------------------------------------
  

 Cite this work as:
 Gaussian 16, Revision C.01,
 M. J. Frisch, G. W. Trucks, H. B. Schlegel, G. E. Scuseria, 
 M. A. Robb, J. R. Cheeseman, G. Scalmani, V. Barone, 
 G. A. Petersson, H. Nakatsuji, X. Li, M. Caricato, A. V. Marenich, 
 J. Bloino, B. G. Janesko, R. Gomperts, B. Mennucci, H. P. Hratchian, 
 J. V. Ortiz, A. F. Izmaylov, J. L. Sonnenberg, D. Williams-Young, 
 F. Ding, F. Lipparini, F. Egidi, J. Goings, B. Peng, A. Petrone, 
 T. Henderson, D. Ranasinghe, V. G. Zakrzewski, J. Gao, N. Rega, 
 G. Zheng, W. Liang, M. Hada, M. Ehara, K. Toyota, R. Fukuda, 
 J. Hasegawa, M. Ishida, T. Nakajima, Y. Honda, O. Kitao, H. Nakai, 
 T. Vreven, K. Throssell, J. A. Montgomery, Jr., J. E. Peralta, 
 F. Ogliaro, M. J. Bearpark, J. J. Heyd, E. N. Brothers, K. N. Kudin, 
 V. N. Staroverov, T. A. Keith, R. Kobayashi, J. Normand, 
 K. Raghavachari, A. P. Rendell, J. C. Burant, S. S. Iyengar, 
 J. Tomasi, M. Cossi, J. M. Millam, M. Klene, C. Adamo, R. Cammi, 
 J. W. Ochterski, R. L. Martin, K. Morokuma, O. Farkas, 
 J. B. Foresman, and D. J. Fox, Gaussian, Inc., Wallingford CT, 2019.
 
 ******************************************
 Gaussian 16:  ES64L-G16RevC.01  3-Jul-2019
                 3-Jan-2023 
 ******************************************
 %chk=0004_q000_m01_k00_force_uhf_def2svpd.chk
 %nprocshared=2
 Will use up to    2 processors via shared memory.
 %mem=4GB
 ----------------------------------------------------------------------
 #p uhf/chkbasis force guess=read geom=check scf=(maxcycle=900,verytigh
 tlineq,xqc) integral=grid=ultrafine symmetry=None density=current pop=
 (cm5,hlygat,mbs,npa) output=wfx
 ----------------------------------------------------------------------
 1/10=7,29=2,30=1,38=1/1,3;
 2/12=2,15=3,40=1/2;
 3/5=7,6=2,11=2,14=-4,25=1,30=1,67=1,71=1,75=-5,116=2/1,2,3;
 4/5=1/1;
 5/5=2,7=900,8=3,13=1,17=3,38=6/2,8;
 6/7=2,8=2,9=2,10=2,15=8,20=15,22=-1,27=100,28=1,40=-1,79=1/1,2,7;
 7/29=1,30=1/1,2,3,16;
 1/10=7,30=1/3;
 99/6=200/99;
 Leave Link    1 at Tue Jan  3 09:06:37 2023, MaxMem=   536870912 cpu:               0.2 elap:               0.1
 (Enter /opt/software/gaussian/g16.c01/l101.exe)
 ----------------------------------------------------------------------
 0004_q000_m01_k00_opt_uwb97xd_def2svpd/0004_q000_m01_k00_force_uhf_def
 2svpd stable-force
 ----------------------------------------------------------------------
 Structure from the checkpoint file:  "0004_q000_m01_k00_force_uhf_def2svpd.chk"
 Charge =  0 Multiplicity = 1
 Z-Matrix found in chk file.
 C,0,0.8882935141,0.1422345627,0.1089263123
 S,0,2.5067242222,0.1041696479,0.0448895292
 N,0,3.3032398974,1.2298974173,0.7707622237
 H,0,0.3752741579,-0.6653344173,-0.4132293362
 H,0,0.3242760911,0.9148647349,0.6338600998
 H,0,2.7138421188,1.9201180545,1.2418511706
 Recover connectivity data from disk.
 ITRead=  0  0  0  0  0  0
 MicOpt= -1 -1 -1 -1 -1 -1
 NAtoms=      6 NQM=        6 NQMF=       0 NMMI=      0 NMMIF=      0
                NMic=       0 NMicF=      0.
                    Isotopes and Nuclear Properties:
 (Nuclear quadrupole moments (NQMom) in fm**2, nuclear magnetic moments (NMagM)
  in nuclear magnetons)

  Atom         1           2           3           4           5           6
 IAtWgt=          12          32          14           1           1           1
 AtmWgt=  12.0000000  31.9720718  14.0030740   1.0078250   1.0078250   1.0078250
 NucSpn=           0           0           2           1           1           1
 AtZEff=   3.6000000  13.6000000   4.5500000   1.0000000   1.0000000   1.0000000
 NQMom=    0.0000000   0.0000000   2.0440000   0.0000000   0.0000000   0.0000000
 NMagM=    0.0000000   0.0000000   0.4037610   2.7928460   2.7928460   2.7928460
 AtZNuc=   6.0000000  16.0000000   7.0000000   1.0000000   1.0000000   1.0000000
 Leave Link  101 at Tue Jan  3 09:06:37 2023, MaxMem=   536870912 cpu:               0.4 elap:               0.2
 (Enter /opt/software/gaussian/g16.c01/l103.exe)

 GradGradGradGradGradGradGradGradGradGradGradGradGradGradGradGradGradGrad
 Berny optimization.
 Initialization pass.
 Trust Radius=3.00D-01 FncErr=1.00D-07 GrdErr=1.00D-07 EigMax=2.50D+02 EigMin=1.00D-04
 Number of steps in this run=      2 maximum allowed number of steps=      2.
 GradGradGradGradGradGradGradGradGradGradGradGradGradGradGradGradGradGrad

 Leave Link  103 at Tue Jan  3 09:06:37 2023, MaxMem=   536870912 cpu:               0.1 elap:               0.0
 (Enter /opt/software/gaussian/g16.c01/l202.exe)
                          Input orientation:                          
 ---------------------------------------------------------------------
 Center     Atomic      Atomic             Coordinates (Angstroms)
 Number     Number       Type             X           Y           Z
 ---------------------------------------------------------------------
      1          6           0        0.888294    0.142235    0.108926
      2         16           0        2.506724    0.104170    0.044890
      3          7           0        3.303240    1.229897    0.770762
      4          1           0        0.375274   -0.665334   -0.413229
      5          1           0        0.324276    0.914865    0.633860
      6          1           0        2.713842    1.920118    1.241851
 ---------------------------------------------------------------------
                    Distance matrix (angstroms):
                    1          2          3          4          5
     1  C    0.000000
     2  S    1.620144   0.000000
     3  N    2.730019   1.558394   0.000000
     4  H    1.089956   2.311945   3.683303   0.000000
     5  H    1.091159   2.401498   2.998702   1.896319   0.000000
     6  H    2.788730   2.184785   1.022604   3.859113   2.662745
                    6
     6  H    0.000000
 Symmetry turned off by external request.
 Stoichiometry    CH3NS
 Rotational constants (GHZ):          36.3131241           8.8290023           7.1022055
 Leave Link  202 at Tue Jan  3 09:06:37 2023, MaxMem=   536870912 cpu:               0.0 elap:               0.0
 (Enter /opt/software/gaussian/g16.c01/l301.exe)
 Basis read from chk: "0004_q000_m01_k00_force_uhf_def2svpd.chk" (5D, 7F)
 No pseudopotential information found on chk file.
    91 basis functions,   141 primitive gaussians,    97 cartesian basis functions
    16 alpha electrons       16 beta electrons
       nuclear repulsion energy       102.0311797422 Hartrees.
 IExCor=    0 DFT=F Ex=HF Corr=None ExCW=0 ScaHFX=  1.000000
 ScaDFX=  1.000000  1.000000  1.000000  1.000000 ScalE2=  1.000000  1.000000
 IRadAn=      5 IRanWt=     -1 IRanGd=            0 ICorTp=0 IEmpDi=  4
 NAtoms=    6 NActive=    6 NUniq=    6 SFac= 1.00D+00 NAtFMM=   60 NAOKFM=F Big=F
[...]
     5    C    1  px     Val( 2p)     0.51928      -0.12325
     6    C    1  px     Ryd( 3p)     0.00252       0.89978
     7    C    1  py     Val( 2p)     0.49440      -0.04432
     8    C    1  py     Ryd( 3p)     0.00121       1.00302
     9    C    1  pz     Val( 2p)     0.35161       0.00150
    10    C    1  pz     Ryd( 3p)     0.00201       0.92613
    11    C    1  dxy    Ryd( 4d)     0.00096       2.28209
    12    C    1  dxy    Ryd( 3d)     0.00011       1.05384
    13    C    1  dxz    Ryd( 4d)     0.00149       2.00102
    14    C    1  dxz    Ryd( 3d)     0.00011       0.98254
    15    C    1  dyz    Ryd( 4d)     0.00116       1.90935
    16    C    1  dyz    Ryd( 3d)     0.00017       1.15747
    17    C    1  dx2y2  Ryd( 4d)     0.00269       2.30124
    18    C    1  dx2y2  Ryd( 3d)     0.00003       0.86273
    19    C    1  dz2    Ryd( 4d)     0.00114       1.88362
    20    C    1  dz2    Ryd( 3d)     0.00005       0.93829
 
    21    S    2  S      Cor( 1S)     1.00000     -91.04064
    22    S    2  S      Cor( 2S)     0.99955      -9.72592
    23    S    2  S      Val( 3S)     0.75385      -0.80179
    24    S    2  S      Ryd( 5S)     0.00763       0.82479
    25    S    2  S      Ryd( 4S)     0.00016       0.37262
    26    S    2  px     Cor( 2p)     0.99986      -6.71171
    27    S    2  px     Val( 3p)     0.50329      -0.13295
    28    S    2  px     Ryd( 5p)     0.00442       1.09762
    29    S    2  px     Ryd( 4p)     0.00020       0.26559
    30    S    2  py     Cor( 2p)     0.99994      -6.71268
    31    S    2  py     Val( 3p)     0.63901      -0.23426
    32    S    2  py     Ryd( 5p)     0.00324       1.03516
    33    S    2  py     Ryd( 4p)     0.00004       0.30500
    34    S    2  pz     Cor( 2p)     0.99995      -6.71498
    35    S    2  pz     Val( 3p)     0.71412      -0.28514
    36    S    2  pz     Ryd( 5p)     0.00285       0.99847
    37    S    2  pz     Ryd( 4p)     0.00002       0.28686
    38    S    2  dxy    Ryd( 4d)     0.00585       1.13076
    39    S    2  dxy    Ryd( 3d)     0.00008       0.74347
    40    S    2  dxz    Ryd( 4d)     0.00849       1.01449
    41    S    2  dxz    Ryd( 3d)     0.00007       0.69613
    42    S    2  dyz    Ryd( 4d)     0.00510       0.95964
    43    S    2  dyz    Ryd( 3d)     0.00014       0.69621
    44    S    2  dx2y2  Ryd( 4d)     0.01130       1.22395
    45    S    2  dx2y2  Ryd( 3d)     0.00011       0.77806
    46    S    2  dz2    Ryd( 4d)     0.00545       0.95352
    47    S    2  dz2    Ryd( 3d)     0.00014       0.70603
 
    48    N    3  S      Cor( 1S)     0.99986     -15.44454
    49    N    3  S      Val( 2S)     0.80869      -0.88031
    50    N    3  S      Ryd( 4S)     0.00082       1.31858
    51    N    3  S      Ryd( 3S)     0.00006       1.17123
    52    N    3  px     Val( 2p)     0.83820      -0.36611
    53    N    3  px     Ryd( 3p)     0.00124       1.21921
    54    N    3  py     Val( 2p)     0.73824      -0.32957
    55    N    3  py     Ryd( 3p)     0.00190       1.31926
    56    N    3  pz     Val( 2p)     0.86718      -0.40454
    57    N    3  pz     Ryd( 3p)     0.00166       1.20199
    58    N    3  dxy    Ryd( 4d)     0.00515       1.93682
    59    N    3  dxy    Ryd( 3d)     0.00012       1.86970
    60    N    3  dxz    Ryd( 3d)     0.00404       1.53203
    61    N    3  dxz    Ryd( 4d)     0.00008       1.96986
    62    N    3  dyz    Ryd( 3d)     0.00197       1.66564
    63    N    3  dyz    Ryd( 4d)     0.00013       1.92379
    64    N    3  dx2y2  Ryd( 3d)     0.00303       1.56218
    65    N    3  dx2y2  Ryd( 4d)     0.00012       1.86590
    66    N    3  dz2    Ryd( 3d)     0.00213       1.42628
    67    N    3  dz2    Ryd( 4d)     0.00012       1.94793
 
    68    H    4  S      Val( 1S)     0.40227       0.08687
    69    H    4  S      Ryd( 2S)     0.00038       0.54168
    70    H    4  px     Ryd( 2p)     0.00159       0.84216
    71    H    4  px     Ryd( 3p)     0.00018       1.89786
    72    H    4  py     Ryd( 2p)     0.00070       0.97252
    73    H    4  py     Ryd( 3p)     0.00013       1.87194
    74    H    4  pz     Ryd( 2p)     0.00037       0.83322
    75    H    4  pz     Ryd( 3p)     0.00006       1.79636
 
    76    H    5  S      Val( 1S)     0.41218       0.08098
    77    H    5  S      Ryd( 2S)     0.00045       0.60162
    78    H    5  px     Ryd( 2p)     0.00126       0.98092
    79    H    5  px     Ryd( 3p)     0.00015       1.82307
    80    H    5  py     Ryd( 2p)     0.00063       0.97647
    81    H    5  py     Ryd( 3p)     0.00012       1.88429
    82    H    5  pz     Ryd( 2p)     0.00030       0.85170
    83    H    5  pz     Ryd( 3p)     0.00006       1.79624
 
    84    H    6  S      Val( 1S)     0.30116       0.18374
    85    H    6  S      Ryd( 2S)     0.00066       0.61690
    86    H    6  px     Ryd( 3p)     0.00058       1.57394
    87    H    6  px     Ryd( 2p)     0.00010       1.51000
    88    H    6  py     Ryd( 3p)     0.00071       1.57415
    89    H    6  py     Ryd( 2p)     0.00025       1.39775
    90    H    6  pz     Ryd( 3p)     0.00040       1.41762
    91    H    6  pz     Ryd( 2p)     0.00016       1.37706

 WARNING:  Population inversion found on atom  C    1
           Population inversion found on atom  S    2
           Population inversion found on atom  N    3
           Population inversion found on atom  H    6


 Summary of Natural Population Analysis:                  
                                                          
                                       Natural Population 
                Natural  -----------------------------------------------
    Atom  No    Charge         Core      Valence    Rydberg      Total
 -----------------------------------------------------------------------
      C    1    0.06441      0.99979     1.92155    0.01425     2.93559
      S    2    0.33515      4.99929     2.61027    0.05529     7.66485
      N    3   -0.77475      0.99986     3.25232    0.02257     4.27475
      H    4    0.09433      0.00000     0.40227    0.00340     0.40567
      H    5    0.08486      0.00000     0.41218    0.00297     0.41514
      H    6    0.19600      0.00000     0.30116    0.00285     0.30400
 =======================================================================
   * Total *   -0.00000      6.99894     8.89974    0.10132    16.00000

                                 Natural Population      
 --------------------------------------------------------
   Core                       6.99894 ( 99.9849% of   7)
   Valence                    8.89974 ( 98.8860% of   9)
   Natural Minimal Basis     15.89868 ( 99.3667% of  16)
   Natural Rydberg Basis      0.10132 (  0.6333% of  16)
 --------------------------------------------------------

    Atom  No          Natural Electron Configuration
 ----------------------------------------------------------------------------
      C    1      [core]2S( 0.56)2p( 1.37)3p( 0.01)4d( 0.01)
      S    2      [core]3S( 0.75)3p( 1.86)5S( 0.01)4d( 0.04)5p( 0.01)
      N    3      [core]2S( 0.81)2p( 2.44)3d( 0.01)4d( 0.01)
      H    4            1S( 0.40)
      H    5            1S( 0.41)
      H    6            1S( 0.30)


 NBO analysis skipped by request.
 Leave Link  607 at Tue Jan  3 09:06:41 2023, MaxMem=   536870912 cpu:               3.6 elap:               1.8
 (Enter /opt/software/gaussian/g16.c01/l701.exe)
 ... and contract with generalized density number  0.
 Compute integral first derivatives.
 Leave Link  701 at Tue Jan  3 09:06:42 2023, MaxMem=   536870912 cpu:               0.2 elap:               0.1
 (Enter /opt/software/gaussian/g16.c01/l702.exe)
 L702 exits ... SP integral derivatives will be done elsewhere.
 Leave Link  702 at Tue Jan  3 09:06:42 2023, MaxMem=   536870912 cpu:               0.1 elap:               0.0
 (Enter /opt/software/gaussian/g16.c01/l703.exe)
 Integral derivatives from FoFJK, PRISM(SPDF).
 Compute integral first derivatives, UseDBF=F ICtDFT=           0.
 Calling FoFJK, ICntrl=      2127 FMM=F ISym2X=0 I1Cent= 0 IOpClX= 1 NMat=1 NMatS=1 NMatT=0.
 FoFJK:  IHMeth= 1 ICntrl=    2127 DoSepK=F KAlg= 0 I1Cent=           0 FoldK=F
 IRaf=         0 NMat=       1 IRICut=       1 DoRegI=T DoRafI=F ISym2E= 0 IDoP0=0 IntGTp=1.
 FoFCou: FMM=F IPFlag=           0 FMFlag=      100000 FMFlg1=         800
         NFxFlg=           0 DoJE=F BraDBF=F KetDBF=F FulRan=T
         wScrn=  0.000000 ICntrl=      2127 IOpCl=  1 I1Cent=           0 NGrid=           0
         NMat0=    1 NMatS0=      1 NMatT0=    0 NMatD0=    1 NMtDS0=    0 NMtDT0=    0
 Symmetry not used in FoFCou.
 Leave Link  703 at Tue Jan  3 09:06:43 2023, MaxMem=   536870912 cpu:               1.5 elap:               0.8
 (Enter /opt/software/gaussian/g16.c01/l716.exe)
 Dipole        =-1.12121497D+00 5.08659090D-02 6.06765878D-02
 -------------------------------------------------------------------
 Center     Atomic                   Forces (Hartrees/Bohr)
 Number     Number              X              Y              Z
 -------------------------------------------------------------------
      1        6          -0.040737610    0.008539625    0.006632022
      2       16           0.036008574   -0.023719323   -0.016566920
      3        7          -0.008561052    0.022322202    0.014986039
      4        1           0.003231036    0.005800494    0.003762105
      5        1           0.002052068   -0.005697473   -0.003820985
      6        1           0.008006984   -0.007245526   -0.004992260
 -------------------------------------------------------------------
 Cartesian Forces:  Max     0.040737610 RMS     0.016595423
 Z-matrix is all fixed cartesians, so copy forces.
 Force constants in Cartesian coordinates: 
                1             2             3             4             5 
      1  0.814685D+00
      2 -0.103178D-01  0.489891D+00
      3 -0.236660D-01  0.249297D+00  0.279166D+00
      4 -0.473219D+00  0.285194D-01  0.292131D-01  0.664394D+00
      5  0.961866D-02 -0.824860D-01 -0.267353D-01  0.176381D+00  0.396780D+00
      6  0.167037D-01 -0.271885D-01 -0.608333D-01  0.101780D+00  0.230703D+00
      7 -0.980132D-03 -0.200337D-01 -0.128629D-01 -0.210895D+00 -0.175482D+00
      8  0.308076D-03  0.143332D-01 -0.733807D-03 -0.217229D+00 -0.336130D+00
      9  0.597737D-03 -0.245367D-03  0.152527D-01 -0.139479D+00 -0.196571D+00
     10 -0.163349D+00 -0.915366D-01 -0.575233D-01 -0.926052D-03 -0.186700D-01
     11 -0.836129D-01 -0.214907D+00 -0.116374D+00  0.389598D-03  0.844345D-02
     12 -0.522783D-01 -0.116182D+00 -0.111677D+00  0.307294D-03  0.528464D-02
     13 -0.177134D+00  0.932947D-01  0.649511D-01  0.905791D-03  0.178651D-01
     14  0.839304D-01 -0.204801D+00 -0.108521D+00  0.246077D-03  0.152696D-01
     15  0.587541D-01 -0.108748D+00 -0.117275D+00  0.611040D-03 -0.327945D-02
     16 -0.268673D-05  0.740782D-04 -0.111937D-03  0.197412D-01 -0.971277D-02
     17  0.736242D-04 -0.202996D-02  0.306739D-02  0.116927D-01 -0.187726D-02
     18 -0.111233D-03  0.306689D-02 -0.463426D-02  0.756733D-02 -0.940153D-02
                6             7             8             9            10 
      6  0.192015D+00
      7 -0.111851D+00  0.406134D+00
      8 -0.195565D+00  0.534271D-01  0.531518D+00
      9 -0.159476D+00  0.263756D-01  0.328043D+00  0.250445D+00
     10 -0.123067D-01  0.228968D-05 -0.631307D-04  0.953945D-04  0.135830D+00
     11  0.482750D-02 -0.631368D-04  0.174080D-02 -0.263045D-02  0.957457D-01
     12  0.462508D-02  0.953981D-04 -0.263030D-02  0.397455D-02  0.605513D-01
     13  0.122731D-01 -0.247110D-05  0.681327D-04 -0.102953D-03  0.284430D-01
     14 -0.285735D-02  0.681506D-04 -0.187904D-02  0.283934D-02  0.145241D-01
     15  0.173925D-01 -0.102963D-03  0.283889D-02 -0.428974D-02  0.918329D-02
     16 -0.659932D-02 -0.194258D+00  0.163489D+00  0.112513D+00  0.000000D+00
     17 -0.991929D-02  0.142084D+00 -0.209584D+00 -0.131436D+00  0.000000D+00
     18  0.627668D-02  0.983460D-01 -0.131953D+00 -0.105907D+00  0.000000D+00
               11            12            13            14            15 
     11  0.207851D+00
     12  0.122960D+00  0.985155D-01
     13 -0.124593D-01 -0.867575D-02  0.147787D+00
     14 -0.312790D-02 -0.943229D-02 -0.987686D-01  0.194538D+00
     15 -0.878307D-02  0.456134D-02 -0.684455D-01  0.117972D+00  0.996107D-01
     16  0.000000D+00  0.000000D+00  0.000000D+00  0.000000D+00  0.000000D+00
     17  0.000000D+00  0.000000D+00  0.000000D+00  0.000000D+00  0.000000D+00
     18  0.000000D+00  0.000000D+00  0.000000D+00  0.000000D+00  0.000000D+00
               16            17            18 
     16  0.174519D+00
     17 -0.153850D+00  0.213491D+00
     18 -0.105802D+00  0.138288D+00  0.104265D+00
 Leave Link  716 at Tue Jan  3 09:06:43 2023, MaxMem=   536870912 cpu:               0.1 elap:               0.0
 (Enter /opt/software/gaussian/g16.c01/l103.exe)

 GradGradGradGradGradGradGradGradGradGradGradGradGradGradGradGradGradGrad
 Berny optimization.
 Search for a local minimum.
 Step number   1 out of a maximum of    2
 All quantities printed in internal units (Hartrees-Bohrs-Radians)
 Second derivative matrix not updated -- first step.
 The second derivative matrix:
                          X1        Y1        Z1        X2        Y2
           X1           0.81469
           Y1          -0.01032   0.48989
           Z1          -0.02367   0.24930   0.27917
           X2          -0.47322   0.02852   0.02921   0.66439
           Y2           0.00962  -0.08249  -0.02674   0.17638   0.39678
           Z2           0.01670  -0.02719  -0.06083   0.10178   0.23070
           X3          -0.00098  -0.02003  -0.01286  -0.21090  -0.17548
           Y3           0.00031   0.01433  -0.00073  -0.21723  -0.33613
           Z3           0.00060  -0.00025   0.01525  -0.13948  -0.19657
           X4          -0.16335  -0.09154  -0.05752  -0.00093  -0.01867
           Y4          -0.08361  -0.21491  -0.11637   0.00039   0.00844
           Z4          -0.05228  -0.11618  -0.11168   0.00031   0.00528
           X5          -0.17713   0.09329   0.06495   0.00091   0.01787
           Y5           0.08393  -0.20480  -0.10852   0.00025   0.01527
           Z5           0.05875  -0.10875  -0.11727   0.00061  -0.00328
           X6          -0.00000   0.00007  -0.00011   0.01974  -0.00971
           Y6           0.00007  -0.00203   0.00307   0.01169  -0.00188
           Z6          -0.00011   0.00307  -0.00463   0.00757  -0.00940
                          Z2        X3        Y3        Z3        X4
           Z2           0.19201
           X3          -0.11185   0.40613
           Y3          -0.19556   0.05343   0.53152
           Z3          -0.15948   0.02638   0.32804   0.25045
           X4          -0.01231   0.00000  -0.00006   0.00010   0.13583
           Y4           0.00483  -0.00006   0.00174  -0.00263   0.09575
           Z4           0.00463   0.00010  -0.00263   0.00397   0.06055
           X5           0.01227  -0.00000   0.00007  -0.00010   0.02844
           Y5          -0.00286   0.00007  -0.00188   0.00284   0.01452
           Z5           0.01739  -0.00010   0.00284  -0.00429   0.00918
           X6          -0.00660  -0.19426   0.16349   0.11251   0.00000
           Y6          -0.00992   0.14208  -0.20958  -0.13144   0.00000
           Z6           0.00628   0.09835  -0.13195  -0.10591   0.00000
                          Y4        Z4        X5        Y5        Z5
           Y4           0.20785
           Z4           0.12296   0.09852
           X5          -0.01246  -0.00868   0.14779
           Y5          -0.00313  -0.00943  -0.09877   0.19454
           Z5          -0.00878   0.00456  -0.06845   0.11797   0.09961
           X6           0.00000   0.00000   0.00000   0.00000   0.00000
           Y6           0.00000   0.00000   0.00000   0.00000   0.00000
           Z6           0.00000   0.00000   0.00000   0.00000   0.00000
                          X6        Y6        Z6
           X6           0.17452
           Y6          -0.15385   0.21349
           Z6          -0.10580   0.13829   0.10426
 ITU=  0
     Eigenvalues ---    0.01003   0.01738   0.04698   0.06571   0.11631
     Eigenvalues ---    0.13625   0.18094   0.33456   0.69321   0.85789
     Eigenvalues ---    1.12959   1.46007
 Angle between quadratic step and forces=  67.43 degrees.
 Linear search not attempted -- first point.
 B after Tr=     0.022527   -0.023454   -0.016077
         Rot=    0.999999   -0.000033    0.000779   -0.001177 Ang=  -0.16 deg.
 Variable       Old X    -DE/DX   Delta X   Delta X   Delta X     New X
                                 (Linear)    (Quad)   (Total)
    X1        1.67863  -0.04074   0.00000   0.00448   0.02592   1.70456
    Y1        0.26878   0.00854   0.00000   0.03682   0.01731   0.28610
    Z1        0.20584   0.00663   0.00000   0.02427   0.01084   0.21668
    X2        4.73702   0.03601   0.00000   0.07489   0.09703   4.83405
    Y2        0.19685  -0.02372   0.00000  -0.06629  -0.07842   0.11843
    Z2        0.08483  -0.01657   0.00000  -0.04570  -0.05427   0.03056
    X3        6.24222  -0.00856   0.00000  -0.07270  -0.05804   6.18418
    Y3        2.32417   0.02232   0.00000   0.02986   0.02082   2.34499
    Z3        1.45653   0.01499   0.00000   0.02158   0.01527   1.47180
    X4        0.70917   0.00323   0.00000  -0.04969  -0.02326   0.68590
    Y4       -1.25730   0.00580   0.00000   0.08102   0.05917  -1.19813
    Z4       -0.78089   0.00376   0.00000   0.05483   0.03970  -0.74119
    X5        0.61279   0.00205   0.00000   0.06081   0.07725   0.69004
    Y5        1.72884  -0.00570   0.00000   0.04634   0.02438   1.75322
    Z5        1.19782  -0.00382   0.00000   0.02924   0.01433   1.21215
    X6        5.12842   0.00801   0.00000  -0.12930  -0.11889   5.00953
    Y6        3.62850  -0.00725   0.00000  -0.03140  -0.04326   3.58524
    Z6        2.34676  -0.00499   0.00000  -0.01782  -0.02587   2.32089
         Item               Value     Threshold  Converged?
 Maximum Force            0.040738     0.000450     NO 
 RMS     Force            0.016595     0.000300     NO 
 Maximum Displacement     0.118890     0.001800     NO 
 RMS     Displacement     0.054106     0.001200     NO 
 Predicted change in Energy=-3.238399D-03
 GradGradGradGradGradGradGradGradGradGradGradGradGradGradGradGradGradGrad

 Leave Link  103 at Tue Jan  3 09:06:43 2023, MaxMem=   536870912 cpu:               0.0 elap:               0.0
 (Enter /opt/software/gaussian/g16.c01/l9999.exe)
 Unable to Open any file for archive entry.
 1\1\GINC-GRA1085\Force\UHF\Gen\C1H3N1S1\BHAVUK\03-Jan-2023\0\\#p uhf/c
 hkbasis force guess=read geom=check scf=(maxcycle=900,verytightlineq,x
 qc) integral=grid=ultrafine symmetry=None density=current pop=(cm5,hly
 gat,mbs,npa) output=wfx\\0004_q000_m01_k00_opt_uwb97xd_def2svpd/0004_q
 000_m01_k00_force_uhf_def2svpd stable-force\\0,1\C,0.8882935141,0.1422
 345627,0.1089263123\S,2.5067242222,0.1041696479,0.0448895292\N,3.30323
 98974,1.2298974173,0.7707622237\H,0.3752741579,-0.6653344173,-0.413229
 3362\H,0.3242760911,0.9148647349,0.6338600998\H,2.7138421188,1.9201180
 545,1.2418511706\\Version=ES64L-G16RevC.01\HF=-491.3075053\S2=0.642841
 \S2-1=0.\S2A=0.104587\RMSD=1.882e-09\RMSF=1.660e-02\Dipole=-1.121215,0
 .0508659,0.0606766\Quadrupole=-7.460982,4.3962583,3.0647237,-1.4393356
 ,-0.8029665,1.6641076\PG=Unknown\\@
 The archive entry for this job was punched.

 Writing a WFNX file to "0004_q000_m01_k00_force_uhf_def2svpd.wfx"


 I KNOW YOU BELIEVE YOU UNDERSTAND WHAT YOU THINK I SAID,
 BUT I AM NOT SURE YOU REALIZE THAT WHAT YOU HEARD IS NOT WHAT I MEANT.
 Job cpu time:       0 days  0 hours  0 minutes  9.9 seconds.
 Elapsed time:       0 days  0 hours  0 minutes  4.7 seconds.
 File lengths (MBytes):  RWF=     10 Int=      0 D2E=      0 Chk=      2 Scr=      1
 Normal termination of Gaussian 16 at Tue Jan  3 09:06:43 2023.
