 Entering Gaussian System, Link 0=g16
 Input=0004_q000_m01_k00_force_ub3lyp_def2qzvpd.com
 Output=0004_q000_m01_k00_force_ub3lyp_def2qzvpd.log
 Initial command:
 /opt/software/gaussian/g16.c01/l1.exe "/localscratch/bhavuk.2151392.0/Gau-20659.inp" -scrdir="/localscratch/bhavuk.2151392.0/"
 Entering Link 1 = /opt/software/gaussian/g16.c01/l1.exe PID=     20660.
  
 Copyright (c) 1988-2019, Gaussian, Inc.  All Rights Reserved.
  
 This is part of the Gaussian(R) 16 program.  It is based on
 the Gaussian(R) 09 system (copyright 2009, Gaussian, Inc.),
 the Gaussian(R) 03 system (copyright 2003, Gaussian, Inc.),
 the Gaussian(R) 98 system (copyright 1998, Gaussian, Inc.),
 the Gaussian(R) 94 system (copyright 1995, Gaussian, Inc.),
 the Gaussian 92(TM) system (copyright 1992, Gaussian, Inc.),
 the Gaussian 90(TM) system (copyright 1990, Gaussian, Inc.),
 the Gaussian 88(TM) system (copyright 1988, Gaussian, Inc.),
 the Gaussian 86(TM) system (copyright 1986, Carnegie Mellon
 University), and the Gaussian 82(TM) system (copyright 1983,
 Carnegie Mellon University). Gaussian is a federally registered
 trademark of Gaussian, Inc.
  
 This software contains proprietary and confidential information,
 including trade secrets, belonging to Gaussian, Inc.
  
 This software is provided under written license and may be
 used, copied, transmitted, or stored only in accord with that
 written license.
  
 The following legend is applicable only to US Government
 contracts under FAR:
  
                    RESTRICTED RIGHTS LEGEND
  
 Use, reproduction and disclosure by the US Government is
 subject to restrictions as set forth in subparagraphs (a)
 and (c) of the Commercial Computer Software - Restricted
 Rights clause in FAR 52.227-19.
  
 Gaussian, Inc.
 340 Quinnipiac St., Bldg. 40, Wallingford CT 06492
  
  
 ---------------------------------------------------------------
 Warning -- This program may not be used in any manner that
 competes with the business of Gaussian, Inc. or will provide
 assistance to any competitor of Gaussian, Inc.  The licensee
 of this program is prohibited from giving any competitor of
 Gaussian, Inc. access to this program.  By using this program,
 the user acknowledges that Gaussian, Inc. is engaged in the
 business of creating and licensing software in the field of
 computational chemistry and represents and warrants to the
 licensee that it is not a competitor of Gaussian, Inc. and that
 it will not use this program in any manner prohibited above.
 ---------------------------------------------------------------
  

 Cite this work as:
 Gaussian 16, Revision C.01,
 M. J. Frisch, G. W. Trucks, H. B. Schlegel, G. E. Scuseria, 
 M. A. Robb, J. R. Cheeseman, G. Scalmani, V. Barone, 
 G. A. Petersson, H. Nakatsuji, X. Li, M. Caricato, A. V. Marenich, 
 J. Bloino, B. G. Janesko, R. Gomperts, B. Mennucci, H. P. Hratchian, 
 J. V. Ortiz, A. F. Izmaylov, J. L. Sonnenberg, D. Williams-Young, 
 F. Ding, F. Lipparini, F. Egidi, J. Goings, B. Peng, A. Petrone, 
 T. Henderson, D. Ranasinghe, V. G. Zakrzewski, J. Gao, N. Rega, 
 G. Zheng, W. Liang, M. Hada, M. Ehara, K. Toyota, R. Fukuda, 
 J. Hasegawa, M. Ishida, T. Nakajima, Y. Honda, O. Kitao, H. Nakai, 
 T. Vreven, K. Throssell, J. A. Montgomery, Jr., J. E. Peralta, 
 F. Ogliaro, M. J. Bearpark, J. J. Heyd, E. N. Brothers, K. N. Kudin, 
 V. N. Staroverov, T. A. Keith, R. Kobayashi, J. Normand, 
 K. Raghavachari, A. P. Rendell, J. C. Burant, S. S. Iyengar, 
 J. Tomasi, M. Cossi, J. M. Millam, M. Klene, C. Adamo, R. Cammi, 
 J. W. Ochterski, R. L. Martin, K. Morokuma, O. Farkas, 
 J. B. Foresman, and D. J. Fox, Gaussian, Inc., Wallingford CT, 2019.
 
 ******************************************
 Gaussian 16:  ES64L-G16RevC.01  3-Jul-2019
                 3-Jan-2023 
 ******************************************
 %chk=0004_q000_m01_k00_force_ub3lyp_def2qzvpd.chk
 %nprocshared=2
 Will use up to    2 processors via shared memory.
 %mem=4GB
 ----------------------------------------------------------------------
 #p ub3lyp/gen stable=opt scf=(maxcycle=900,verytightlineq,xqc) integra
 l=grid=ultrafine symmetry=None density=current iop(99/18=-1) output=wf
 n
 ----------------------------------------------------------------------
 1/38=1,172=1/1;
 2/12=2,15=3,17=6,18=5,40=1/2;
 3/5=7,11=2,25=1,30=1,74=-5,75=-5,116=2/1,2,3;
 4//1;
 5/5=2,7=900,8=3,13=1,17=3,38=5/2,8;
 6/7=2,8=2,9=2,10=2,22=-1,28=1/1;
 8/6=1,10=90,11=11/1;
 9/8=-3,42=1,46=1/14;
 5/5=2,7=900,8=3,17=43,38=5/8(-2);
 6/7=2,8=2,9=2,10=2,22=-1,28=1/1;
 99/5=1,6=100,9=1,18=-1/99;
 Leave Link    1 at Tue Jan  3 09:06:04 2023, MaxMem=   536870912 cpu:               0.1 elap:               0.1
 (Enter /opt/software/gaussian/g16.c01/l101.exe)
 ----------------------------------------------------------------------
 0004_q000_m01_k00_opt_uwb97xd_def2svpd/0004_q000_m01_k00_force_ub3lyp_
 def2qzvpd stable-force
 ----------------------------------------------------------------------
 Symbolic Z-matrix:
 Charge =  0 Multiplicity = 1
 C                     0.88829   0.14223   0.10893 
 S                     2.50672   0.10417   0.04489 
 N                     3.30324   1.2299    0.77076 
 H                     0.37527  -0.66533  -0.41323 
 H                     0.32428   0.91486   0.63386 
 H                     2.71384   1.92012   1.24185 
 
 ITRead=  0  0  0  0  0  0
 MicOpt= -1 -1 -1 -1 -1 -1
 NAtoms=      6 NQM=        6 NQMF=       0 NMMI=      0 NMMIF=      0
                NMic=       0 NMicF=      0.
                    Isotopes and Nuclear Properties:
 (Nuclear quadrupole moments (NQMom) in fm**2, nuclear magnetic moments (NMagM)
  in nuclear magnetons)

  Atom         1           2           3           4           5           6
 IAtWgt=          12          32          14           1           1           1
 AtmWgt=  12.0000000  31.9720718  14.0030740   1.0078250   1.0078250   1.0078250
 NucSpn=           0           0           2           1           1           1
 AtZEff=  -0.0000000  -0.0000000  -0.0000000  -0.0000000  -0.0000000  -0.0000000
 NQMom=    0.0000000   0.0000000   2.0440000   0.0000000   0.0000000   0.0000000
 NMagM=    0.0000000   0.0000000   0.4037610   2.7928460   2.7928460   2.7928460
 AtZNuc=   6.0000000  16.0000000   7.0000000   1.0000000   1.0000000   1.0000000
 Leave Link  101 at Tue Jan  3 09:06:05 2023, MaxMem=   536870912 cpu:               0.4 elap:               0.2
 (Enter /opt/software/gaussian/g16.c01/l202.exe)
                          Input orientation:                          
 ---------------------------------------------------------------------
 Center     Atomic      Atomic             Coordinates (Angstroms)
 Number     Number       Type             X           Y           Z
 ---------------------------------------------------------------------
      1          6           0        0.888294    0.142235    0.108926
      2         16           0        2.506724    0.104170    0.044890
      3          7           0        3.303240    1.229897    0.770762
      4          1           0        0.375274   -0.665334   -0.413229
      5          1           0        0.324276    0.914865    0.633860
      6          1           0        2.713842    1.920118    1.241851
 ---------------------------------------------------------------------
                    Distance matrix (angstroms):
                    1          2          3          4          5
     1  C    0.000000
     2  S    1.620144   0.000000
     3  N    2.730019   1.558394   0.000000
     4  H    1.089956   2.311945   3.683303   0.000000
     5  H    1.091159   2.401498   2.998702   1.896319   0.000000
     6  H    2.788730   2.184785   1.022604   3.859113   2.662745
                    6
     6  H    0.000000
 Symmetry turned off by external request.
 Stoichiometry    CH3NS
 Rotational constants (GHZ):          36.3131241           8.8290023           7.1022055
 Leave Link  202 at Tue Jan  3 09:06:05 2023, MaxMem=   536870912 cpu:               0.0 elap:               0.0
 (Enter /opt/software/gaussian/g16.c01/l301.exe)
 General basis read from cards:  (5D, 7F)
 Centers:       4      5      6
 S 4 1.00
     Exponent=  1.9069169000D+02 Coefficients=  7.0815167000D-04
     Exponent=  2.8605532000D+01 Coefficients=  5.4678827000D-03
     Exponent=  6.5095943000D+00 Coefficients=  2.7966605000D-02
     Exponent=  1.8412455000D+00 Coefficients=  1.0764538000D-01
 S 1 1.00
     Exponent=  5.9853725000D-01 Coefficients=  1.0000000000D+00
 S 1 1.00
     Exponent=  2.1397624000D-01 Coefficients=  1.0000000000D+00
 S 1 1.00
     Exponent=  8.0316286000D-02 Coefficients=  1.0000000000D+00
 P 1 1.00
     Exponent=  2.2920000000D+00 Coefficients=  1.0000000000D+00
 P 1 1.00
     Exponent=  8.3800000000D-01 Coefficients=  1.0000000000D+00
 P 1 1.00
     Exponent=  2.9200000000D-01 Coefficients=  1.0000000000D+00
 P 1 1.00
     Exponent=  8.4063199228D-02 Coefficients=  1.0000000000D+00
 D 1 1.00
     Exponent=  2.0620000000D+00 Coefficients=  1.0000000000D+00
 D 1 1.00
     Exponent=  6.6200000000D-01 Coefficients=  1.0000000000D+00
 F 1 1.00
     Exponent=  1.3970000000D+00 Coefficients=  1.0000000000D+00
 ****
 Centers:       1
 S 8 1.00
     Exponent=  6.7025071029D+04 Coefficients=  3.8736308501D-05
     Exponent=  1.0039986538D+04 Coefficients=  3.0107917575D-04
     Exponent=  2.2849316911D+03 Coefficients=  1.5787918095D-03
     Exponent=  6.4714122130D+02 Coefficients=  6.6087087195D-03
     Exponent=  2.1109472335D+02 Coefficients=  2.3367123250D-02
     Exponent=  7.6177643862D+01 Coefficients=  7.0420716898D-02
     Exponent=  2.9633839163D+01 Coefficients=  1.7360344953D-01
     Exponent=  1.2187785081D+01 Coefficients=  3.2292305648D-01
 S 2 1.00
     Exponent=  5.3026006299D+01 Coefficients=  7.4897404492D-02
     Exponent=  1.5258502776D+01 Coefficients=  7.6136220983D-01
 S 1 1.00
     Exponent=  5.2403957464D+00 Coefficients=  1.0000000000D+00
 S 1 1.00
     Exponent=  2.2905022379D+00 Coefficients=  1.0000000000D+00
 S 1 1.00
     Exponent=  6.9673283006D-01 Coefficients=  1.0000000000D+00
 S 1 1.00
     Exponent=  2.7599337363D-01 Coefficients=  1.0000000000D+00
 S 1 1.00
     Exponent=  1.0739884389D-01 Coefficients=  1.0000000000D+00
 S 1 1.00
     Exponent=  4.4981404899D-02 Coefficients=  1.0000000000D+00
 P 5 1.00
     Exponent=  1.0512555082D+02 Coefficients=  8.4647553844D-04
     Exponent=  2.4884461066D+01 Coefficients=  6.6274038534D-03
     Exponent=  7.8637230826D+00 Coefficients=  3.0120390419D-02
     Exponent=  2.8407001835D+00 Coefficients=  9.9951435476D-02
     Exponent=  1.1227137335D+00 Coefficients=  2.3826299282D-01
 P 1 1.00
     Exponent=  4.6050725555D-01 Coefficients=  1.0000000000D+00
 P 1 1.00
     Exponent=  1.8937530913D-01 Coefficients=  1.0000000000D+00
 P 1 1.00
     Exponent=  7.5983791611D-02 Coefficients=  1.0000000000D+00
 D 1 1.00
     Exponent=  1.8480000000D+00 Coefficients=  1.0000000000D+00
 D 1 1.00
     Exponent=  6.4900000000D-01 Coefficients=  1.0000000000D+00
 D 1 1.00
     Exponent=  2.2800000000D-01 Coefficients=  1.0000000000D+00
 D 1 1.00
     Exponent=  7.6889830417D-02 Coefficients=  1.0000000000D+00
 F 1 1.00
     Exponent=  1.4190000000D+00 Coefficients=  1.0000000000D+00
 F 1 1.00
     Exponent=  4.8500000000D-01 Coefficients=  1.0000000000D+00
 G 1 1.00
     Exponent=  1.0110000000D+00 Coefficients=  1.0000000000D+00
 ****
 Centers:       3
 S 8 1.00
     Exponent=  9.0726889210D+04 Coefficients=  3.9257887368D-05
     Exponent=  1.3590528801D+04 Coefficients=  3.0513316455D-04
     Exponent=  3.0929883781D+03 Coefficients=  1.6000560446D-03
     Exponent=  8.7599876362D+02 Coefficients=  6.6982937306D-03
     Exponent=  2.8574469982D+02 Coefficients=  2.3690078765D-02
     Exponent=  1.0311913417D+02 Coefficients=  7.1455405268D-02
     Exponent=  4.0128556777D+01 Coefficients=  1.7632774876D-01
     Exponent=  1.6528095704D+01 Coefficients=  3.2677592815D-01
 S 2 1.00
     Exponent=  6.9390960983D+01 Coefficients=  8.0052094386D-02
     Exponent=  2.0428200596D+01 Coefficients=  7.8268063538D-01
 S 1 1.00
     Exponent=  7.1292587972D+00 Coefficients=  1.0000000000D+00
 S 1 1.00
     Exponent=  3.1324304893D+00 Coefficients=  1.0000000000D+00
 S 1 1.00
     Exponent=  9.8755778723D-01 Coefficients=  1.0000000000D+00
 S 1 1.00
     Exponent=  3.8765721307D-01 Coefficients=  1.0000000000D+00
 S 1 1.00
     Exponent=  1.4909883075D-01 Coefficients=  1.0000000000D+00
 S 1 1.00
     Exponent=  6.2151630318D-02 Coefficients=  1.0000000000D+00
 P 5 1.00
     Exponent=  1.5005742670D+02 Coefficients= -8.6216165986D-04
     Exponent=  3.5491599483D+01 Coefficients= -6.8571273236D-03
     Exponent=  1.1247864223D+01 Coefficients= -3.1795688855D-02
     Exponent=  4.0900305195D+00 Coefficients= -1.0537396822D-01
     Exponent=  1.6220573146D+00 Coefficients= -2.4519708041D-01
 P 1 1.00
     Exponent=  6.6442261530D-01 Coefficients=  1.0000000000D+00
 P 1 1.00
     Exponent=  2.7099770070D-01 Coefficients=  1.0000000000D+00
 P 1 1.00
     Exponent=  1.0688749984D-01 Coefficients=  1.0000000000D+00
 D 1 1.00
     Exponent=  2.8370000000D+00 Coefficients=  1.0000000000D+00
 D 1 1.00
     Exponent=  9.6800000000D-01 Coefficients=  1.0000000000D+00
 D 1 1.00
     Exponent=  3.3500000000D-01 Coefficients=  1.0000000000D+00
 D 1 1.00
     Exponent=  1.0825280010D-01 Coefficients=  1.0000000000D+00
 F 1 1.00
     Exponent=  2.0270000000D+00 Coefficients=  1.0000000000D+00
 F 1 1.00
     Exponent=  6.8500000000D-01 Coefficients=  1.0000000000D+00
 G 1 1.00
     Exponent=  1.4270000000D+00 Coefficients=  1.0000000000D+00
 ****
 Centers:       2
 S 10 1.00
     Exponent=  1.2734109023D+06 Coefficients=  1.1767088246D-05
     Exponent=  1.9069783007D+05 Coefficients=  9.1478610166D-05
     Exponent=  4.3397885330D+04 Coefficients=  4.8090078640D-04
     Exponent=  1.2291809677D+04 Coefficients=  2.0257193592D-03
     Exponent=  4.0097420824D+03 Coefficients=  7.3190096406D-03
     Exponent=  1.4473531030D+03 Coefficients=  2.3300499900D-02
     Exponent=  5.6430102913D+02 Coefficients=  6.5386213610D-02
     Exponent=  2.3374506243D+02 Coefficients=  1.5614449910D-01
     Exponent=  1.0156402814D+02 Coefficients=  2.9318563787D-01
     Exponent=  4.5805907187D+01 Coefficients=  3.6287914289D-01
 S 3 1.00
     Exponent=  3.9427281503D+02 Coefficients=  1.8753305081D-02
     Exponent=  1.2172249591D+02 Coefficients=  1.6870726663D-01
     Exponent=  4.6754125963D+01 Coefficients=  6.3806830653D-01
 S 1 1.00
     Exponent=  2.0923008254D+01 Coefficients=  1.0000000000D+00
 S 1 1.00
     Exponent=  8.2685567800D+00 Coefficients=  1.0000000000D+00
 S 1 1.00
     Exponent=  3.8629345671D+00 Coefficients=  1.0000000000D+00
 S 1 1.00
     Exponent=  1.7794684781D+00 Coefficients=  1.0000000000D+00
 S 1 1.00
     Exponent=  6.1064260103D-01 Coefficients=  1.0000000000D+00
 S 1 1.00
     Exponent=  2.7412269445D-01 Coefficients=  1.0000000000D+00
 S 1 1.00
     Exponent=  1.1325939107D-01 Coefficients=  1.0000000000D+00
 S 1 1.00
     Exponent=  4.4392624881D-02 Coefficients=  1.0000000000D+00
 P 8 1.00
     Exponent=  2.1898930459D+03 Coefficients=  2.3912552864D-04
     Exponent=  5.1894596592D+02 Coefficients=  2.0772032158D-03
     Exponent=  1.6819560151D+02 Coefficients=  1.1242420571D-02
     Exponent=  6.3745282788D+01 Coefficients=  4.4069933941D-02
     Exponent=  2.6597033077D+01 Coefficients=  1.2918778608D-01
     Exponent=  1.1774251449D+01 Coefficients=  2.6910820167D-01
     Exponent=  5.3534379024D+00 Coefficients=  3.7855928620D-01
     Exponent=  2.4701911802D+00 Coefficients=  2.9692134655D-01
 P 2 1.00
     Exponent=  8.2120288349D+01 Coefficients= -3.9420318847D-02
     Exponent=  4.9523532869D+00 Coefficients=  6.4048403090D-01
 P 1 1.00
     Exponent=  1.0828262029D+00 Coefficients=  1.0000000000D+00
 P 1 1.00
     Exponent=  4.9271277356D-01 Coefficients=  1.0000000000D+00
 P 1 1.00
     Exponent=  2.0483450942D-01 Coefficients=  1.0000000000D+00
 P 1 1.00
     Exponent=  8.0743615716D-02 Coefficients=  1.0000000000D+00
 P 1 1.00
     Exponent=  2.5661157833D-02 Coefficients=  1.0000000000D+00
 D 1 1.00
     Exponent=  4.1590000000D+00 Coefficients=  1.0000000000D+00
 D 1 1.00
     Exponent=  1.0190000000D+00 Coefficients=  1.0000000000D+00
 D 1 1.00
     Exponent=  4.6400000000D-01 Coefficients=  1.0000000000D+00
 D 1 1.00
     Exponent=  1.9400000000D-01 Coefficients=  1.0000000000D+00
 D 1 1.00
     Exponent=  6.7889829366D-02 Coefficients=  1.0000000000D+00
 F 1 1.00
     Exponent=  8.6900000000D-01 Coefficients=  1.0000000000D+00
 F 1 1.00
     Exponent=  3.3500000000D-01 Coefficients=  1.0000000000D+00
 G 1 1.00
     Exponent=  6.8300000000D-01 Coefficients=  1.0000000000D+00
 ****
 Ernie: Thresh=  0.10000D-02 Tol=  0.10000D-05 Strict=F.
   304 basis functions,   452 primitive gaussians,   368 cartesian basis functions
    16 alpha electrons       16 beta electrons
       nuclear repulsion energy       102.0311797422 Hartrees.
 IExCor=  402 DFT=T Ex+Corr=B3LYP ExCW=0 ScaHFX=  0.200000
 ScaDFX=  0.800000  0.720000  1.000000  0.810000 ScalE2=  1.000000  1.000000
 IRadAn=      5 IRanWt=     -1 IRanGd=            0 ICorTp=0 IEmpDi=  4
 NAtoms=    6 NActive=    6 NUniq=    6 SFac= 1.00D+00 NAtFMM=   60 NAOKFM=F Big=F
 Integral buffers will be    131072 words long.
 Raffenetti 2 integral format.
 Two-electron integral symmetry is turned off.
 Leave Link  301 at Tue Jan  3 09:06:05 2023, MaxMem=   536870912 cpu:               0.2 elap:               0.1
 (Enter /opt/software/gaussian/g16.c01/l302.exe)
 NPDir=0 NMtPBC=     1 NCelOv=     1 NCel=       1 NClECP=     1 NCelD=      1
         NCelK=      1 NCelE2=     1 NClLst=     1 CellRange=     0.0.
 One-electron integrals computed using PRISM.
 NBasis=   304 RedAO= T EigKep=  5.84D-06  NBF=   304
 NBsUse=   304 1.00D-06 EigRej= -1.00D+00 NBFU=   304
 Precomputing XC quadrature grid using
 IXCGrd= 4 IRadAn=           5 IRanWt=          -1 IRanGd=           0 AccXCQ= 0.00D+00.
 Generated NRdTot=       0 NPtTot=           0 NUsed=           0 NTot=          32
 NSgBfM=   367   367   367   367   367 MxSgAt=     6 MxSgA2=     6.
 Leave Link  302 at Tue Jan  3 09:06:05 2023, MaxMem=   536870912 cpu:               0.6 elap:               0.3
 (Enter /opt/software/gaussian/g16.c01/l303.exe)
 DipDrv:  MaxL=1.
 Leave Link  303 at Tue Jan  3 09:06:05 2023, MaxMem=   536870912 cpu:               0.1 elap:               0.1
 (Enter /opt/software/gaussian/g16.c01/l401.exe)
 ExpMin= 2.57D-02 ExpMax= 1.27D+06 ExpMxC= 1.45D+03 IAcc=3 IRadAn=         5 AccDes= 0.00D+00
 Harris functional with IExCor=  402 and IRadAn=       5 diagonalized for initial guess.
 HarFok:  IExCor=  402 AccDes= 0.00D+00 IRadAn=         5 IDoV= 1 UseB2=F ITyADJ=14
 ICtDFT=  3500011 ScaDFX=  1.000000  1.000000  1.000000  1.000000
 FoFCou: FMM=F IPFlag=           0 FMFlag=      100000 FMFlg1=           0
         NFxFlg=           0 DoJE=T BraDBF=F KetDBF=T FulRan=T
         wScrn=  0.000000 ICntrl=       500 IOpCl=  0 I1Cent=   200000004 NGrid=           0
         NMat0=    1 NMatS0=      1 NMatT0=    0 NMatD0=    1 NMtDS0=    0 NMtDT0=    0
 Symmetry not used in FoFCou.
 Harris En= -492.880721879028    
 JPrj=0 DoOrth=F DoCkMO=F.
 Initial guess <Sx>= 0.0000 <Sy>= 0.0000 <Sz>= 0.0000 <S**2>=-0.0000 S=-0.0000
 Leave Link  401 at Tue Jan  3 09:06:07 2023, MaxMem=   536870912 cpu:               3.8 elap:               1.9
 (Enter /opt/software/gaussian/g16.c01/l502.exe)
 Two-electron integral symmetry not used.
 UHF open shell SCF:
 Using DIIS extrapolation, IDIIS=  1040.
 NGot=   536870912 LenX=   536595538 LenY=   536459673
 Requested convergence on RMS density matrix=1.00D-08 within 128 cycles.
 Requested convergence on MAX density matrix=1.00D-06.
 Requested convergence on             energy=1.00D-06.
 No special actions if energy rises.
 Fock matrices will be formed incrementally for  20 cycles.

 Cycle   1  Pass 1  IDiag  1:
 FoFJK:  IHMeth= 1 ICntrl=       0 DoSepK=F KAlg= 0 I1Cent=           0 FoldK=F
 IRaf= 980000000 NMat=       1 IRICut=       1 DoRegI=T DoRafI=F ISym2E= 0 IDoP0=0 IntGTp=1.
 FoFCou: FMM=F IPFlag=           0 FMFlag=      100000 FMFlg1=           0
         NFxFlg=           0 DoJE=F BraDBF=F KetDBF=F FulRan=T
         wScrn=  0.000000 ICntrl=         0 IOpCl=  1 I1Cent=           0 NGrid=           0
         NMat0=    1 NMatS0=      1 NMatT0=    0 NMatD0=    1 NMtDS0=    0 NMtDT0=    0
 Symmetry not used in FoFCou.
 E= -492.678631417113    
 DIIS: error= 3.16D-02 at cycle   1 NSaved=   1.
 NSaved= 1 IEnMin= 1 EnMin= -492.678631417113     IErMin= 1 ErrMin= 3.16D-02
 ErrMax= 3.16D-02  0.00D+00 EMaxC= 1.00D-01 BMatC= 1.04D+00 BMatP= 1.04D+00
 IDIUse=3 WtCom= 6.84D-01 WtEn= 3.16D-01
 Coeff-Com:  0.100D+01
 Coeff-En:   0.100D+01
 Coeff:      0.100D+01
 Gap=     0.055 Goal=   None    Shift=    0.000
 Gap=     0.055 Goal=   None    Shift=    0.000
 GapD=    0.055 DampG=0.500 DampE=0.500 DampFc=0.2500 IDamp=-1.
 Damping current iteration by 2.50D-01
 RMSDP=2.35D-03 MaxDP=7.60D-02              OVMax= 4.08D-01

 Cycle   2  Pass 1  IDiag  1:
 RMSU=  5.86D-04    CP:  9.97D-01
 E= -492.755146260423     Delta-E=       -0.076514843310 Rises=F Damp=T
 DIIS: error= 1.36D-02 at cycle   2 NSaved=   2.
 NSaved= 2 IEnMin= 2 EnMin= -492.755146260423     IErMin= 2 ErrMin= 1.36D-02
 ErrMax= 1.36D-02  0.00D+00 EMaxC= 1.00D-01 BMatC= 1.88D-01 BMatP= 1.04D+00
 IDIUse=3 WtCom= 8.64D-01 WtEn= 1.36D-01
 Coeff-Com: -0.565D+00 0.157D+01
 Coeff-En:   0.000D+00 0.100D+01
 Coeff:     -0.489D+00 0.149D+01
 Gap=     0.158 Goal=   None    Shift=    0.000
 Gap=     0.158 Goal=   None    Shift=    0.000
 RMSDP=6.30D-04 MaxDP=3.95D-02 DE=-7.65D-02 OVMax= 2.52D-01

 Cycle   3  Pass 1  IDiag  1:
 RMSU=  5.34D-04    CP:  9.83D-01  1.53D+00
 E= -492.863579709878     Delta-E=       -0.108433449455 Rises=F Damp=F
 DIIS: error= 9.99D-03 at cycle   3 NSaved=   3.
 NSaved= 3 IEnMin= 3 EnMin= -492.863579709878     IErMin= 3 ErrMin= 9.99D-03
 ErrMax= 9.99D-03  0.00D+00 EMaxC= 1.00D-01 BMatC= 4.27D-02 BMatP= 1.88D-01
 IDIUse=3 WtCom= 9.00D-01 WtEn= 9.99D-02
 Coeff-Com: -0.249D+00 0.684D+00 0.565D+00
 Coeff-En:   0.000D+00 0.000D+00 0.100D+01
 Coeff:     -0.224D+00 0.615D+00 0.609D+00
 Gap=     0.162 Goal=   None    Shift=    0.000
 Gap=     0.162 Goal=   None    Shift=    0.000
 RMSDP=4.49D-04 MaxDP=1.70D-02 DE=-1.08D-01 OVMax= 1.54D-01

 Cycle   4  Pass 1  IDiag  1:
 RMSU=  3.75D-04    CP:  9.86D-01  1.55D+00  5.38D-01
 E= -492.853641900884     Delta-E=        0.009937808994 Rises=F Damp=F
 DIIS: error= 1.49D-02 at cycle   4 NSaved=   4.
 NSaved= 4 IEnMin= 3 EnMin= -492.863579709878     IErMin= 3 ErrMin= 9.99D-03
 ErrMax= 1.49D-02  0.00D+00 EMaxC= 1.00D-01 BMatC= 8.18D-02 BMatP= 4.27D-02
 IDIUse=2 WtCom= 0.00D+00 WtEn= 1.00D+00
 Coeff-En:   0.000D+00 0.000D+00 0.606D+00 0.394D+00
 Coeff:      0.000D+00 0.000D+00 0.606D+00 0.394D+00
 Gap=     0.164 Goal=   None    Shift=    0.000
 Gap=     0.164 Goal=   None    Shift=    0.000
 RMSDP=2.67D-04 MaxDP=8.01D-03 DE= 9.94D-03 OVMax= 8.67D-02

 Cycle   5  Pass 1  IDiag  1:
 RMSU=  1.11D-04    CP:  9.84D-01  1.53D+00  7.79D-01  4.51D-01
 E= -492.874789272155     Delta-E=       -0.021147371271 Rises=F Damp=F
 DIIS: error= 1.56D-03 at cycle   5 NSaved=   5.
 NSaved= 5 IEnMin= 5 EnMin= -492.874789272155     IErMin= 5 ErrMin= 1.56D-03
 ErrMax= 1.56D-03  0.00D+00 EMaxC= 1.00D-01 BMatC= 1.73D-03 BMatP= 4.27D-02
 IDIUse=3 WtCom= 9.84D-01 WtEn= 1.56D-02
 Coeff-Com:  0.838D-02-0.141D-01 0.284D+00 0.168D+00 0.554D+00
 Coeff-En:   0.000D+00 0.000D+00 0.000D+00 0.000D+00 0.100D+01
 Coeff:      0.825D-02-0.139D-01 0.280D+00 0.165D+00 0.561D+00
 Gap=     0.166 Goal=   None    Shift=    0.000
 Gap=     0.166 Goal=   None    Shift=    0.000
 RMSDP=5.29D-05 MaxDP=2.00D-03 DE=-2.11D-02 OVMax= 6.40D-03

 Cycle   6  Pass 1  IDiag  1:
 RMSU=  1.98D-05    CP:  9.84D-01  1.53D+00  8.19D-01  4.27D-01  6.19D-01
 E= -492.875237606344     Delta-E=       -0.000448334189 Rises=F Damp=F
 DIIS: error= 1.44D-04 at cycle   6 NSaved=   6.
 NSaved= 6 IEnMin= 6 EnMin= -492.875237606344     IErMin= 6 ErrMin= 1.44D-04
 ErrMax= 1.44D-04  0.00D+00 EMaxC= 1.00D-01 BMatC= 1.70D-05 BMatP= 1.73D-03
 IDIUse=3 WtCom= 9.99D-01 WtEn= 1.44D-03
 Coeff-Com:  0.313D-02-0.617D-02 0.663D-01 0.381D-01 0.159D+00 0.739D+00
 Coeff-En:   0.000D+00 0.000D+00 0.000D+00 0.000D+00 0.000D+00 0.100D+01
 Coeff:      0.313D-02-0.616D-02 0.662D-01 0.380D-01 0.159D+00 0.740D+00
 Gap=     0.167 Goal=   None    Shift=    0.000
 Gap=     0.167 Goal=   None    Shift=    0.000
 RMSDP=7.80D-06 MaxDP=2.96D-04 DE=-4.48D-04 OVMax= 6.39D-04

 Cycle   7  Pass 1  IDiag  1:
 RMSU=  4.61D-06    CP:  9.84D-01  1.53D+00  8.17D-01  4.25D-01  6.36D-01
                    CP:  7.58D-01
 E= -492.875240520094     Delta-E=       -0.000002913750 Rises=F Damp=F
 DIIS: error= 4.78D-05 at cycle   7 NSaved=   7.
 NSaved= 7 IEnMin= 7 EnMin= -492.875240520094     IErMin= 7 ErrMin= 4.78D-05
 ErrMax= 4.78D-05  0.00D+00 EMaxC= 1.00D-01 BMatC= 2.43D-06 BMatP= 1.70D-05
 IDIUse=1 WtCom= 1.00D+00 WtEn= 0.00D+00
 Coeff-Com:  0.422D-03-0.877D-03 0.421D-02 0.177D-02 0.172D-01 0.293D+00
 Coeff-Com:  0.684D+00
 Coeff:      0.422D-03-0.877D-03 0.421D-02 0.177D-02 0.172D-01 0.293D+00
 Coeff:      0.684D+00
 Gap=     0.167 Goal=   None    Shift=    0.000
 Gap=     0.167 Goal=   None    Shift=    0.000
 RMSDP=2.23D-06 MaxDP=1.27D-04 DE=-2.91D-06 OVMax= 2.17D-04

 Cycle   8  Pass 1  IDiag  1:
 RMSU=  8.93D-07    CP:  9.84D-01  1.53D+00  8.18D-01  4.26D-01  6.35D-01
                    CP:  8.21D-01  7.26D-01
 E= -492.875241064994     Delta-E=       -0.000000544900 Rises=F Damp=F
 DIIS: error= 8.26D-06 at cycle   8 NSaved=   8.
 NSaved= 8 IEnMin= 8 EnMin= -492.875241064994     IErMin= 8 ErrMin= 8.26D-06
 ErrMax= 8.26D-06  0.00D+00 EMaxC= 1.00D-01 BMatC= 3.42D-08 BMatP= 2.43D-06
 IDIUse=1 WtCom= 1.00D+00 WtEn= 0.00D+00
 Coeff-Com: -0.110D-03 0.159D-03-0.557D-03-0.654D-03-0.161D-03 0.286D-01
 Coeff-Com:  0.145D+00 0.827D+00
 Coeff:     -0.110D-03 0.159D-03-0.557D-03-0.654D-03-0.161D-03 0.286D-01
 Coeff:      0.145D+00 0.827D+00
 Gap=     0.167 Goal=   None    Shift=    0.000
 Gap=     0.167 Goal=   None    Shift=    0.000
 RMSDP=3.33D-07 MaxDP=1.45D-05 DE=-5.45D-07 OVMax= 5.08D-05

 Cycle   9  Pass 1  IDiag  1:
 RMSU=  1.76D-07    CP:  9.84D-01  1.53D+00  8.18D-01  4.26D-01  6.36D-01
                    CP:  8.13D-01  7.64D-01  9.07D-01
 E= -492.875241074518     Delta-E=       -0.000000009524 Rises=F Damp=F
 DIIS: error= 2.00D-06 at cycle   9 NSaved=   9.
 NSaved= 9 IEnMin= 9 EnMin= -492.875241074518     IErMin= 9 ErrMin= 2.00D-06
 ErrMax= 2.00D-06  0.00D+00 EMaxC= 1.00D-01 BMatC= 8.76D-10 BMatP= 3.42D-08
 IDIUse=1 WtCom= 1.00D+00 WtEn= 0.00D+00
 Coeff-Com: -0.371D-04 0.576D-04-0.309D-03-0.180D-03-0.477D-03 0.524D-04
 Coeff-Com:  0.166D-01 0.179D+00 0.805D+00
 Coeff:     -0.371D-04 0.576D-04-0.309D-03-0.180D-03-0.477D-03 0.524D-04
 Coeff:      0.166D-01 0.179D+00 0.805D+00
 Gap=     0.167 Goal=   None    Shift=    0.000
 Gap=     0.167 Goal=   None    Shift=    0.000
 RMSDP=3.94D-08 MaxDP=1.23D-06 DE=-9.52D-09 OVMax= 8.89D-06

 Cycle  10  Pass 1  IDiag  1:
 RMSU=  2.38D-08    CP:  9.84D-01  1.53D+00  8.18D-01  4.26D-01  6.36D-01
                    CP:  8.13D-01  7.65D-01  9.24D-01  9.52D-01
 E= -492.875241074777     Delta-E=       -0.000000000259 Rises=F Damp=F
 DIIS: error= 1.34D-07 at cycle  10 NSaved=  10.
 NSaved=10 IEnMin=10 EnMin= -492.875241074777     IErMin=10 ErrMin= 1.34D-07
 ErrMax= 1.34D-07  0.00D+00 EMaxC= 1.00D-01 BMatC= 1.39D-11 BMatP= 8.76D-10
 IDIUse=1 WtCom= 1.00D+00 WtEn= 0.00D+00
 Coeff-Com:  0.395D-06-0.530D-06-0.342D-04-0.389D-05-0.702D-04-0.107D-02
 Coeff-Com: -0.185D-02 0.367D-02 0.115D+00 0.884D+00
 Coeff:      0.395D-06-0.530D-06-0.342D-04-0.389D-05-0.702D-04-0.107D-02
 Coeff:     -0.185D-02 0.367D-02 0.115D+00 0.884D+00
 Gap=     0.167 Goal=   None    Shift=    0.000
 Gap=     0.167 Goal=   None    Shift=    0.000
 RMSDP=7.80D-09 MaxDP=2.78D-07 DE=-2.59D-10 OVMax= 6.69D-07

 SCF Done:  E(UB3LYP) =  -492.875241075     A.U. after   10 cycles
            NFock= 10  Conv=0.78D-08     -V/T= 2.0024
 <Sx>= 0.0000 <Sy>= 0.0000 <Sz>= 0.0000 <S**2>=-0.0000 S=-0.0000
 <L.S>=  0.00000000000    
 KE= 4.916996290889D+02 PE=-1.370972373526D+03 EE= 2.843663236206D+02
 Annihilation of the first spin contaminant:
 S**2 before annihilation    -0.0000,   after    -0.0000
 Leave Link  502 at Tue Jan  3 09:10:20 2023, MaxMem=   536870912 cpu:             505.8 elap:             253.0
 (Enter /opt/software/gaussian/g16.c01/l508.exe)
 QCSCF skips out because SCF is already converged.
 Leave Link  508 at Tue Jan  3 09:10:20 2023, MaxMem=   536870912 cpu:               0.0 elap:               0.0
 (Enter /opt/software/gaussian/g16.c01/l601.exe)
 Copying SCF densities to generalized density rwf, IOpCl= 1 IROHF=0.

 **********************************************************************

            Population analysis using the SCF Density.

 **********************************************************************

 Alpha  occ. eigenvalues --  -88.94353 -14.31717 -10.21192  -8.01652  -5.97798
 Alpha  occ. eigenvalues --   -5.97777  -5.97376  -0.93058  -0.76851  -0.61177
 Alpha  occ. eigenvalues --   -0.50091  -0.47375  -0.39034  -0.36069  -0.30306
 Alpha  occ. eigenvalues --   -0.24437
 Alpha virt. eigenvalues --   -0.07765  -0.00412   0.00524   0.01675   0.02871
 Alpha virt. eigenvalues --    0.03844   0.05549   0.06434   0.08726   0.10723
 Alpha virt. eigenvalues --    0.11206   0.11671   0.13688   0.14459   0.15332
 Alpha virt. eigenvalues --    0.17065   0.17679   0.17878   0.18906   0.20271
 Alpha virt. eigenvalues --    0.20413   0.21651   0.22665   0.23368   0.23844
 Alpha virt. eigenvalues --    0.25371   0.26726   0.27114   0.29829   0.30476
 Alpha virt. eigenvalues --    0.30937   0.32119   0.35387   0.35584   0.35912
 Alpha virt. eigenvalues --    0.36528   0.36822   0.38102   0.39350   0.40935
 Alpha virt. eigenvalues --    0.41572   0.43586   0.46088   0.47297   0.48726
 Alpha virt. eigenvalues --    0.50513   0.51965   0.52695   0.54824   0.57194
 Alpha virt. eigenvalues --    0.59235   0.60808   0.61347   0.63311   0.64607
 Alpha virt. eigenvalues --    0.69630   0.71099   0.76131   0.77714   0.78919
 Alpha virt. eigenvalues --    0.84248   0.84620   0.85810   0.86262   0.89264
 Alpha virt. eigenvalues --    0.90411   0.92524   0.94528   0.95718   0.96289
 Alpha virt. eigenvalues --    1.05007   1.05802   1.06514   1.07727   1.08599
 Alpha virt. eigenvalues --    1.11851   1.14379   1.17444   1.19130   1.21313
 Alpha virt. eigenvalues --    1.23346   1.24682   1.25818   1.29705   1.30338
 Alpha virt. eigenvalues --    1.34162   1.36363   1.37301   1.40052   1.41053
 Alpha virt. eigenvalues --    1.45088   1.51569   1.54983   1.56988   1.67066
 Alpha virt. eigenvalues --    1.68827   1.73235   1.81816   1.83177   1.85294
 Alpha virt. eigenvalues --    1.91449   1.92059   1.93246   1.97367   1.98008
 Alpha virt. eigenvalues --    2.01912   2.08047   2.11818   2.17172   2.23616
 Alpha virt. eigenvalues --    2.26998   2.29245   2.30052   2.34908   2.35480
 Alpha virt. eigenvalues --    2.40544   2.43112   2.47189   2.50581   2.51924
 Alpha virt. eigenvalues --    2.52234   2.59290   2.60037   2.60945   2.63260
 Alpha virt. eigenvalues --    2.64321   2.65729   2.70019   2.70025   2.75578
 Alpha virt. eigenvalues --    2.75651   2.79844   2.82364   2.85399   2.90017
 Alpha virt. eigenvalues --    2.90210   2.96688   2.99107   3.02027   3.05417
 Alpha virt. eigenvalues --    3.09133   3.13047   3.16646   3.21406   3.21516
 Alpha virt. eigenvalues --    3.26308   3.28162   3.33078   3.34415   3.34584
 Alpha virt. eigenvalues --    3.38678   3.40393   3.43992   3.48724   3.48907
 Alpha virt. eigenvalues --    3.53974   3.56155   3.56494   3.59371   3.64627
 Alpha virt. eigenvalues --    3.68912   3.73952   3.74154   3.84985   3.87116
 Alpha virt. eigenvalues --    3.87972   3.94826   3.96802   4.00167   4.05430
 Alpha virt. eigenvalues --    4.12555   4.24234   4.25693   4.46921   4.61273
 Alpha virt. eigenvalues --    4.61276   4.75204   5.03554   5.07409   5.25025
 Alpha virt. eigenvalues --    5.27711   5.31855   5.33967   5.35110   5.39322
 Alpha virt. eigenvalues --    5.60081   5.73031   5.75515   5.78487   5.79307
 Alpha virt. eigenvalues --    5.83624   5.91583   5.98604   6.01197   6.02733
 Alpha virt. eigenvalues --    6.16907   6.22402   6.26192   6.26726   6.29115
 Alpha virt. eigenvalues --    6.30931   6.35912   6.41132   6.49355   6.57748
 Alpha virt. eigenvalues --    6.69096   6.73286   6.81383   6.84031   6.84426
 Alpha virt. eigenvalues --    7.01307   7.07182   7.11546   7.13768   7.15864
 Alpha virt. eigenvalues --    7.24246   7.25396   7.30203   7.38491   7.38677
 Alpha virt. eigenvalues --    7.49898   7.50473   7.52702   7.54233   7.60763
 Alpha virt. eigenvalues --    7.63521   7.66009   7.71291   7.83027   7.85983
 Alpha virt. eigenvalues --    7.90081   7.96755   8.01418   8.04145   8.17404
 Alpha virt. eigenvalues --    8.17422   8.18560   8.24371   8.27074   8.27593
 Alpha virt. eigenvalues --    8.34770   8.36981   8.43686   8.48588   8.49206
 Alpha virt. eigenvalues --    8.57866   8.68656   8.71793   8.72904   8.73146
 Alpha virt. eigenvalues --    8.82910   8.87919   8.91983   8.99019   9.06055
 Alpha virt. eigenvalues --    9.13647   9.14819   9.26509   9.37435   9.46852
 Alpha virt. eigenvalues --    9.48547   9.51120   9.59628   9.65114   9.75876
 Alpha virt. eigenvalues --    9.77310   9.83754   9.85695  10.13941  10.31815
 Alpha virt. eigenvalues --   10.45414  10.63447  11.31246  11.52384  11.59663
 Alpha virt. eigenvalues --   11.84401  12.85360  14.70480  24.73170  28.49837
 Alpha virt. eigenvalues --   28.66886  29.06893  29.42777  37.62222  84.15090
 Alpha virt. eigenvalues --  147.52807 196.88333 451.23889
  Beta  occ. eigenvalues --  -88.94353 -14.31717 -10.21192  -8.01652  -5.97798
  Beta  occ. eigenvalues --   -5.97777  -5.97376  -0.93058  -0.76851  -0.61177
  Beta  occ. eigenvalues --   -0.50091  -0.47375  -0.39034  -0.36069  -0.30306
  Beta  occ. eigenvalues --   -0.24437
  Beta virt. eigenvalues --   -0.07765  -0.00412   0.00524   0.01675   0.02871
  Beta virt. eigenvalues --    0.03844   0.05549   0.06434   0.08726   0.10723
  Beta virt. eigenvalues --    0.11206   0.11671   0.13688   0.14459   0.15332
  Beta virt. eigenvalues --    0.17065   0.17679   0.17878   0.18906   0.20271
  Beta virt. eigenvalues --    0.20413   0.21651   0.22665   0.23368   0.23844
  Beta virt. eigenvalues --    0.25371   0.26726   0.27114   0.29829   0.30476
  Beta virt. eigenvalues --    0.30937   0.32119   0.35387   0.35584   0.35912
  Beta virt. eigenvalues --    0.36528   0.36822   0.38102   0.39350   0.40935
  Beta virt. eigenvalues --    0.41572   0.43586   0.46088   0.47297   0.48726
  Beta virt. eigenvalues --    0.50513   0.51965   0.52695   0.54824   0.57194
  Beta virt. eigenvalues --    0.59235   0.60808   0.61347   0.63311   0.64607
  Beta virt. eigenvalues --    0.69630   0.71099   0.76131   0.77714   0.78919
  Beta virt. eigenvalues --    0.84248   0.84620   0.85810   0.86262   0.89264
  Beta virt. eigenvalues --    0.90411   0.92524   0.94528   0.95718   0.96289
  Beta virt. eigenvalues --    1.05007   1.05802   1.06514   1.07727   1.08599
  Beta virt. eigenvalues --    1.11851   1.14379   1.17444   1.19130   1.21313
  Beta virt. eigenvalues --    1.23346   1.24682   1.25818   1.29705   1.30338
  Beta virt. eigenvalues --    1.34162   1.36363   1.37301   1.40052   1.41053
  Beta virt. eigenvalues --    1.45088   1.51569   1.54983   1.56988   1.67066
  Beta virt. eigenvalues --    1.68827   1.73235   1.81816   1.83177   1.85294
  Beta virt. eigenvalues --    1.91449   1.92059   1.93246   1.97367   1.98008
  Beta virt. eigenvalues --    2.01912   2.08047   2.11818   2.17172   2.23616
  Beta virt. eigenvalues --    2.26998   2.29245   2.30052   2.34908   2.35480
  Beta virt. eigenvalues --    2.40544   2.43112   2.47189   2.50581   2.51924
  Beta virt. eigenvalues --    2.52234   2.59290   2.60037   2.60945   2.63260
  Beta virt. eigenvalues --    2.64321   2.65729   2.70019   2.70025   2.75578
  Beta virt. eigenvalues --    2.75651   2.79844   2.82364   2.85399   2.90017
  Beta virt. eigenvalues --    2.90210   2.96688   2.99107   3.02027   3.05417
  Beta virt. eigenvalues --    3.09133   3.13047   3.16646   3.21406   3.21516
  Beta virt. eigenvalues --    3.26308   3.28162   3.33078   3.34415   3.34584
  Beta virt. eigenvalues --    3.38678   3.40393   3.43992   3.48724   3.48907
  Beta virt. eigenvalues --    3.53974   3.56155   3.56494   3.59371   3.64627
  Beta virt. eigenvalues --    3.68912   3.73952   3.74154   3.84985   3.87116
  Beta virt. eigenvalues --    3.87972   3.94826   3.96802   4.00167   4.05430
  Beta virt. eigenvalues --    4.12555   4.24234   4.25693   4.46921   4.61273
  Beta virt. eigenvalues --    4.61276   4.75204   5.03554   5.07409   5.25025
  Beta virt. eigenvalues --    5.27711   5.31855   5.33967   5.35110   5.39322
  Beta virt. eigenvalues --    5.60081   5.73031   5.75515   5.78487   5.79307
  Beta virt. eigenvalues --    5.83624   5.91583   5.98604   6.01197   6.02733
  Beta virt. eigenvalues --    6.16907   6.22402   6.26192   6.26726   6.29115
  Beta virt. eigenvalues --    6.30931   6.35912   6.41132   6.49355   6.57748
  Beta virt. eigenvalues --    6.69096   6.73286   6.81383   6.84031   6.84426
  Beta virt. eigenvalues --    7.01307   7.07182   7.11546   7.13768   7.15864
  Beta virt. eigenvalues --    7.24246   7.25396   7.30203   7.38491   7.38677
  Beta virt. eigenvalues --    7.49898   7.50473   7.52702   7.54233   7.60763
  Beta virt. eigenvalues --    7.63521   7.66009   7.71291   7.83027   7.85983
  Beta virt. eigenvalues --    7.90081   7.96755   8.01418   8.04145   8.17404
  Beta virt. eigenvalues --    8.17422   8.18560   8.24371   8.27074   8.27593
  Beta virt. eigenvalues --    8.34770   8.36981   8.43686   8.48588   8.49206
  Beta virt. eigenvalues --    8.57866   8.68656   8.71793   8.72904   8.73146
  Beta virt. eigenvalues --    8.82910   8.87919   8.91983   8.99019   9.06055
  Beta virt. eigenvalues --    9.13647   9.14819   9.26509   9.37435   9.46852
  Beta virt. eigenvalues --    9.48547   9.51120   9.59628   9.65114   9.75876
  Beta virt. eigenvalues --    9.77310   9.83754   9.85695  10.13941  10.31815
  Beta virt. eigenvalues --   10.45414  10.63447  11.31246  11.52384  11.59663
  Beta virt. eigenvalues --   11.84401  12.85360  14.70480  24.73170  28.49837
  Beta virt. eigenvalues --   28.66886  29.06893  29.42777  37.62222  84.15090
  Beta virt. eigenvalues --  147.52807 196.88333 451.23889
          Condensed to atoms (all electrons):
               1          2          3          4          5          6
     1  C    5.095377   0.382599  -0.008309   0.374049   0.437531  -0.045786
     2  S    0.382599  15.090092   0.276869  -0.041586  -0.039052   0.025506
     3  N   -0.008309   0.276869   7.018257   0.002080  -0.005290   0.176698
     4  H    0.374049  -0.041586   0.002080   0.534229  -0.002395   0.001949
     5  H    0.437531  -0.039052  -0.005290  -0.002395   0.502869   0.000906
     6  H   -0.045786   0.025506   0.176698   0.001949   0.000906   0.687640
          Atomic-Atomic Spin Densities.
               1          2          3          4          5          6
     1  C   -0.000000  -0.000000  -0.000000   0.000000   0.000000   0.000000
     2  S   -0.000000  -0.000000   0.000000   0.000000  -0.000000  -0.000000
     3  N   -0.000000   0.000000  -0.000000   0.000000  -0.000000   0.000000
     4  H    0.000000   0.000000   0.000000  -0.000000   0.000000  -0.000000
     5  H    0.000000  -0.000000  -0.000000   0.000000   0.000000   0.000000
     6  H    0.000000  -0.000000   0.000000  -0.000000   0.000000  -0.000000
 Mulliken charges and spin densities:
               1          2
     1  C   -0.235461  -0.000000
     2  S    0.305574  -0.000000
     3  N   -0.460306  -0.000000
     4  H    0.131675   0.000000
     5  H    0.105430   0.000000
     6  H    0.153088   0.000000
 Sum of Mulliken charges =  -0.00000   0.00000
 Mulliken charges and spin densities with hydrogens summed into heavy atoms:
               1          2
     1  C    0.001644   0.000000
     2  S    0.305574  -0.000000
     3  N   -0.307218   0.000000
 Electronic spatial extent (au):  <R**2>=            821.6984
 Charge=             -0.0000 electrons
 Dipole moment (field-independent basis, Debye):
    X=             -2.5196    Y=             -0.2450    Z=             -0.1014  Tot=              2.5335
 Quadrupole moment (field-independent basis, Debye-Ang):
   XX=            -38.8929   YY=            -24.5493   ZZ=            -25.9385
   XY=             -3.1567   XZ=             -1.8983   YZ=              1.8056
 Traceless Quadrupole moment (field-independent basis, Debye-Ang):
   XX=             -9.0993   YY=              5.2443   ZZ=              3.8550
   XY=             -3.1567   XZ=             -1.8983   YZ=              1.8056
 Octapole moment (field-independent basis, Debye-Ang**2):
  XXX=           -232.2806  YYY=            -28.0811  ZZZ=            -19.4111  XYY=            -59.0085
  XXY=            -28.1534  XXZ=            -17.3113  XZZ=            -58.8588  YZZ=             -8.6134
  YYZ=             -2.9780  XYZ=              0.5479
 Hexadecapole moment (field-independent basis, Debye-Ang**3):
 XXXX=          -1196.1089 YYYY=            -94.6549 ZZZZ=            -61.7462 XXXY=           -175.5319
 XXXZ=           -107.8881 YYYX=            -88.4522 YYYZ=            -13.1301 ZZZX=            -58.3556
 ZZZY=            -19.9729 XXYY=           -190.8180 XXZZ=           -175.5818 YYZZ=            -21.7988
 XXYZ=            -14.0077 YYXZ=            -11.7877 ZZXY=            -27.7640
 N-N= 1.020311797422D+02 E-N=-1.370972373878D+03  KE= 4.916996290889D+02
                          Isotropic Fermi Contact Couplings
        Atom                 a.u.       MegaHertz       Gauss      10(-4) cm-1
     1  C(13)              0.00000       0.00000       0.00000       0.00000
     2  S(33)              0.00000       0.00000       0.00000       0.00000
     3  N(14)              0.00000       0.00000       0.00000       0.00000
     4  H(1)              -0.00000      -0.00000      -0.00000      -0.00000
     5  H(1)               0.00000       0.00000       0.00000       0.00000
     6  H(1)              -0.00000      -0.00000      -0.00000      -0.00000
 --------------------------------------------------------
       Center         ----  Spin Dipole Couplings  ----
                      3XX-RR        3YY-RR        3ZZ-RR
 --------------------------------------------------------
     1   Atom        0.000000     -0.000000     -0.000000
     2   Atom        0.000000     -0.000000     -0.000000
     3   Atom       -0.000000      0.000000     -0.000000
     4   Atom       -0.000000      0.000000      0.000000
     5   Atom        0.000000     -0.000000     -0.000000
     6   Atom       -0.000000      0.000000     -0.000000
 --------------------------------------------------------
                        XY            XZ            YZ
 --------------------------------------------------------
     1   Atom       -0.000000     -0.000000     -0.000000
     2   Atom       -0.000000     -0.000000      0.000000
     3   Atom        0.000000      0.000000     -0.000000
     4   Atom        0.000000      0.000000     -0.000000
     5   Atom       -0.000000     -0.000000     -0.000000
     6   Atom        0.000000      0.000000     -0.000000
 --------------------------------------------------------


 ---------------------------------------------------------------------------------
              Anisotropic Spin Dipole Couplings in Principal Axis System
 ---------------------------------------------------------------------------------

       Atom             a.u.   MegaHertz   Gauss  10(-4) cm-1        Axes

              Baa    -0.0000    -0.000    -0.000    -0.000  0.1963  0.8216  0.5352
     1 C(13)  Bbb     0.0000     0.000     0.000     0.000  0.0596 -0.5548  0.8299
              Bcc     0.0000     0.000     0.000     0.000  0.9787 -0.1310 -0.1579
 
              Baa    -0.0000    -0.000    -0.000    -0.000  0.0764  0.9408 -0.3303
     2 S(33)  Bbb    -0.0000    -0.000    -0.000    -0.000  0.2423  0.3038  0.9214
              Bcc     0.0000     0.000     0.000     0.000  0.9672 -0.1504 -0.2048
 
              Baa    -0.0000    -0.000    -0.000    -0.000  0.7598 -0.6001 -0.2503
     3 N(14)  Bbb    -0.0000    -0.000    -0.000    -0.000  0.2343 -0.1064  0.9663
              Bcc     0.0000     0.000     0.000     0.000  0.6065  0.7928 -0.0597
 
              Baa    -0.0000    -0.000    -0.000    -0.000  0.9268 -0.3191 -0.1979
     4 H(1)   Bbb     0.0000     0.000     0.000     0.000  0.3351  0.4653  0.8193
              Bcc     0.0000     0.000     0.000     0.000  0.1694  0.8257 -0.5381
 
              Baa    -0.0000    -0.000    -0.000    -0.000  0.5260  0.6948  0.4905
     5 H(1)   Bbb     0.0000     0.000     0.000     0.000 -0.1218 -0.5092  0.8520
              Bcc     0.0000     0.000     0.000     0.000  0.8417 -0.5079 -0.1832
 
              Baa    -0.0000    -0.000    -0.000    -0.000  0.7898 -0.2050 -0.5780
     6 H(1)   Bbb     0.0000     0.000     0.000     0.000  0.5194 -0.2775  0.8082
              Bcc     0.0000     0.000     0.000     0.000  0.3261  0.9386  0.1127
 

 ---------------------------------------------------------------------------------

 No NMR shielding tensors so no spin-rotation constants.
 Leave Link  601 at Tue Jan  3 09:10:20 2023, MaxMem=   536870912 cpu:               0.9 elap:               0.5
 (Enter /opt/software/gaussian/g16.c01/l801.exe)
 DoSCS=F DFT=T ScalE2(SS,OS)=  1.000000  1.000000
 Range of M.O.s used for correlation:     1   304
 NBasis=   304 NAE=    16 NBE=    16 NFC=     0 NFV=     0
 NROrb=    304 NOA=    16 NOB=    16 NVA=   288 NVB=   288

 **** Warning!!: The largest alpha MO coefficient is  0.84702546D+02


 **** Warning!!: The largest beta MO coefficient is  0.84702546D+02

 Leave Link  801 at Tue Jan  3 09:10:21 2023, MaxMem=   536870912 cpu:               0.1 elap:               0.0
 (Enter /opt/software/gaussian/g16.c01/l914.exe)
 UHF ground state
 Doing stability rather than CIS.
 Two-electron integral symmetry not used.
 MDV=   536870912 DFT=T DoStab=T Mixed=T DoRPA=F DoScal=F NonHer=F
 Making orbital integer symmetry assigments:
    12 initial guesses have been made.
 Convergence on wavefunction:    0.001000000000000
 Davidson Disk Diagonalization:  ConvIn= 1.00D-03 SkipCon=T Conv= 1.00D-03.
 Max sub-space:  2000 roots to seek:    12 dimension of matrix:         9216
 Iteration     1 Dimension    12 NMult     0 NNew     12
 CISAX will form    12 AO SS matrices at one time.
 NMat=    12 NSing=    12 JSym2X= 0.
 FoFJK:  IHMeth= 1 ICntrl=       0 DoSepK=F KAlg= 0 I1Cent=           0 FoldK=F
 IRaf= 980000000 NMat=      12 IRICut=      30 DoRegI=T DoRafI=T ISym2E= 0 IDoP0=3 IntGTp=3.
 FoFCou: FMM=F IPFlag=           0 FMFlag=      100000 FMFlg1=           0
         NFxFlg=           0 DoJE=F BraDBF=F KetDBF=F FulRan=T
         wScrn=  0.000000 ICntrl=         0 IOpCl=  1 I1Cent=           0 NGrid=           0
         NMat0=   12 NMatS0=     12 NMatT0=    0 NMatD0=   12 NMtDS0=    0 NMtDT0=    0
 Symmetry not used in FoFCou.
 Raff kept on since  97.64% of shell-pairs survive, threshold=   0.20 IRatSp=98.
 New state      1 was old state      2
 Excitation Energies [eV] at current iteration:
 Root      1 :     1.344629483008767
 Root      2 :     4.006186445695858
 Root      3 :     5.315028984340591
 Root      4 :     5.410562869890692
 Root      5 :     5.591980031584884
 Root      6 :     5.714175437964997
 Root      7 :     5.967467096171990
 Root      8 :     6.178857535220959
 Root      9 :     6.247581882845175
 Root     10 :     6.580459896729717
 Root     11 :     6.583187672703079
 Root     12 :    11.536091862427741
 Iteration     2 Dimension    24 NMult    12 NNew     12
 CISAX will form    12 AO SS matrices at one time.
 NMat=    12 NSing=    12 JSym2X= 0.
 Root      1 not converged, maximum delta is    0.071462325210068
 Excitation Energies [eV] at current iteration:
 Root      1 :     0.906655378855139   Change is   -0.437974104153628
 Root      2 :     3.635421746524981   Change is   -0.370764699170878
 Root      3 :     5.032230997422199   Change is   -0.282797986918392
 Root      4 :     5.040168299322620   Change is   -0.370394570568071
 Root      5 :     5.499385766027882   Change is   -0.214789671937115
 Root      6 :     5.514444154573878   Change is   -0.077535877011006
 Root      7 :     5.886085713827730   Change is   -0.081381382344260
 Root      8 :     5.997898934839807   Change is   -0.180958600381153
 Root      9 :     6.175044130797184   Change is   -0.072537752047991
 Root     10 :     6.264392463440784   Change is   -0.316067433288933
 Root     11 :     6.519258306324664   Change is   -0.063929366378414
 Root     12 :     7.028755231599732
 Iteration     3 Dimension    27 NMult    24 NNew      3
 CISAX will form     3 AO SS matrices at one time.
 NMat=     3 NSing=     3 JSym2X= 0.
 Root      1 not converged, maximum delta is    0.003650479182759
 Excitation Energies [eV] at current iteration:
 Root      1 :     0.901446541369096   Change is   -0.005208837486043
 Root      2 :     3.619050269115334   Change is   -0.016371477409647
 Root      3 :     4.893045780065256   Change is   -0.139185217356943
 Iteration     4 Dimension    30 NMult    27 NNew      3
 CISAX will form     3 AO SS matrices at one time.
 NMat=     3 NSing=     3 JSym2X= 0.
 Root      1 not converged, maximum delta is    0.001223815936985
 Excitation Energies [eV] at current iteration:
 Root      1 :     0.901277544495140   Change is   -0.000168996873957
 Root      2 :     3.617784007698541   Change is   -0.001266261416793
 Root      3 :     4.812947449195883   Change is   -0.080098330869372
 Iteration     5 Dimension    33 NMult    30 NNew      3
 CISAX will form     3 AO SS matrices at one time.
 NMat=     3 NSing=     3 JSym2X= 0.
 Root      1 has converged.
 Excitation Energies [eV] at current iteration:
 Root      1 :     0.901273490961981   Change is   -0.000004053533159
 Root      2 :     3.617765497041178   Change is   -0.000018510657363
 Root      3 :     4.810456879660959   Change is   -0.002490569534924
 Convergence achieved on expansion vectors.
 ***********************************************************************
 Stability analysis using <AA,BB:AA,BB> singles matrix:
 ***********************************************************************
 1PDM for each excited state written to RWF  633
 Ground to excited state transition densities written to RWF  633

 Eigenvectors of the stability matrix:
 
 Excited state symmetry could not be determined.
 Eigenvector   1:  3.000-?Sym  Eigenvalue= 0.0331212  <S**2>=2.000
     16A -> 17A        0.69204
     16B -> 17B       -0.69204
 The wavefunction is stable under the perturbations considered.
 Leave Link  914 at Tue Jan  3 09:21:27 2023, MaxMem=   536870912 cpu:            1333.3 elap:             666.8
 (Enter /opt/software/gaussian/g16.c01/l508.exe)
 The wavefunction is already stable.
 Leave Link  508 at Tue Jan  3 09:21:27 2023, MaxMem=   536870912 cpu:               0.0 elap:               0.0
 (Enter /opt/software/gaussian/g16.c01/l601.exe)
 Copying SCF densities to generalized density rwf, IOpCl= 1 IROHF=0.

 **********************************************************************

            Population analysis using the SCF Density.

 **********************************************************************

 Alpha  occ. eigenvalues --  -88.94353 -14.31717 -10.21192  -8.01652  -5.97798
 Alpha  occ. eigenvalues --   -5.97777  -5.97376  -0.93058  -0.76851  -0.61177
 Alpha  occ. eigenvalues --   -0.50091  -0.47375  -0.39034  -0.36069  -0.30306
 Alpha  occ. eigenvalues --   -0.24437
 Alpha virt. eigenvalues --   -0.07765  -0.00412   0.00524   0.01675   0.02871
 Alpha virt. eigenvalues --    0.03844   0.05549   0.06434   0.08726   0.10723
 Alpha virt. eigenvalues --    0.11206   0.11671   0.13688   0.14459   0.15332
 Alpha virt. eigenvalues --    0.17065   0.17679   0.17878   0.18906   0.20271
 Alpha virt. eigenvalues --    0.20413   0.21651   0.22665   0.23368   0.23844
 Alpha virt. eigenvalues --    0.25371   0.26726   0.27114   0.29829   0.30476
 Alpha virt. eigenvalues --    0.30937   0.32119   0.35387   0.35584   0.35912
 Alpha virt. eigenvalues --    0.36528   0.36822   0.38102   0.39350   0.40935
 Alpha virt. eigenvalues --    0.41572   0.43586   0.46088   0.47297   0.48726
 Alpha virt. eigenvalues --    0.50513   0.51965   0.52695   0.54824   0.57194
 Alpha virt. eigenvalues --    0.59235   0.60808   0.61347   0.63311   0.64607
 Alpha virt. eigenvalues --    0.69630   0.71099   0.76131   0.77714   0.78919
 Alpha virt. eigenvalues --    0.84248   0.84620   0.85810   0.86262   0.89264
 Alpha virt. eigenvalues --    0.90411   0.92524   0.94528   0.95718   0.96289
 Alpha virt. eigenvalues --    1.05007   1.05802   1.06514   1.07727   1.08599
 Alpha virt. eigenvalues --    1.11851   1.14379   1.17444   1.19130   1.21313
 Alpha virt. eigenvalues --    1.23346   1.24682   1.25818   1.29705   1.30338
 Alpha virt. eigenvalues --    1.34162   1.36363   1.37301   1.40052   1.41053
 Alpha virt. eigenvalues --    1.45088   1.51569   1.54983   1.56988   1.67066
 Alpha virt. eigenvalues --    1.68827   1.73235   1.81816   1.83177   1.85294
 Alpha virt. eigenvalues --    1.91449   1.92059   1.93246   1.97367   1.98008
 Alpha virt. eigenvalues --    2.01912   2.08047   2.11818   2.17172   2.23616
 Alpha virt. eigenvalues --    2.26998   2.29245   2.30052   2.34908   2.35480
 Alpha virt. eigenvalues --    2.40544   2.43112   2.47189   2.50581   2.51924
 Alpha virt. eigenvalues --    2.52234   2.59290   2.60037   2.60945   2.63260
 Alpha virt. eigenvalues --    2.64321   2.65729   2.70019   2.70025   2.75578
 Alpha virt. eigenvalues --    2.75651   2.79844   2.82364   2.85399   2.90017
 Alpha virt. eigenvalues --    2.90210   2.96688   2.99107   3.02027   3.05417
 Alpha virt. eigenvalues --    3.09133   3.13047   3.16646   3.21406   3.21516
 Alpha virt. eigenvalues --    3.26308   3.28162   3.33078   3.34415   3.34584
 Alpha virt. eigenvalues --    3.38678   3.40393   3.43992   3.48724   3.48907
 Alpha virt. eigenvalues --    3.53974   3.56155   3.56494   3.59371   3.64627
 Alpha virt. eigenvalues --    3.68912   3.73952   3.74154   3.84985   3.87116
 Alpha virt. eigenvalues --    3.87972   3.94826   3.96802   4.00167   4.05430
 Alpha virt. eigenvalues --    4.12555   4.24234   4.25693   4.46921   4.61273
 Alpha virt. eigenvalues --    4.61276   4.75204   5.03554   5.07409   5.25025
 Alpha virt. eigenvalues --    5.27711   5.31855   5.33967   5.35110   5.39322
 Alpha virt. eigenvalues --    5.60081   5.73031   5.75515   5.78487   5.79307
 Alpha virt. eigenvalues --    5.83624   5.91583   5.98604   6.01197   6.02733
 Alpha virt. eigenvalues --    6.16907   6.22402   6.26192   6.26726   6.29115
 Alpha virt. eigenvalues --    6.30931   6.35912   6.41132   6.49355   6.57748
 Alpha virt. eigenvalues --    6.69096   6.73286   6.81383   6.84031   6.84426
 Alpha virt. eigenvalues --    7.01307   7.07182   7.11546   7.13768   7.15864
 Alpha virt. eigenvalues --    7.24246   7.25396   7.30203   7.38491   7.38677
 Alpha virt. eigenvalues --    7.49898   7.50473   7.52702   7.54233   7.60763
 Alpha virt. eigenvalues --    7.63521   7.66009   7.71291   7.83027   7.85983
 Alpha virt. eigenvalues --    7.90081   7.96755   8.01418   8.04145   8.17404
 Alpha virt. eigenvalues --    8.17422   8.18560   8.24371   8.27074   8.27593
 Alpha virt. eigenvalues --    8.34770   8.36981   8.43686   8.48588   8.49206
 Alpha virt. eigenvalues --    8.57866   8.68656   8.71793   8.72904   8.73146
 Alpha virt. eigenvalues --    8.82910   8.87919   8.91983   8.99019   9.06055
 Alpha virt. eigenvalues --    9.13647   9.14819   9.26509   9.37435   9.46852
 Alpha virt. eigenvalues --    9.48547   9.51120   9.59628   9.65114   9.75876
 Alpha virt. eigenvalues --    9.77310   9.83754   9.85695  10.13941  10.31815
 Alpha virt. eigenvalues --   10.45414  10.63447  11.31246  11.52384  11.59663
 Alpha virt. eigenvalues --   11.84401  12.85360  14.70480  24.73170  28.49837
 Alpha virt. eigenvalues --   28.66886  29.06893  29.42777  37.62222  84.15090
 Alpha virt. eigenvalues --  147.52807 196.88333 451.23889
  Beta  occ. eigenvalues --  -88.94353 -14.31717 -10.21192  -8.01652  -5.97798
  Beta  occ. eigenvalues --   -5.97777  -5.97376  -0.93058  -0.76851  -0.61177
  Beta  occ. eigenvalues --   -0.50091  -0.47375  -0.39034  -0.36069  -0.30306
  Beta  occ. eigenvalues --   -0.24437
  Beta virt. eigenvalues --   -0.07765  -0.00412   0.00524   0.01675   0.02871
  Beta virt. eigenvalues --    0.03844   0.05549   0.06434   0.08726   0.10723
  Beta virt. eigenvalues --    0.11206   0.11671   0.13688   0.14459   0.15332
  Beta virt. eigenvalues --    0.17065   0.17679   0.17878   0.18906   0.20271
  Beta virt. eigenvalues --    0.20413   0.21651   0.22665   0.23368   0.23844
  Beta virt. eigenvalues --    0.25371   0.26726   0.27114   0.29829   0.30476
  Beta virt. eigenvalues --    0.30937   0.32119   0.35387   0.35584   0.35912
  Beta virt. eigenvalues --    0.36528   0.36822   0.38102   0.39350   0.40935
  Beta virt. eigenvalues --    0.41572   0.43586   0.46088   0.47297   0.48726
  Beta virt. eigenvalues --    0.50513   0.51965   0.52695   0.54824   0.57194
  Beta virt. eigenvalues --    0.59235   0.60808   0.61347   0.63311   0.64607
  Beta virt. eigenvalues --    0.69630   0.71099   0.76131   0.77714   0.78919
  Beta virt. eigenvalues --    0.84248   0.84620   0.85810   0.86262   0.89264
  Beta virt. eigenvalues --    0.90411   0.92524   0.94528   0.95718   0.96289
  Beta virt. eigenvalues --    1.05007   1.05802   1.06514   1.07727   1.08599
  Beta virt. eigenvalues --    1.11851   1.14379   1.17444   1.19130   1.21313
  Beta virt. eigenvalues --    1.23346   1.24682   1.25818   1.29705   1.30338
  Beta virt. eigenvalues --    1.34162   1.36363   1.37301   1.40052   1.41053
  Beta virt. eigenvalues --    1.45088   1.51569   1.54983   1.56988   1.67066
  Beta virt. eigenvalues --    1.68827   1.73235   1.81816   1.83177   1.85294
  Beta virt. eigenvalues --    1.91449   1.92059   1.93246   1.97367   1.98008
  Beta virt. eigenvalues --    2.01912   2.08047   2.11818   2.17172   2.23616
  Beta virt. eigenvalues --    2.26998   2.29245   2.30052   2.34908   2.35480
  Beta virt. eigenvalues --    2.40544   2.43112   2.47189   2.50581   2.51924
  Beta virt. eigenvalues --    2.52234   2.59290   2.60037   2.60945   2.63260
  Beta virt. eigenvalues --    2.64321   2.65729   2.70019   2.70025   2.75578
  Beta virt. eigenvalues --    2.75651   2.79844   2.82364   2.85399   2.90017
  Beta virt. eigenvalues --    2.90210   2.96688   2.99107   3.02027   3.05417
  Beta virt. eigenvalues --    3.09133   3.13047   3.16646   3.21406   3.21516
  Beta virt. eigenvalues --    3.26308   3.28162   3.33078   3.34415   3.34584
  Beta virt. eigenvalues --    3.38678   3.40393   3.43992   3.48724   3.48907
  Beta virt. eigenvalues --    3.53974   3.56155   3.56494   3.59371   3.64627
  Beta virt. eigenvalues --    3.68912   3.73952   3.74154   3.84985   3.87116
  Beta virt. eigenvalues --    3.87972   3.94826   3.96802   4.00167   4.05430
  Beta virt. eigenvalues --    4.12555   4.24234   4.25693   4.46921   4.61273
  Beta virt. eigenvalues --    4.61276   4.75204   5.03554   5.07409   5.25025
  Beta virt. eigenvalues --    5.27711   5.31855   5.33967   5.35110   5.39322
  Beta virt. eigenvalues --    5.60081   5.73031   5.75515   5.78487   5.79307
  Beta virt. eigenvalues --    5.83624   5.91583   5.98604   6.01197   6.02733
  Beta virt. eigenvalues --    6.16907   6.22402   6.26192   6.26726   6.29115
  Beta virt. eigenvalues --    6.30931   6.35912   6.41132   6.49355   6.57748
  Beta virt. eigenvalues --    6.69096   6.73286   6.81383   6.84031   6.84426
  Beta virt. eigenvalues --    7.01307   7.07182   7.11546   7.13768   7.15864
  Beta virt. eigenvalues --    7.24246   7.25396   7.30203   7.38491   7.38677
  Beta virt. eigenvalues --    7.49898   7.50473   7.52702   7.54233   7.60763
  Beta virt. eigenvalues --    7.63521   7.66009   7.71291   7.83027   7.85983
  Beta virt. eigenvalues --    7.90081   7.96755   8.01418   8.04145   8.17404
  Beta virt. eigenvalues --    8.17422   8.18560   8.24371   8.27074   8.27593
  Beta virt. eigenvalues --    8.34770   8.36981   8.43686   8.48588   8.49206
  Beta virt. eigenvalues --    8.57866   8.68656   8.71793   8.72904   8.73146
  Beta virt. eigenvalues --    8.82910   8.87919   8.91983   8.99019   9.06055
  Beta virt. eigenvalues --    9.13647   9.14819   9.26509   9.37435   9.46852
  Beta virt. eigenvalues --    9.48547   9.51120   9.59628   9.65114   9.75876
  Beta virt. eigenvalues --    9.77310   9.83754   9.85695  10.13941  10.31815
  Beta virt. eigenvalues --   10.45414  10.63447  11.31246  11.52384  11.59663
  Beta virt. eigenvalues --   11.84401  12.85360  14.70480  24.73170  28.49837
  Beta virt. eigenvalues --   28.66886  29.06893  29.42777  37.62222  84.15090
  Beta virt. eigenvalues --  147.52807 196.88333 451.23889
          Condensed to atoms (all electrons):
               1          2          3          4          5          6
     1  C    5.095377   0.382599  -0.008309   0.374049   0.437531  -0.045786
     2  S    0.382599  15.090092   0.276869  -0.041586  -0.039052   0.025506
     3  N   -0.008309   0.276869   7.018257   0.002080  -0.005290   0.176698
     4  H    0.374049  -0.041586   0.002080   0.534229  -0.002395   0.001949
     5  H    0.437531  -0.039052  -0.005290  -0.002395   0.502869   0.000906
     6  H   -0.045786   0.025506   0.176698   0.001949   0.000906   0.687640
          Atomic-Atomic Spin Densities.
               1          2          3          4          5          6
     1  C   -0.000000  -0.000000  -0.000000   0.000000   0.000000   0.000000
     2  S   -0.000000  -0.000000   0.000000   0.000000  -0.000000  -0.000000
     3  N   -0.000000   0.000000  -0.000000   0.000000  -0.000000   0.000000
     4  H    0.000000   0.000000   0.000000  -0.000000   0.000000  -0.000000
     5  H    0.000000  -0.000000  -0.000000   0.000000   0.000000   0.000000
     6  H    0.000000  -0.000000   0.000000  -0.000000   0.000000  -0.000000
 Mulliken charges and spin densities:
               1          2
     1  C   -0.235461  -0.000000
     2  S    0.305574  -0.000000
     3  N   -0.460306  -0.000000
     4  H    0.131675   0.000000
     5  H    0.105430   0.000000
     6  H    0.153088   0.000000
 Sum of Mulliken charges =  -0.00000   0.00000
 Mulliken charges and spin densities with hydrogens summed into heavy atoms:
               1          2
     1  C    0.001644   0.000000
     2  S    0.305574  -0.000000
     3  N   -0.307218   0.000000
 Electronic spatial extent (au):  <R**2>=            821.6984
 Charge=             -0.0000 electrons
 Dipole moment (field-independent basis, Debye):
    X=             -2.5196    Y=             -0.2450    Z=             -0.1014  Tot=              2.5335
 Quadrupole moment (field-independent basis, Debye-Ang):
   XX=            -38.8929   YY=            -24.5493   ZZ=            -25.9385
   XY=             -3.1567   XZ=             -1.8983   YZ=              1.8056
 Traceless Quadrupole moment (field-independent basis, Debye-Ang):
   XX=             -9.0993   YY=              5.2443   ZZ=              3.8550
   XY=             -3.1567   XZ=             -1.8983   YZ=              1.8056
 Octapole moment (field-independent basis, Debye-Ang**2):
  XXX=           -232.2806  YYY=            -28.0811  ZZZ=            -19.4111  XYY=            -59.0085
  XXY=            -28.1534  XXZ=            -17.3113  XZZ=            -58.8588  YZZ=             -8.6134
  YYZ=             -2.9780  XYZ=              0.5479
 Hexadecapole moment (field-independent basis, Debye-Ang**3):
 XXXX=          -1196.1089 YYYY=            -94.6549 ZZZZ=            -61.7462 XXXY=           -175.5319
 XXXZ=           -107.8881 YYYX=            -88.4522 YYYZ=            -13.1301 ZZZX=            -58.3556
 ZZZY=            -19.9729 XXYY=           -190.8180 XXZZ=           -175.5818 YYZZ=            -21.7988
 XXYZ=            -14.0077 YYXZ=            -11.7877 ZZXY=            -27.7640
 N-N= 1.020311797422D+02 E-N=-1.370972373878D+03  KE= 4.916996290889D+02
                          Isotropic Fermi Contact Couplings
        Atom                 a.u.       MegaHertz       Gauss      10(-4) cm-1
     1  C(13)              0.00000       0.00000       0.00000       0.00000
     2  S(33)              0.00000       0.00000       0.00000       0.00000
     3  N(14)              0.00000       0.00000       0.00000       0.00000
     4  H(1)              -0.00000      -0.00000      -0.00000      -0.00000
     5  H(1)               0.00000       0.00000       0.00000       0.00000
     6  H(1)              -0.00000      -0.00000      -0.00000      -0.00000
 --------------------------------------------------------
       Center         ----  Spin Dipole Couplings  ----
                      3XX-RR        3YY-RR        3ZZ-RR
 --------------------------------------------------------
     1   Atom        0.000000     -0.000000     -0.000000
     2   Atom        0.000000     -0.000000     -0.000000
     3   Atom       -0.000000      0.000000     -0.000000
     4   Atom       -0.000000      0.000000      0.000000
     5   Atom        0.000000     -0.000000     -0.000000
     6   Atom       -0.000000      0.000000     -0.000000
 --------------------------------------------------------
                        XY            XZ            YZ
 --------------------------------------------------------
     1   Atom       -0.000000     -0.000000     -0.000000
     2   Atom       -0.000000     -0.000000      0.000000
     3   Atom        0.000000      0.000000     -0.000000
     4   Atom        0.000000      0.000000     -0.000000
     5   Atom       -0.000000     -0.000000     -0.000000
     6   Atom        0.000000      0.000000     -0.000000
 --------------------------------------------------------


 ---------------------------------------------------------------------------------
              Anisotropic Spin Dipole Couplings in Principal Axis System
 ---------------------------------------------------------------------------------

       Atom             a.u.   MegaHertz   Gauss  10(-4) cm-1        Axes

              Baa    -0.0000    -0.000    -0.000    -0.000  0.1963  0.8216  0.5352
     1 C(13)  Bbb     0.0000     0.000     0.000     0.000  0.0596 -0.5548  0.8299
              Bcc     0.0000     0.000     0.000     0.000  0.9787 -0.1310 -0.1579
 
              Baa    -0.0000    -0.000    -0.000    -0.000  0.0764  0.9408 -0.3303
     2 S(33)  Bbb    -0.0000    -0.000    -0.000    -0.000  0.2423  0.3038  0.9214
              Bcc     0.0000     0.000     0.000     0.000  0.9672 -0.1504 -0.2048
 
              Baa    -0.0000    -0.000    -0.000    -0.000  0.7598 -0.6001 -0.2503
     3 N(14)  Bbb    -0.0000    -0.000    -0.000    -0.000  0.2343 -0.1064  0.9663
              Bcc     0.0000     0.000     0.000     0.000  0.6065  0.7928 -0.0597
 
              Baa    -0.0000    -0.000    -0.000    -0.000  0.9268 -0.3191 -0.1979
     4 H(1)   Bbb     0.0000     0.000     0.000     0.000  0.3351  0.4653  0.8193
              Bcc     0.0000     0.000     0.000     0.000  0.1694  0.8257 -0.5381
 
              Baa    -0.0000    -0.000    -0.000    -0.000  0.5260  0.6948  0.4905
     5 H(1)   Bbb     0.0000     0.000     0.000     0.000 -0.1218 -0.5092  0.8520
              Bcc     0.0000     0.000     0.000     0.000  0.8417 -0.5079 -0.1832
 
              Baa    -0.0000    -0.000    -0.000    -0.000  0.7898 -0.2050 -0.5780
     6 H(1)   Bbb     0.0000     0.000     0.000     0.000  0.5194 -0.2775  0.8082
              Bcc     0.0000     0.000     0.000     0.000  0.3261  0.9386  0.1127
 

 ---------------------------------------------------------------------------------

 No NMR shielding tensors so no spin-rotation constants.
 Leave Link  601 at Tue Jan  3 09:21:28 2023, MaxMem=   536870912 cpu:               0.9 elap:               0.5
 (Enter /opt/software/gaussian/g16.c01/l9999.exe)

 Test job not archived.
 1\1\GINC-GRA704\Stability\UB3LYP\Gen\C1H3N1S1\BHAVUK\03-Jan-2023\0\\#p
  ub3lyp/gen stable=opt scf=(maxcycle=900,verytightlineq,xqc) integral=
 grid=ultrafine symmetry=None density=current iop(99/18=-1) output=wfn\
 \0004_q000_m01_k00_opt_uwb97xd_def2svpd/0004_q000_m01_k00_force_ub3lyp
 _def2qzvpd stable-force\\0,1\C,0,0.8882935141,0.1422345627,0.108926312
 3\S,0,2.5067242222,0.1041696479,0.0448895292\N,0,3.3032398974,1.229897
 4173,0.7707622237\H,0,0.3752741579,-0.6653344173,-0.4132293362\H,0,0.3
 242760911,0.9148647349,0.6338600998\H,0,2.7138421188,1.9201180545,1.24
 18511706\\Version=ES64L-G16RevC.01\HF=-492.8752411\S2=0.\S2-1=0.\S2A=0
 .\RMSD=7.801e-09\Dipole=-0.9912945,-0.096409,-0.0399127\Quadrupole=-6.
 765114,3.8989972,2.8661168,-2.3469274,-1.4113104,1.3424525\PG=Unknown\
 \@

 Writing a WFN file to "0004_q000_m01_k00_force_ub3lyp_def2qzvpd.wfn"


 TO DRY ONE'S EYES AND LAUGH AT A FALL
 AND BAFFLED, GET UP AND BEGIN AGAIN.
           R. BROWNING
 Job cpu time:       0 days  0 hours 30 minutes 46.8 seconds.
 Elapsed time:       0 days  0 hours 15 minutes 23.6 seconds.
 File lengths (MBytes):  RWF=    226 Int=      0 D2E=      0 Chk=     13 Scr=      1
 Normal termination of Gaussian 16 at Tue Jan  3 09:21:28 2023.
 Initial command:
 /opt/software/gaussian/g16.c01/l1.exe "/localscratch/bhavuk.2151392.0/Gau-20659.inp" -scrdir="/localscratch/bhavuk.2151392.0/"
 Entering Link 1 = /opt/software/gaussian/g16.c01/l1.exe PID=     10265.
  
 Copyright (c) 1988-2019, Gaussian, Inc.  All Rights Reserved.
  
 This is part of the Gaussian(R) 16 program.  It is based on
 the Gaussian(R) 09 system (copyright 2009, Gaussian, Inc.),
 the Gaussian(R) 03 system (copyright 2003, Gaussian, Inc.),
 the Gaussian(R) 98 system (copyright 1998, Gaussian, Inc.),
 the Gaussian(R) 94 system (copyright 1995, Gaussian, Inc.),
 the Gaussian 92(TM) system (copyright 1992, Gaussian, Inc.),
 the Gaussian 90(TM) system (copyright 1990, Gaussian, Inc.),
 the Gaussian 88(TM) system (copyright 1988, Gaussian, Inc.),
 the Gaussian 86(TM) system (copyright 1986, Carnegie Mellon
 University), and the Gaussian 82(TM) system (copyright 1983,
 Carnegie Mellon University). Gaussian is a federally registered
 trademark of Gaussian, Inc.
  
 This software contains proprietary and confidential information,
 including trade secrets, belonging to Gaussian, Inc.
  
 This software is provided under written license and may be
 used, copied, transmitted, or stored only in accord with that
 written license.
  
 The following legend is applicable only to US Government
 contracts under FAR:
  
                    RESTRICTED RIGHTS LEGEND
  
 Use, reproduction and disclosure by the US Government is
 subject to restrictions as set forth in subparagraphs (a)
 and (c) of the Commercial Computer Software - Restricted
 Rights clause in FAR 52.227-19.
  
 Gaussian, Inc.
 340 Quinnipiac St., Bldg. 40, Wallingford CT 06492
  
  
 ---------------------------------------------------------------
 Warning -- This program may not be used in any manner that
 competes with the business of Gaussian, Inc. or will provide
 assistance to any competitor of Gaussian, Inc.  The licensee
 of this program is prohibited from giving any competitor of
 Gaussian, Inc. access to this program.  By using this program,
 the user acknowledges that Gaussian, Inc. is engaged in the
 business of creating and licensing software in the field of
 computational chemistry and represents and warrants to the
 licensee that it is not a competitor of Gaussian, Inc. and that
 it will not use this program in any manner prohibited above.
 ---------------------------------------------------------------
  

 Cite this work as:
 Gaussian 16, Revision C.01,
 M. J. Frisch, G. W. Trucks, H. B. Schlegel, G. E. Scuseria, 
 M. A. Robb, J. R. Cheeseman, G. Scalmani, V. Barone, 
 G. A. Petersson, H. Nakatsuji, X. Li, M. Caricato, A. V. Marenich, 
 J. Bloino, B. G. Janesko, R. Gomperts, B. Mennucci, H. P. Hratchian, 
 J. V. Ortiz, A. F. Izmaylov, J. L. Sonnenberg, D. Williams-Young, 
 F. Ding, F. Lipparini, F. Egidi, J. Goings, B. Peng, A. Petrone, 
 T. Henderson, D. Ranasinghe, V. G. Zakrzewski, J. Gao, N. Rega, 
 G. Zheng, W. Liang, M. Hada, M. Ehara, K. Toyota, R. Fukuda, 
 J. Hasegawa, M. Ishida, T. Nakajima, Y. Honda, O. Kitao, H. Nakai, 
 T. Vreven, K. Throssell, J. A. Montgomery, Jr., J. E. Peralta, 
 F. Ogliaro, M. J. Bearpark, J. J. Heyd, E. N. Brothers, K. N. Kudin, 
 V. N. Staroverov, T. A. Keith, R. Kobayashi, J. Normand, 
 K. Raghavachari, A. P. Rendell, J. C. Burant, S. S. Iyengar, 
 J. Tomasi, M. Cossi, J. M. Millam, M. Klene, C. Adamo, R. Cammi, 
 J. W. Ochterski, R. L. Martin, K. Morokuma, O. Farkas, 
 J. B. Foresman, and D. J. Fox, Gaussian, Inc., Wallingford CT, 2019.
 
 ******************************************
 Gaussian 16:  ES64L-G16RevC.01  3-Jul-2019
                 3-Jan-2023 
 ******************************************
 %chk=0004_q000_m01_k00_force_ub3lyp_def2qzvpd.chk
 %nprocshared=2
 Will use up to    2 processors via shared memory.
 %mem=4GB
 ----------------------------------------------------------------------
 #p ub3lyp/chkbasis force guess=read geom=check scf=(maxcycle=900,veryt
 ightlineq,xqc) integral=grid=ultrafine symmetry=None density=current p
 op=(cm5,hlygat,mbs,npa) output=wfx
 ----------------------------------------------------------------------
 1/10=7,29=2,30=1,38=1/1,3;
 2/12=2,15=3,40=1/2;
 3/5=7,6=2,11=2,14=-4,25=1,30=1,67=1,71=1,74=-5,75=-5,116=2/1,2,3;
 4/5=1/1;
 5/5=2,7=900,8=3,13=1,17=3,38=6/2,8;
 6/7=2,8=2,9=2,10=2,15=8,20=15,22=-1,27=100,28=1,40=-1,79=1/1,2,7;
 7/29=1,30=1/1,2,3,16;
 1/10=7,30=1/3;
 99/6=200/99;
 Leave Link    1 at Tue Jan  3 09:21:28 2023, MaxMem=   536870912 cpu:               0.2 elap:               0.1
 (Enter /opt/software/gaussian/g16.c01/l101.exe)
 ----------------------------------------------------------------------
 0004_q000_m01_k00_opt_uwb97xd_def2svpd/0004_q000_m01_k00_force_ub3lyp_
 def2qzvpd stable-force
 ----------------------------------------------------------------------
 Structure from the checkpoint file:  "0004_q000_m01_k00_force_ub3lyp_def2qzvpd.chk"
 Charge =  0 Multiplicity = 1
 Z-Matrix found in chk file.
 C,0,0.8882935141,0.1422345627,0.1089263123
 S,0,2.5067242222,0.1041696479,0.0448895292
 N,0,3.3032398974,1.2298974173,0.7707622237
 H,0,0.3752741579,-0.6653344173,-0.4132293362
 H,0,0.3242760911,0.9148647349,0.6338600998
 H,0,2.7138421188,1.9201180545,1.2418511706
 Recover connectivity data from disk.
 ITRead=  0  0  0  0  0  0
 MicOpt= -1 -1 -1 -1 -1 -1
 NAtoms=      6 NQM=        6 NQMF=       0 NMMI=      0 NMMIF=      0
                NMic=       0 NMicF=      0.
                    Isotopes and Nuclear Properties:
 (Nuclear quadrupole moments (NQMom) in fm**2, nuclear magnetic moments (NMagM)
  in nuclear magnetons)

  Atom         1           2           3           4           5           6
 IAtWgt=          12          32          14           1           1           1
 AtmWgt=  12.0000000  31.9720718  14.0030740   1.0078250   1.0078250   1.0078250
 NucSpn=           0           0           2           1           1           1
 AtZEff=   3.6000000  13.6000000   4.5500000   1.0000000   1.0000000   1.0000000
 NQMom=    0.0000000   0.0000000   2.0440000   0.0000000   0.0000000   0.0000000
 NMagM=    0.0000000   0.0000000   0.4037610   2.7928460   2.7928460   2.7928460
 AtZNuc=   6.0000000  16.0000000   7.0000000   1.0000000   1.0000000   1.0000000
 Leave Link  101 at Tue Jan  3 09:21:28 2023, MaxMem=   536870912 cpu:               0.4 elap:               0.2
 (Enter /opt/software/gaussian/g16.c01/l103.exe)

 GradGradGradGradGradGradGradGradGradGradGradGradGradGradGradGradGradGrad
 Berny optimization.
 Initialization pass.
 Trust Radius=3.00D-01 FncErr=1.00D-07 GrdErr=1.00D-07 EigMax=2.50D+02 EigMin=1.00D-04
 Number of steps in this run=      2 maximum allowed number of steps=      2.
 GradGradGradGradGradGradGradGradGradGradGradGradGradGradGradGradGradGrad

 Leave Link  103 at Tue Jan  3 09:21:28 2023, MaxMem=   536870912 cpu:               0.1 elap:               0.0
 (Enter /opt/software/gaussian/g16.c01/l202.exe)
                          Input orientation:                          
 ---------------------------------------------------------------------
 Center     Atomic      Atomic             Coordinates (Angstroms)
 Number     Number       Type             X           Y           Z
 ---------------------------------------------------------------------
      1          6           0        0.888294    0.142235    0.108926
      2         16           0        2.506724    0.104170    0.044890
      3          7           0        3.303240    1.229897    0.770762
      4          1           0        0.375274   -0.665334   -0.413229
      5          1           0        0.324276    0.914865    0.633860
      6          1           0        2.713842    1.920118    1.241851
 ---------------------------------------------------------------------
                    Distance matrix (angstroms):
                    1          2          3          4          5
     1  C    0.000000
     2  S    1.620144   0.000000
     3  N    2.730019   1.558394   0.000000
     4  H    1.089956   2.311945   3.683303   0.000000
     5  H    1.091159   2.401498   2.998702   1.896319   0.000000
     6  H    2.788730   2.184785   1.022604   3.859113   2.662745
                    6
     6  H    0.000000
 Symmetry turned off by external request.
 Stoichiometry    CH3NS
 Rotational constants (GHZ):          36.3131241           8.8290023           7.1022055
 Leave Link  202 at Tue Jan  3 09:21:29 2023, MaxMem=   536870912 cpu:               0.0 elap:               0.0
 (Enter /opt/software/gaussian/g16.c01/l301.exe)
 Basis read from chk: "0004_q000_m01_k00_force_ub3lyp_def2qzvpd.chk" (5D, 7F)
 No pseudopotential information found on chk file.
   304 basis functions,   452 primitive gaussians,   368 cartesian basis functions
    16 alpha electrons       16 beta electrons
       nuclear repulsion energy       102.0311797422 Hartrees.
 IExCor=  402 DFT=T Ex+Corr=B3LYP ExCW=0 ScaHFX=  0.200000
 ScaDFX=  0.800000  0.720000  1.000000  0.810000 ScalE2=  1.000000  1.000000
 IRadAn=      5 IRanWt=     -1 IRanGd=            0 ICorTp=0 IEmpDi=  4
 NAtoms=    6 NActive=    6 NUniq=    6 SFac= 1.00D+00 NAtFMM=   60 NAOKFM=F Big=F
 Integral buffers will be    131072 words long.
 Raffenetti 2 integral format.
 Two-electron integral symmetry is turned off.
 No density basis found on file  20724.
 Leave Link  301 at Tue Jan  3 09:21:29 2023, MaxMem=   536870912 cpu:               0.1 elap:               0.1
 (Enter /opt/software/gaussian/g16.c01/l302.exe)
 NPDir=0 NMtPBC=     1 NCelOv=     1 NCel=       1 NClECP=     1 NCelD=      1
         NCelK=      1 NCelE2=     1 NClLst=     1 CellRange=     0.0.
 One-electron integrals computed using PRISM.
 NBasis=   304 RedAO= T EigKep=  5.84D-06  NBF=   304
 NBsUse=   304 1.00D-06 EigRej= -1.00D+00 NBFU=   304
 Precomputing XC quadrature grid using
 IXCGrd= 4 IRadAn=           5 IRanWt=          -1 IRanGd=           0 AccXCQ= 0.00D+00.
 Generated NRdTot=       0 NPtTot=           0 NUsed=           0 NTot=          32
 NSgBfM=   367   367   367   367   367 MxSgAt=     6 MxSgA2=     6.
 Leave Link  302 at Tue Jan  3 09:21:29 2023, MaxMem=   536870912 cpu:               0.5 elap:               0.3
[...]
   218    H    4  pz     Ryd( 2p)     0.00069       0.39727
   219    H    4  pz     Ryd( 3p)     0.00012       2.63851
   220    H    4  pz     Ryd( 4p)     0.00000       2.95355
   221    H    4  pz     Ryd( 5p)     0.00000       7.53459
   222    H    4  dxy    Ryd( 3d)     0.00001       3.46274
   223    H    4  dxy    Ryd( 4d)     0.00000       8.48684
   224    H    4  dxz    Ryd( 3d)     0.00001       3.05089
   225    H    4  dxz    Ryd( 4d)     0.00000       8.25150
   226    H    4  dyz    Ryd( 3d)     0.00001       3.40864
   227    H    4  dyz    Ryd( 4d)     0.00000       8.52600
   228    H    4  dx2y2  Ryd( 3d)     0.00001       3.54940
   229    H    4  dx2y2  Ryd( 4d)     0.00000       8.48795
   230    H    4  dz2    Ryd( 3d)     0.00000       3.16031
   231    H    4  dz2    Ryd( 4d)     0.00000       8.30432
   232    H    4  f(0)   Ryd( 4f)     0.00001       6.39112
   233    H    4  f(C1)  Ryd( 4f)     0.00000       6.35582
   234    H    4  f(S1)  Ryd( 4f)     0.00000       6.55544
   235    H    4  f(C2)  Ryd( 4f)     0.00001       6.50661
   236    H    4  f(S2)  Ryd( 4f)     0.00002       6.37526
   237    H    4  f(C3)  Ryd( 4f)     0.00001       6.56070
   238    H    4  f(S3)  Ryd( 4f)     0.00000       6.63031
 
   239    H    5  S      Val( 1S)     0.38593       0.00497
   240    H    5  S      Ryd( 3S)     0.00039       1.62724
   241    H    5  S      Ryd( 2S)     0.00002       1.60750
   242    H    5  S      Ryd( 4S)     0.00000       5.14167
   243    H    5  px     Ryd( 2p)     0.00021       0.73243
   244    H    5  px     Ryd( 3p)     0.00003       2.73880
   245    H    5  px     Ryd( 4p)     0.00002       2.74863
   246    H    5  px     Ryd( 5p)     0.00000       8.00782
   247    H    5  py     Ryd( 2p)     0.00075       0.71507
   248    H    5  py     Ryd( 3p)     0.00014       2.74243
   249    H    5  py     Ryd( 4p)     0.00000       3.26529
   250    H    5  py     Ryd( 5p)     0.00000       8.06768
   251    H    5  pz     Ryd( 2p)     0.00035       0.65598
   252    H    5  pz     Ryd( 3p)     0.00015       2.49692
   253    H    5  pz     Ryd( 4p)     0.00000       2.55298
   254    H    5  pz     Ryd( 5p)     0.00000       7.84014
   255    H    5  dxy    Ryd( 3d)     0.00001       3.66824
   256    H    5  dxy    Ryd( 4d)     0.00000       8.27696
   257    H    5  dxz    Ryd( 3d)     0.00001       3.32049
   258    H    5  dxz    Ryd( 4d)     0.00000       8.06733
   259    H    5  dyz    Ryd( 3d)     0.00001       3.62814
   260    H    5  dyz    Ryd( 4d)     0.00001       8.24504
   261    H    5  dx2y2  Ryd( 3d)     0.00001       3.81281
   262    H    5  dx2y2  Ryd( 4d)     0.00000       8.25521
   263    H    5  dz2    Ryd( 3d)     0.00000       3.39862
   264    H    5  dz2    Ryd( 4d)     0.00000       8.06396
   265    H    5  f(0)   Ryd( 4f)     0.00001       6.38746
   266    H    5  f(C1)  Ryd( 4f)     0.00000       6.37899
   267    H    5  f(S1)  Ryd( 4f)     0.00000       6.52259
   268    H    5  f(C2)  Ryd( 4f)     0.00001       6.52722
   269    H    5  f(S2)  Ryd( 4f)     0.00002       6.35237
   270    H    5  f(C3)  Ryd( 4f)     0.00001       6.55978
   271    H    5  f(S3)  Ryd( 4f)     0.00001       6.62413
 
   272    H    6  S      Val( 1S)     0.32052       0.06056
   273    H    6  S      Ryd( 3S)     0.00028       1.52873
   274    H    6  S      Ryd( 4S)     0.00011       4.92904
   275    H    6  S      Ryd( 2S)     0.00001       1.16541
   276    H    6  px     Ryd( 2p)     0.00023       1.12499
   277    H    6  px     Ryd( 4p)     0.00015       3.18340
   278    H    6  px     Ryd( 3p)     0.00002       3.15283
   279    H    6  px     Ryd( 5p)     0.00000       7.80103
   280    H    6  py     Ryd( 2p)     0.00024       1.19590
   281    H    6  py     Ryd( 4p)     0.00019       3.39675
   282    H    6  py     Ryd( 3p)     0.00003       3.35038
   283    H    6  py     Ryd( 5p)     0.00000       7.84063
   284    H    6  pz     Ryd( 2p)     0.00037       0.94210
   285    H    6  pz     Ryd( 4p)     0.00010       3.03410
   286    H    6  pz     Ryd( 3p)     0.00002       2.71595
   287    H    6  pz     Ryd( 5p)     0.00000       7.58725
   288    H    6  dxy    Ryd( 3d)     0.00003       3.31315
   289    H    6  dxy    Ryd( 4d)     0.00001       8.64660
   290    H    6  dxz    Ryd( 3d)     0.00002       3.01180
   291    H    6  dxz    Ryd( 4d)     0.00001       8.35143
   292    H    6  dyz    Ryd( 3d)     0.00007       3.29342
   293    H    6  dyz    Ryd( 4d)     0.00001       8.50814
   294    H    6  dx2y2  Ryd( 3d)     0.00008       3.17788
   295    H    6  dx2y2  Ryd( 4d)     0.00000       8.53597
   296    H    6  dz2    Ryd( 3d)     0.00005       2.98351
   297    H    6  dz2    Ryd( 4d)     0.00000       8.30952
   298    H    6  f(0)   Ryd( 4f)     0.00001       6.39806
   299    H    6  f(C1)  Ryd( 4f)     0.00000       6.42502
   300    H    6  f(S1)  Ryd( 4f)     0.00000       6.49712
   301    H    6  f(C2)  Ryd( 4f)     0.00000       6.54382
   302    H    6  f(S2)  Ryd( 4f)     0.00002       6.38291
   303    H    6  f(C3)  Ryd( 4f)     0.00001       6.62600
   304    H    6  f(S3)  Ryd( 4f)     0.00001       6.63727

 WARNING:  Population inversion found on atom  C    1
           Population inversion found on atom  S    2
           Population inversion found on atom  H    4
           Population inversion found on atom  H    5
           Population inversion found on atom  H    6


 Summary of Natural Population Analysis:                  
                                                          
                                       Natural Population 
                Natural  -----------------------------------------------
    Atom  No    Charge         Core      Valence    Rydberg      Total
 -----------------------------------------------------------------------
      C    1   -0.39884      0.99978     2.38548    0.01357     3.39884
      S    2    0.49304      4.99928     2.44549    0.06219     7.50696
      N    3   -0.50009      0.99986     2.97579    0.02445     4.00009
      H    4    0.11663      0.00000     0.38093    0.00243     0.38337
      H    5    0.11188      0.00000     0.38593    0.00219     0.38812
      H    6    0.17739      0.00000     0.32052    0.00210     0.32261
 =======================================================================
   * Total *   -0.00000      6.99892     8.89415    0.10693    16.00000

                                 Natural Population      
 --------------------------------------------------------
   Core                       6.99892 ( 99.9846% of   7)
   Valence                    8.89415 ( 98.8239% of   9)
   Natural Minimal Basis     15.89307 ( 99.3317% of  16)
   Natural Rydberg Basis      0.10693 (  0.6683% of  16)
 --------------------------------------------------------

    Atom  No          Natural Electron Configuration
 ----------------------------------------------------------------------------
      C    1      [core]2S( 0.59)2p( 1.79)4d( 0.01)
      S    2      [core]3S( 0.77)3p( 1.68)4S( 0.01)4d( 0.04)5p( 0.01)
      N    3      [core]2S( 0.80)2p( 2.18)3d( 0.02)
      H    4            1S( 0.38)
      H    5            1S( 0.39)
      H    6            1S( 0.32)


 NBO analysis skipped by request.
 Leave Link  607 at Tue Jan  3 09:21:59 2023, MaxMem=   536870912 cpu:               3.9 elap:               2.0
 (Enter /opt/software/gaussian/g16.c01/l701.exe)
 ... and contract with generalized density number  0.
 Compute integral first derivatives.
 Leave Link  701 at Tue Jan  3 09:22:00 2023, MaxMem=   536870912 cpu:               0.5 elap:               0.3
 (Enter /opt/software/gaussian/g16.c01/l702.exe)
 L702 exits ... SP integral derivatives will be done elsewhere.
 Leave Link  702 at Tue Jan  3 09:22:00 2023, MaxMem=   536870912 cpu:               0.1 elap:               0.0
 (Enter /opt/software/gaussian/g16.c01/l703.exe)
 Integral derivatives from FoFJK, PRISM(SPDF).
 Compute integral first derivatives, UseDBF=F ICtDFT=           0.
 Calling FoFJK, ICntrl=      2127 FMM=F ISym2X=0 I1Cent= 0 IOpClX= 1 NMat=1 NMatS=1 NMatT=0.
 FoFJK:  IHMeth= 1 ICntrl=    2127 DoSepK=F KAlg= 0 I1Cent=           0 FoldK=F
 IRaf=         0 NMat=       1 IRICut=       1 DoRegI=T DoRafI=F ISym2E= 0 IDoP0=0 IntGTp=1.
 FoFCou: FMM=F IPFlag=           0 FMFlag=      100000 FMFlg1=         800
         NFxFlg=           0 DoJE=F BraDBF=F KetDBF=F FulRan=T
         wScrn=  0.000000 ICntrl=      2127 IOpCl=  1 I1Cent=           0 NGrid=           0
         NMat0=    1 NMatS0=      1 NMatT0=    0 NMatD0=    1 NMtDS0=    0 NMtDT0=    0
 Symmetry not used in FoFCou.
 Leave Link  703 at Tue Jan  3 09:23:49 2023, MaxMem=   536870912 cpu:             218.9 elap:             109.5
 (Enter /opt/software/gaussian/g16.c01/l716.exe)
 Dipole        =-9.91291780D-01-9.64066311D-02-3.99112132D-02
 -------------------------------------------------------------------
 Center     Atomic                   Forces (Hartrees/Bohr)
 Number     Number              X              Y              Z
 -------------------------------------------------------------------
      1        6          -0.003205011   -0.001256679   -0.000751628
      2       16          -0.000381176    0.007694828    0.005095160
      3        7          -0.003855565   -0.003995986   -0.002546735
      4        1           0.002619252    0.005447153    0.003543242
      5        1           0.003156913   -0.005648994   -0.003815402
      6        1           0.001665588   -0.002240322   -0.001524638
 -------------------------------------------------------------------
 Cartesian Forces:  Max     0.007694828 RMS     0.003731924
 Z-matrix is all fixed cartesians, so copy forces.
 Force constants in Cartesian coordinates: 
                1             2             3             4             5 
      1  0.814685D+00
      2 -0.103178D-01  0.489891D+00
      3 -0.236660D-01  0.249297D+00  0.279166D+00
      4 -0.473219D+00  0.285194D-01  0.292131D-01  0.664394D+00
      5  0.961866D-02 -0.824860D-01 -0.267353D-01  0.176381D+00  0.396780D+00
      6  0.167037D-01 -0.271885D-01 -0.608333D-01  0.101780D+00  0.230703D+00
      7 -0.980132D-03 -0.200337D-01 -0.128629D-01 -0.210895D+00 -0.175482D+00
      8  0.308076D-03  0.143332D-01 -0.733807D-03 -0.217229D+00 -0.336130D+00
      9  0.597737D-03 -0.245367D-03  0.152527D-01 -0.139479D+00 -0.196571D+00
     10 -0.163349D+00 -0.915366D-01 -0.575233D-01 -0.926052D-03 -0.186700D-01
     11 -0.836129D-01 -0.214907D+00 -0.116374D+00  0.389598D-03  0.844345D-02
     12 -0.522783D-01 -0.116182D+00 -0.111677D+00  0.307294D-03  0.528464D-02
     13 -0.177134D+00  0.932947D-01  0.649511D-01  0.905791D-03  0.178651D-01
     14  0.839304D-01 -0.204801D+00 -0.108521D+00  0.246077D-03  0.152696D-01
     15  0.587541D-01 -0.108748D+00 -0.117275D+00  0.611040D-03 -0.327945D-02
     16 -0.268673D-05  0.740782D-04 -0.111937D-03  0.197412D-01 -0.971277D-02
     17  0.736242D-04 -0.202996D-02  0.306739D-02  0.116927D-01 -0.187726D-02
     18 -0.111233D-03  0.306689D-02 -0.463426D-02  0.756733D-02 -0.940153D-02
                6             7             8             9            10 
      6  0.192015D+00
      7 -0.111851D+00  0.406134D+00
      8 -0.195565D+00  0.534271D-01  0.531518D+00
      9 -0.159476D+00  0.263756D-01  0.328043D+00  0.250445D+00
     10 -0.123067D-01  0.228968D-05 -0.631307D-04  0.953945D-04  0.135830D+00
     11  0.482750D-02 -0.631368D-04  0.174080D-02 -0.263045D-02  0.957457D-01
     12  0.462508D-02  0.953981D-04 -0.263030D-02  0.397455D-02  0.605513D-01
     13  0.122731D-01 -0.247110D-05  0.681327D-04 -0.102953D-03  0.284430D-01
     14 -0.285735D-02  0.681506D-04 -0.187904D-02  0.283934D-02  0.145241D-01
     15  0.173925D-01 -0.102963D-03  0.283889D-02 -0.428974D-02  0.918329D-02
     16 -0.659932D-02 -0.194258D+00  0.163489D+00  0.112513D+00  0.000000D+00
     17 -0.991929D-02  0.142084D+00 -0.209584D+00 -0.131436D+00  0.000000D+00
     18  0.627668D-02  0.983460D-01 -0.131953D+00 -0.105907D+00  0.000000D+00
               11            12            13            14            15 
     11  0.207851D+00
     12  0.122960D+00  0.985155D-01
     13 -0.124593D-01 -0.867575D-02  0.147787D+00
     14 -0.312790D-02 -0.943229D-02 -0.987686D-01  0.194538D+00
     15 -0.878307D-02  0.456134D-02 -0.684455D-01  0.117972D+00  0.996107D-01
     16  0.000000D+00  0.000000D+00  0.000000D+00  0.000000D+00  0.000000D+00
     17  0.000000D+00  0.000000D+00  0.000000D+00  0.000000D+00  0.000000D+00
     18  0.000000D+00  0.000000D+00  0.000000D+00  0.000000D+00  0.000000D+00
               16            17            18 
     16  0.174519D+00
     17 -0.153850D+00  0.213491D+00
     18 -0.105802D+00  0.138288D+00  0.104265D+00
 Leave Link  716 at Tue Jan  3 09:23:49 2023, MaxMem=   536870912 cpu:               0.1 elap:               0.1
 (Enter /opt/software/gaussian/g16.c01/l103.exe)

 GradGradGradGradGradGradGradGradGradGradGradGradGradGradGradGradGradGrad
 Berny optimization.
 Search for a local minimum.
 Step number   1 out of a maximum of    2
 All quantities printed in internal units (Hartrees-Bohrs-Radians)
 Second derivative matrix not updated -- first step.
 The second derivative matrix:
                          X1        Y1        Z1        X2        Y2
           X1           0.81469
           Y1          -0.01032   0.48989
           Z1          -0.02367   0.24930   0.27917
           X2          -0.47322   0.02852   0.02921   0.66439
           Y2           0.00962  -0.08249  -0.02674   0.17638   0.39678
           Z2           0.01670  -0.02719  -0.06083   0.10178   0.23070
           X3          -0.00098  -0.02003  -0.01286  -0.21090  -0.17548
           Y3           0.00031   0.01433  -0.00073  -0.21723  -0.33613
           Z3           0.00060  -0.00025   0.01525  -0.13948  -0.19657
           X4          -0.16335  -0.09154  -0.05752  -0.00093  -0.01867
           Y4          -0.08361  -0.21491  -0.11637   0.00039   0.00844
           Z4          -0.05228  -0.11618  -0.11168   0.00031   0.00528
           X5          -0.17713   0.09329   0.06495   0.00091   0.01787
           Y5           0.08393  -0.20480  -0.10852   0.00025   0.01527
           Z5           0.05875  -0.10875  -0.11727   0.00061  -0.00328
           X6          -0.00000   0.00007  -0.00011   0.01974  -0.00971
           Y6           0.00007  -0.00203   0.00307   0.01169  -0.00188
           Z6          -0.00011   0.00307  -0.00463   0.00757  -0.00940
                          Z2        X3        Y3        Z3        X4
           Z2           0.19201
           X3          -0.11185   0.40613
           Y3          -0.19556   0.05343   0.53152
           Z3          -0.15948   0.02638   0.32804   0.25045
           X4          -0.01231   0.00000  -0.00006   0.00010   0.13583
           Y4           0.00483  -0.00006   0.00174  -0.00263   0.09575
           Z4           0.00463   0.00010  -0.00263   0.00397   0.06055
           X5           0.01227  -0.00000   0.00007  -0.00010   0.02844
           Y5          -0.00286   0.00007  -0.00188   0.00284   0.01452
           Z5           0.01739  -0.00010   0.00284  -0.00429   0.00918
           X6          -0.00660  -0.19426   0.16349   0.11251   0.00000
           Y6          -0.00992   0.14208  -0.20958  -0.13144   0.00000
           Z6           0.00628   0.09835  -0.13195  -0.10591   0.00000
                          Y4        Z4        X5        Y5        Z5
           Y4           0.20785
           Z4           0.12296   0.09852
           X5          -0.01246  -0.00868   0.14779
           Y5          -0.00313  -0.00943  -0.09877   0.19454
           Z5          -0.00878   0.00456  -0.06845   0.11797   0.09961
           X6           0.00000   0.00000   0.00000   0.00000   0.00000
           Y6           0.00000   0.00000   0.00000   0.00000   0.00000
           Z6           0.00000   0.00000   0.00000   0.00000   0.00000
                          X6        Y6        Z6
           X6           0.17452
           Y6          -0.15385   0.21349
           Z6          -0.10580   0.13829   0.10426
 ITU=  0
     Eigenvalues ---    0.01003   0.01738   0.04698   0.06571   0.11631
     Eigenvalues ---    0.13625   0.18094   0.33456   0.69321   0.85789
     Eigenvalues ---    1.12959   1.46007
 Angle between quadratic step and forces=  56.63 degrees.
 Linear search not attempted -- first point.
 B after Tr=    -0.004148    0.005579    0.003783
         Rot=    1.000000   -0.000004   -0.000079    0.000116 Ang=  -0.02 deg.
 Variable       Old X    -DE/DX   Delta X   Delta X   Delta X     New X
                                 (Linear)    (Quad)   (Total)
    X1        1.67863  -0.00321   0.00000  -0.00694  -0.01099   1.66764
    Y1        0.26878  -0.00126   0.00000  -0.00622  -0.00103   0.26776
    Z1        0.20584  -0.00075   0.00000  -0.00394  -0.00042   0.20542
    X2        4.73702  -0.00038   0.00000  -0.01137  -0.01545   4.72157
    Y2        0.19685   0.00769   0.00000   0.01670   0.02118   0.21804
    Z2        0.08483   0.00510   0.00000   0.01128   0.01432   0.09915
    X3        6.24222  -0.00386   0.00000   0.01311   0.00973   6.25194
    Y3        2.32417  -0.00400   0.00000  -0.00734  -0.00322   2.32095
    Z3        1.45653  -0.00255   0.00000  -0.00511  -0.00230   1.45423
    X4        0.70917   0.00262   0.00000   0.01344   0.00888   0.71804
    Y4       -1.25730   0.00545   0.00000   0.00382   0.00924  -1.24806
    Z4       -0.78089   0.00354   0.00000   0.00228   0.00594  -0.77495
    X5        0.61279   0.00316   0.00000  -0.01834  -0.02191   0.59088
    Y5        1.72884  -0.00565   0.00000  -0.03305  -0.02761   1.70123
    Z5        1.19782  -0.00382   0.00000  -0.02146  -0.01776   1.18006
    X6        5.12842   0.00167   0.00000   0.03269   0.02975   5.15817
    Y6        3.62850  -0.00224   0.00000  -0.00292   0.00144   3.62994
    Z6        2.34676  -0.00152   0.00000  -0.00277   0.00022   2.34698
         Item               Value     Threshold  Converged?
 Maximum Force            0.007695     0.000450     NO 
 RMS     Force            0.003732     0.000300     NO 
 Maximum Displacement     0.029754     0.001800     NO 
 RMS     Displacement     0.014472     0.001200     NO 
 Predicted change in Energy=-2.775716D-04
 GradGradGradGradGradGradGradGradGradGradGradGradGradGradGradGradGradGrad

 Leave Link  103 at Tue Jan  3 09:23:49 2023, MaxMem=   536870912 cpu:               0.1 elap:               0.0
 (Enter /opt/software/gaussian/g16.c01/l9999.exe)
 Unable to Open any file for archive entry.
 1\1\GINC-GRA704\Force\UB3LYP\Gen\C1H3N1S1\BHAVUK\03-Jan-2023\0\\#p ub3
 lyp/chkbasis force guess=read geom=check scf=(maxcycle=900,verytightli
 neq,xqc) integral=grid=ultrafine symmetry=None density=current pop=(cm
 5,hlygat,mbs,npa) output=wfx\\0004_q000_m01_k00_opt_uwb97xd_def2svpd/0
 004_q000_m01_k00_force_ub3lyp_def2qzvpd stable-force\\0,1\C,0.88829351
 41,0.1422345627,0.1089263123\S,2.5067242222,0.1041696479,0.0448895292\
 N,3.3032398974,1.2298974173,0.7707622237\H,0.3752741579,-0.6653344173,
 -0.4132293362\H,0.3242760911,0.9148647349,0.6338600998\H,2.7138421188,
 1.9201180545,1.2418511706\\Version=ES64L-G16RevC.01\HF=-492.8752411\S2
 =0.\S2-1=0.\S2A=0.\RMSD=2.497e-09\RMSF=3.732e-03\Dipole=-0.9912918,-0.
 0964066,-0.0399112\Quadrupole=-6.7650944,3.8989893,2.8661051,-2.346912
 5,-1.4113013,1.3424565\PG=Unknown\\@
 The archive entry for this job was punched.

 Writing a WFNX file to "0004_q000_m01_k00_force_ub3lyp_def2qzvpd.wfx"


 A true friend is someone who is there for
 you when he'd rather be anywhere else.
                               -- Len Wein
 Job cpu time:       0 days  0 hours  4 minutes 41.5 seconds.
 Elapsed time:       0 days  0 hours  2 minutes 20.5 seconds.
 File lengths (MBytes):  RWF=     91 Int=      0 D2E=      0 Chk=     13 Scr=      1
 Normal termination of Gaussian 16 at Tue Jan  3 09:23:49 2023.
