 Entering Gaussian System, Link 0=g16
 Input=0004_q000_m01_k00_force_uhf_def2qzvpd.com
 Output=0004_q000_m01_k00_force_uhf_def2qzvpd.log
 Initial command:
 /opt/software/gaussian/g16.c01/l1.exe "/localscratch/bhavuk.2151399.0/Gau-6881.inp" -scrdir="/localscratch/bhavuk.2151399.0/"
 Entering Link 1 = /opt/software/gaussian/g16.c01/l1.exe PID=      6882.
  
 Copyright (c) 1988-2019, Gaussian, Inc.  All Rights Reserved.
  
 This is part of the Gaussian(R) 16 program.  It is based on
 the Gaussian(R) 09 system (copyright 2009, Gaussian, Inc.),
 the Gaussian(R) 03 system (copyright 2003, Gaussian, Inc.),
 the Gaussian(R) 98 system (copyright 1998, Gaussian, Inc.),
 the Gaussian(R) 94 system (copyright 1995, Gaussian, Inc.),
 the Gaussian 92(TM) system (copyright 1992, Gaussian, Inc.),
 the Gaussian 90(TM) system (copyright 1990, Gaussian, Inc.),
 the Gaussian 88(TM) system (copyright 1988, Gaussian, Inc.),
 the Gaussian 86(TM) system (copyright 1986, Carnegie Mellon
 University), and the Gaussian 82(TM) system (copyright 1983,
 Carnegie Mellon University). Gaussian is a federally registered
 trademark of Gaussian, Inc.
  
 This software contains proprietary and confidential information,
 including trade secrets, belonging to Gaussian, Inc.
  
 This software is provided under written license and may be
 used, copied, transmitted, or stored only in accord with that
 written license.
  
 The following legend is applicable only to US Government
 contracts under FAR:
  
                    RESTRICTED RIGHTS LEGEND
  
 Use, reproduction and disclosure by the US Government is
 subject to restrictions as set forth in subparagraphs (a)
 and (c) of the Commercial Computer Software - Restricted
 Rights clause in FAR 52.227-19.
  
 Gaussian, Inc.
 340 Quinnipiac St., Bldg. 40, Wallingford CT 06492
  
  
 ---------------------------------------------------------------
 Warning -- This program may not be used in any manner that
 competes with the business of Gaussian, Inc. or will provide
 assistance to any competitor of Gaussian, Inc.  The licensee
 of this program is prohibited from giving any competitor of
 Gaussian, Inc. access to this program.  By using this program,
 the user acknowledges that Gaussian, Inc. is engaged in the
 business of creating and licensing software in the field of
 computational chemistry and represents and warrants to the
 licensee that it is not a competitor of Gaussian, Inc. and that
 it will not use this program in any manner prohibited above.
 ---------------------------------------------------------------
  

 Cite this work as:
 Gaussian 16, Revision C.01,
 M. J. Frisch, G. W. Trucks, H. B. Schlegel, G. E. Scuseria, 
 M. A. Robb, J. R. Cheeseman, G. Scalmani, V. Barone, 
 G. A. Petersson, H. Nakatsuji, X. Li, M. Caricato, A. V. Marenich, 
 J. Bloino, B. G. Janesko, R. Gomperts, B. Mennucci, H. P. Hratchian, 
 J. V. Ortiz, A. F. Izmaylov, J. L. Sonnenberg, D. Williams-Young, 
 F. Ding, F. Lipparini, F. Egidi, J. Goings, B. Peng, A. Petrone, 
 T. Henderson, D. Ranasinghe, V. G. Zakrzewski, J. Gao, N. Rega, 
 G. Zheng, W. Liang, M. Hada, M. Ehara, K. Toyota, R. Fukuda, 
 J. Hasegawa, M. Ishida, T. Nakajima, Y. Honda, O. Kitao, H. Nakai, 
 T. Vreven, K. Throssell, J. A. Montgomery, Jr., J. E. Peralta, 
 F. Ogliaro, M. J. Bearpark, J. J. Heyd, E. N. Brothers, K. N. Kudin, 
 V. N. Staroverov, T. A. Keith, R. Kobayashi, J. Normand, 
 K. Raghavachari, A. P. Rendell, J. C. Burant, S. S. Iyengar, 
 J. Tomasi, M. Cossi, J. M. Millam, M. Klene, C. Adamo, R. Cammi, 
 J. W. Ochterski, R. L. Martin, K. Morokuma, O. Farkas, 
 J. B. Foresman, and D. J. Fox, Gaussian, Inc., Wallingford CT, 2019.
 
 ******************************************
 Gaussian 16:  ES64L-G16RevC.01  3-Jul-2019
                 3-Jan-2023 
 ******************************************
 %chk=0004_q000_m01_k00_force_uhf_def2qzvpd.chk
 %nprocshared=2
 Will use up to    2 processors via shared memory.
 %mem=4GB
 ----------------------------------------------------------------------
 #p uhf/gen stable=opt scf=(maxcycle=900,verytightlineq,xqc) integral=g
 rid=ultrafine symmetry=None density=current iop(99/18=-1) output=wfn
 ----------------------------------------------------------------------
 1/38=1,172=1/1;
 2/12=2,15=3,17=6,18=5,40=1/2;
 3/5=7,11=2,25=1,30=1,75=-5,116=2/1,2,3;
 4//1;
 5/5=2,7=900,8=3,13=1,17=3,38=5/2,8;
 6/7=2,8=2,9=2,10=2,22=-1,28=1/1;
 8/6=1,10=90,11=11/1;
 9/8=-3,42=1,46=1/14;
 5/5=2,7=900,8=3,17=43,38=5/8(-2);
 6/7=2,8=2,9=2,10=2,22=-1,28=1/1;
 99/5=1,6=100,9=1,18=-1/99;
 Leave Link    1 at Tue Jan  3 09:06:23 2023, MaxMem=   536870912 cpu:               0.1 elap:               0.1
 (Enter /opt/software/gaussian/g16.c01/l101.exe)
 ----------------------------------------------------------------------
 0004_q000_m01_k00_opt_uwb97xd_def2svpd/0004_q000_m01_k00_force_uhf_def
 2qzvpd stable-force
 ----------------------------------------------------------------------
 Symbolic Z-matrix:
 Charge =  0 Multiplicity = 1
 C                     0.88829   0.14223   0.10893 
 S                     2.50672   0.10417   0.04489 
 N                     3.30324   1.2299    0.77076 
 H                     0.37527  -0.66533  -0.41323 
 H                     0.32428   0.91486   0.63386 
 H                     2.71384   1.92012   1.24185 
 
 ITRead=  0  0  0  0  0  0
 MicOpt= -1 -1 -1 -1 -1 -1
 NAtoms=      6 NQM=        6 NQMF=       0 NMMI=      0 NMMIF=      0
                NMic=       0 NMicF=      0.
                    Isotopes and Nuclear Properties:
 (Nuclear quadrupole moments (NQMom) in fm**2, nuclear magnetic moments (NMagM)
  in nuclear magnetons)

  Atom         1           2           3           4           5           6
 IAtWgt=          12          32          14           1           1           1
 AtmWgt=  12.0000000  31.9720718  14.0030740   1.0078250   1.0078250   1.0078250
 NucSpn=           0           0           2           1           1           1
 AtZEff=  -0.0000000  -0.0000000  -0.0000000  -0.0000000  -0.0000000  -0.0000000
 NQMom=    0.0000000   0.0000000   2.0440000   0.0000000   0.0000000   0.0000000
 NMagM=    0.0000000   0.0000000   0.4037610   2.7928460   2.7928460   2.7928460
 AtZNuc=   6.0000000  16.0000000   7.0000000   1.0000000   1.0000000   1.0000000
 Leave Link  101 at Tue Jan  3 09:06:23 2023, MaxMem=   536870912 cpu:               0.5 elap:               0.3
 (Enter /opt/software/gaussian/g16.c01/l202.exe)
                          Input orientation:                          
 ---------------------------------------------------------------------
 Center     Atomic      Atomic             Coordinates (Angstroms)
 Number     Number       Type             X           Y           Z
 ---------------------------------------------------------------------
      1          6           0        0.888294    0.142235    0.108926
      2         16           0        2.506724    0.104170    0.044890
      3          7           0        3.303240    1.229897    0.770762
      4          1           0        0.375274   -0.665334   -0.413229
      5          1           0        0.324276    0.914865    0.633860
      6          1           0        2.713842    1.920118    1.241851
 ---------------------------------------------------------------------
                    Distance matrix (angstroms):
                    1          2          3          4          5
     1  C    0.000000
     2  S    1.620144   0.000000
     3  N    2.730019   1.558394   0.000000
     4  H    1.089956   2.311945   3.683303   0.000000
     5  H    1.091159   2.401498   2.998702   1.896319   0.000000
     6  H    2.788730   2.184785   1.022604   3.859113   2.662745
                    6
     6  H    0.000000
 Symmetry turned off by external request.
 Stoichiometry    CH3NS
 Rotational constants (GHZ):          36.3131241           8.8290023           7.1022055
 Leave Link  202 at Tue Jan  3 09:06:23 2023, MaxMem=   536870912 cpu:               0.0 elap:               0.0
 (Enter /opt/software/gaussian/g16.c01/l301.exe)
 General basis read from cards:  (5D, 7F)
 Centers:       4      5      6
 S 4 1.00
     Exponent=  1.9069169000D+02 Coefficients=  7.0815167000D-04
     Exponent=  2.8605532000D+01 Coefficients=  5.4678827000D-03
     Exponent=  6.5095943000D+00 Coefficients=  2.7966605000D-02
     Exponent=  1.8412455000D+00 Coefficients=  1.0764538000D-01
 S 1 1.00
     Exponent=  5.9853725000D-01 Coefficients=  1.0000000000D+00
 S 1 1.00
     Exponent=  2.1397624000D-01 Coefficients=  1.0000000000D+00
 S 1 1.00
     Exponent=  8.0316286000D-02 Coefficients=  1.0000000000D+00
 P 1 1.00
     Exponent=  2.2920000000D+00 Coefficients=  1.0000000000D+00
 P 1 1.00
     Exponent=  8.3800000000D-01 Coefficients=  1.0000000000D+00
 P 1 1.00
     Exponent=  2.9200000000D-01 Coefficients=  1.0000000000D+00
 P 1 1.00
     Exponent=  8.4063199228D-02 Coefficients=  1.0000000000D+00
 D 1 1.00
     Exponent=  2.0620000000D+00 Coefficients=  1.0000000000D+00
 D 1 1.00
     Exponent=  6.6200000000D-01 Coefficients=  1.0000000000D+00
 F 1 1.00
     Exponent=  1.3970000000D+00 Coefficients=  1.0000000000D+00
 ****
 Centers:       1
 S 8 1.00
     Exponent=  6.7025071029D+04 Coefficients=  3.8736308501D-05
     Exponent=  1.0039986538D+04 Coefficients=  3.0107917575D-04
     Exponent=  2.2849316911D+03 Coefficients=  1.5787918095D-03
     Exponent=  6.4714122130D+02 Coefficients=  6.6087087195D-03
     Exponent=  2.1109472335D+02 Coefficients=  2.3367123250D-02
     Exponent=  7.6177643862D+01 Coefficients=  7.0420716898D-02
     Exponent=  2.9633839163D+01 Coefficients=  1.7360344953D-01
     Exponent=  1.2187785081D+01 Coefficients=  3.2292305648D-01
 S 2 1.00
     Exponent=  5.3026006299D+01 Coefficients=  7.4897404492D-02
     Exponent=  1.5258502776D+01 Coefficients=  7.6136220983D-01
 S 1 1.00
     Exponent=  5.2403957464D+00 Coefficients=  1.0000000000D+00
 S 1 1.00
     Exponent=  2.2905022379D+00 Coefficients=  1.0000000000D+00
 S 1 1.00
     Exponent=  6.9673283006D-01 Coefficients=  1.0000000000D+00
 S 1 1.00
     Exponent=  2.7599337363D-01 Coefficients=  1.0000000000D+00
 S 1 1.00
     Exponent=  1.0739884389D-01 Coefficients=  1.0000000000D+00
 S 1 1.00
     Exponent=  4.4981404899D-02 Coefficients=  1.0000000000D+00
 P 5 1.00
     Exponent=  1.0512555082D+02 Coefficients=  8.4647553844D-04
     Exponent=  2.4884461066D+01 Coefficients=  6.6274038534D-03
     Exponent=  7.8637230826D+00 Coefficients=  3.0120390419D-02
     Exponent=  2.8407001835D+00 Coefficients=  9.9951435476D-02
     Exponent=  1.1227137335D+00 Coefficients=  2.3826299282D-01
 P 1 1.00
     Exponent=  4.6050725555D-01 Coefficients=  1.0000000000D+00
 P 1 1.00
     Exponent=  1.8937530913D-01 Coefficients=  1.0000000000D+00
 P 1 1.00
     Exponent=  7.5983791611D-02 Coefficients=  1.0000000000D+00
 D 1 1.00
     Exponent=  1.8480000000D+00 Coefficients=  1.0000000000D+00
 D 1 1.00
     Exponent=  6.4900000000D-01 Coefficients=  1.0000000000D+00
 D 1 1.00
     Exponent=  2.2800000000D-01 Coefficients=  1.0000000000D+00
 D 1 1.00
     Exponent=  7.6889830417D-02 Coefficients=  1.0000000000D+00
 F 1 1.00
     Exponent=  1.4190000000D+00 Coefficients=  1.0000000000D+00
 F 1 1.00
     Exponent=  4.8500000000D-01 Coefficients=  1.0000000000D+00
 G 1 1.00
     Exponent=  1.0110000000D+00 Coefficients=  1.0000000000D+00
 ****
 Centers:       3
 S 8 1.00
     Exponent=  9.0726889210D+04 Coefficients=  3.9257887368D-05
     Exponent=  1.3590528801D+04 Coefficients=  3.0513316455D-04
     Exponent=  3.0929883781D+03 Coefficients=  1.6000560446D-03
     Exponent=  8.7599876362D+02 Coefficients=  6.6982937306D-03
     Exponent=  2.8574469982D+02 Coefficients=  2.3690078765D-02
     Exponent=  1.0311913417D+02 Coefficients=  7.1455405268D-02
     Exponent=  4.0128556777D+01 Coefficients=  1.7632774876D-01
     Exponent=  1.6528095704D+01 Coefficients=  3.2677592815D-01
 S 2 1.00
     Exponent=  6.9390960983D+01 Coefficients=  8.0052094386D-02
     Exponent=  2.0428200596D+01 Coefficients=  7.8268063538D-01
 S 1 1.00
     Exponent=  7.1292587972D+00 Coefficients=  1.0000000000D+00
 S 1 1.00
     Exponent=  3.1324304893D+00 Coefficients=  1.0000000000D+00
 S 1 1.00
     Exponent=  9.8755778723D-01 Coefficients=  1.0000000000D+00
 S 1 1.00
     Exponent=  3.8765721307D-01 Coefficients=  1.0000000000D+00
 S 1 1.00
     Exponent=  1.4909883075D-01 Coefficients=  1.0000000000D+00
 S 1 1.00
     Exponent=  6.2151630318D-02 Coefficients=  1.0000000000D+00
 P 5 1.00
     Exponent=  1.5005742670D+02 Coefficients= -8.6216165986D-04
     Exponent=  3.5491599483D+01 Coefficients= -6.8571273236D-03
     Exponent=  1.1247864223D+01 Coefficients= -3.1795688855D-02
     Exponent=  4.0900305195D+00 Coefficients= -1.0537396822D-01
     Exponent=  1.6220573146D+00 Coefficients= -2.4519708041D-01
 P 1 1.00
     Exponent=  6.6442261530D-01 Coefficients=  1.0000000000D+00
 P 1 1.00
     Exponent=  2.7099770070D-01 Coefficients=  1.0000000000D+00
 P 1 1.00
     Exponent=  1.0688749984D-01 Coefficients=  1.0000000000D+00
 D 1 1.00
     Exponent=  2.8370000000D+00 Coefficients=  1.0000000000D+00
 D 1 1.00
     Exponent=  9.6800000000D-01 Coefficients=  1.0000000000D+00
 D 1 1.00
     Exponent=  3.3500000000D-01 Coefficients=  1.0000000000D+00
 D 1 1.00
     Exponent=  1.0825280010D-01 Coefficients=  1.0000000000D+00
 F 1 1.00
     Exponent=  2.0270000000D+00 Coefficients=  1.0000000000D+00
 F 1 1.00
     Exponent=  6.8500000000D-01 Coefficients=  1.0000000000D+00
 G 1 1.00
     Exponent=  1.4270000000D+00 Coefficients=  1.0000000000D+00
 ****
 Centers:       2
 S 10 1.00
     Exponent=  1.2734109023D+06 Coefficients=  1.1767088246D-05
     Exponent=  1.9069783007D+05 Coefficients=  9.1478610166D-05
     Exponent=  4.3397885330D+04 Coefficients=  4.8090078640D-04
     Exponent=  1.2291809677D+04 Coefficients=  2.0257193592D-03
     Exponent=  4.0097420824D+03 Coefficients=  7.3190096406D-03
     Exponent=  1.4473531030D+03 Coefficients=  2.3300499900D-02
     Exponent=  5.6430102913D+02 Coefficients=  6.5386213610D-02
     Exponent=  2.3374506243D+02 Coefficients=  1.5614449910D-01
     Exponent=  1.0156402814D+02 Coefficients=  2.9318563787D-01
     Exponent=  4.5805907187D+01 Coefficients=  3.6287914289D-01
 S 3 1.00
     Exponent=  3.9427281503D+02 Coefficients=  1.8753305081D-02
     Exponent=  1.2172249591D+02 Coefficients=  1.6870726663D-01
     Exponent=  4.6754125963D+01 Coefficients=  6.3806830653D-01
 S 1 1.00
     Exponent=  2.0923008254D+01 Coefficients=  1.0000000000D+00
 S 1 1.00
     Exponent=  8.2685567800D+00 Coefficients=  1.0000000000D+00
 S 1 1.00
     Exponent=  3.8629345671D+00 Coefficients=  1.0000000000D+00
 S 1 1.00
     Exponent=  1.7794684781D+00 Coefficients=  1.0000000000D+00
 S 1 1.00
     Exponent=  6.1064260103D-01 Coefficients=  1.0000000000D+00
 S 1 1.00
     Exponent=  2.7412269445D-01 Coefficients=  1.0000000000D+00
 S 1 1.00
     Exponent=  1.1325939107D-01 Coefficients=  1.0000000000D+00
 S 1 1.00
     Exponent=  4.4392624881D-02 Coefficients=  1.0000000000D+00
 P 8 1.00
     Exponent=  2.1898930459D+03 Coefficients=  2.3912552864D-04
     Exponent=  5.1894596592D+02 Coefficients=  2.0772032158D-03
     Exponent=  1.6819560151D+02 Coefficients=  1.1242420571D-02
     Exponent=  6.3745282788D+01 Coefficients=  4.4069933941D-02
     Exponent=  2.6597033077D+01 Coefficients=  1.2918778608D-01
     Exponent=  1.1774251449D+01 Coefficients=  2.6910820167D-01
     Exponent=  5.3534379024D+00 Coefficients=  3.7855928620D-01
     Exponent=  2.4701911802D+00 Coefficients=  2.9692134655D-01
 P 2 1.00
     Exponent=  8.2120288349D+01 Coefficients= -3.9420318847D-02
     Exponent=  4.9523532869D+00 Coefficients=  6.4048403090D-01
 P 1 1.00
     Exponent=  1.0828262029D+00 Coefficients=  1.0000000000D+00
 P 1 1.00
     Exponent=  4.9271277356D-01 Coefficients=  1.0000000000D+00
 P 1 1.00
     Exponent=  2.0483450942D-01 Coefficients=  1.0000000000D+00
 P 1 1.00
     Exponent=  8.0743615716D-02 Coefficients=  1.0000000000D+00
 P 1 1.00
     Exponent=  2.5661157833D-02 Coefficients=  1.0000000000D+00
 D 1 1.00
     Exponent=  4.1590000000D+00 Coefficients=  1.0000000000D+00
 D 1 1.00
     Exponent=  1.0190000000D+00 Coefficients=  1.0000000000D+00
 D 1 1.00
     Exponent=  4.6400000000D-01 Coefficients=  1.0000000000D+00
 D 1 1.00
     Exponent=  1.9400000000D-01 Coefficients=  1.0000000000D+00
 D 1 1.00
     Exponent=  6.7889829366D-02 Coefficients=  1.0000000000D+00
 F 1 1.00
     Exponent=  8.6900000000D-01 Coefficients=  1.0000000000D+00
 F 1 1.00
     Exponent=  3.3500000000D-01 Coefficients=  1.0000000000D+00
 G 1 1.00
     Exponent=  6.8300000000D-01 Coefficients=  1.0000000000D+00
 ****
 Ernie: Thresh=  0.10000D-02 Tol=  0.10000D-05 Strict=F.
   304 basis functions,   452 primitive gaussians,   368 cartesian basis functions
    16 alpha electrons       16 beta electrons
       nuclear repulsion energy       102.0311797422 Hartrees.
 IExCor=    0 DFT=F Ex=HF Corr=None ExCW=0 ScaHFX=  1.000000
 ScaDFX=  1.000000  1.000000  1.000000  1.000000 ScalE2=  1.000000  1.000000
 IRadAn=      5 IRanWt=     -1 IRanGd=            0 ICorTp=0 IEmpDi=  4
 NAtoms=    6 NActive=    6 NUniq=    6 SFac= 1.00D+00 NAtFMM=   60 NAOKFM=F Big=F
 Integral buffers will be    131072 words long.
 Raffenetti 2 integral format.
 Two-electron integral symmetry is turned off.
 Leave Link  301 at Tue Jan  3 09:06:23 2023, MaxMem=   536870912 cpu:               0.2 elap:               0.1
 (Enter /opt/software/gaussian/g16.c01/l302.exe)
 NPDir=0 NMtPBC=     1 NCelOv=     1 NCel=       1 NClECP=     1 NCelD=      1
         NCelK=      1 NCelE2=     1 NClLst=     1 CellRange=     0.0.
 One-electron integrals computed using PRISM.
 NBasis=   304 RedAO= T EigKep=  5.84D-06  NBF=   304
 NBsUse=   304 1.00D-06 EigRej= -1.00D+00 NBFU=   304
 Leave Link  302 at Tue Jan  3 09:06:23 2023, MaxMem=   536870912 cpu:               0.5 elap:               0.2
 (Enter /opt/software/gaussian/g16.c01/l303.exe)
 DipDrv:  MaxL=1.
 Leave Link  303 at Tue Jan  3 09:06:24 2023, MaxMem=   536870912 cpu:               0.1 elap:               0.1
 (Enter /opt/software/gaussian/g16.c01/l401.exe)
 ExpMin= 2.57D-02 ExpMax= 1.27D+06 ExpMxC= 1.45D+03 IAcc=3 IRadAn=         5 AccDes= 0.00D+00
 Harris functional with IExCor=  205 and IRadAn=       5 diagonalized for initial guess.
 HarFok:  IExCor=  205 AccDes= 0.00D+00 IRadAn=         5 IDoV= 1 UseB2=F ITyADJ=14
 ICtDFT=  3500011 ScaDFX=  1.000000  1.000000  1.000000  1.000000
 FoFCou: FMM=F IPFlag=           0 FMFlag=      100000 FMFlg1=           0
         NFxFlg=           0 DoJE=T BraDBF=F KetDBF=T FulRan=T
         wScrn=  0.000000 ICntrl=       500 IOpCl=  0 I1Cent=   200000004 NGrid=           0
         NMat0=    1 NMatS0=      1 NMatT0=    0 NMatD0=    1 NMtDS0=    0 NMtDT0=    0
 Symmetry not used in FoFCou.
 Harris En= -491.397979573921    
 JPrj=0 DoOrth=F DoCkMO=F.
 Initial guess <Sx>= 0.0000 <Sy>= 0.0000 <Sz>= 0.0000 <S**2>= 0.0000 S= 0.0000
 Leave Link  401 at Tue Jan  3 09:06:25 2023, MaxMem=   536870912 cpu:               2.0 elap:               1.0
 (Enter /opt/software/gaussian/g16.c01/l502.exe)
 Two-electron integral symmetry not used.
 UHF open shell SCF:
 Using DIIS extrapolation, IDIIS=  1040.
 NGot=   536870912 LenX=   536595538 LenY=   536459673
 Requested convergence on RMS density matrix=1.00D-08 within 128 cycles.
 Requested convergence on MAX density matrix=1.00D-06.
 Requested convergence on             energy=1.00D-06.
 No special actions if energy rises.
 Fock matrices will be formed incrementally for  20 cycles.

 Cycle   1  Pass 1  IDiag  1:
 FoFJK:  IHMeth= 1 ICntrl=       0 DoSepK=F KAlg= 0 I1Cent=           0 FoldK=F
 IRaf= 980000000 NMat=       1 IRICut=       1 DoRegI=T DoRafI=F ISym2E= 0 IDoP0=0 IntGTp=1.
 FoFCou: FMM=F IPFlag=           0 FMFlag=      100000 FMFlg1=           0
         NFxFlg=           0 DoJE=F BraDBF=F KetDBF=F FulRan=T
         wScrn=  0.000000 ICntrl=         0 IOpCl=  1 I1Cent=           0 NGrid=           0
         NMat0=    1 NMatS0=      1 NMatT0=    0 NMatD0=    1 NMtDS0=    0 NMtDT0=    0
 Symmetry not used in FoFCou.
 E= -491.328243396709    
 DIIS: error= 5.75D-02 at cycle   1 NSaved=   1.
 NSaved= 1 IEnMin= 1 EnMin= -491.328243396709     IErMin= 1 ErrMin= 5.75D-02
 ErrMax= 5.75D-02  0.00D+00 EMaxC= 1.00D-01 BMatC= 3.36D+00 BMatP= 3.36D+00
 IDIUse=3 WtCom= 4.25D-01 WtEn= 5.75D-01
 Coeff-Com:  0.100D+01
 Coeff-En:   0.100D+01
 Coeff:      0.100D+01
 Gap=     0.313 Goal=   None    Shift=    0.000
 Gap=     0.313 Goal=   None    Shift=    0.000
 GapD=    0.313 DampG=1.000 DampE=0.500 DampFc=0.5000 IDamp=-1.
 Damping current iteration by 5.00D-01
 RMSDP=1.60D-03 MaxDP=5.40D-02              OVMax= 1.95D-01

 Cycle   2  Pass 1  IDiag  1:
 RMSU=  7.92D-04    CP:  9.85D-01
 E= -491.454851540819     Delta-E=       -0.126608144110 Rises=F Damp=T
 DIIS: error= 2.85D-02 at cycle   2 NSaved=   2.
 NSaved= 2 IEnMin= 2 EnMin= -491.454851540819     IErMin= 2 ErrMin= 2.85D-02
 ErrMax= 2.85D-02  0.00D+00 EMaxC= 1.00D-01 BMatC= 7.13D-01 BMatP= 3.36D+00
 IDIUse=3 WtCom= 7.15D-01 WtEn= 2.85D-01
 Coeff-Com: -0.637D+00 0.164D+01
 Coeff-En:   0.000D+00 0.100D+01
 Coeff:     -0.455D+00 0.146D+01
 Gap=     0.398 Goal=   None    Shift=    0.000
 Gap=     0.398 Goal=   None    Shift=    0.000
 RMSDP=5.96D-04 MaxDP=2.16D-02 DE=-1.27D-01 OVMax= 9.42D-02

 Cycle   3  Pass 1  IDiag  1:
 RMSU=  4.36D-04    CP:  9.66D-01  1.47D+00
 E= -491.561902766380     Delta-E=       -0.107051225561 Rises=F Damp=F
 DIIS: error= 4.38D-03 at cycle   3 NSaved=   3.
 NSaved= 3 IEnMin= 3 EnMin= -491.561902766380     IErMin= 3 ErrMin= 4.38D-03
 ErrMax= 4.38D-03  0.00D+00 EMaxC= 1.00D-01 BMatC= 1.72D-02 BMatP= 7.13D-01
 IDIUse=3 WtCom= 9.56D-01 WtEn= 4.38D-02
 Coeff-Com: -0.154D+00 0.272D+00 0.882D+00
 Coeff-En:   0.000D+00 0.000D+00 0.100D+01
 Coeff:     -0.148D+00 0.260D+00 0.887D+00
 Gap=     0.385 Goal=   None    Shift=    0.000
 Gap=     0.385 Goal=   None    Shift=    0.000
 RMSDP=1.33D-04 MaxDP=6.94D-03 DE=-1.07D-01 OVMax= 2.25D-02

 Cycle   4  Pass 1  IDiag  1:
 RMSU=  9.85D-05    CP:  9.66D-01  1.57D+00  9.10D-01
 E= -491.565479403354     Delta-E=       -0.003576636974 Rises=F Damp=F
 DIIS: error= 1.63D-03 at cycle   4 NSaved=   4.
 NSaved= 4 IEnMin= 4 EnMin= -491.565479403354     IErMin= 4 ErrMin= 1.63D-03
 ErrMax= 1.63D-03  0.00D+00 EMaxC= 1.00D-01 BMatC= 1.15D-03 BMatP= 1.72D-02
 IDIUse=3 WtCom= 9.84D-01 WtEn= 1.63D-02
 Coeff-Com: -0.270D-01 0.404D-01 0.261D+00 0.725D+00
 Coeff-En:   0.000D+00 0.000D+00 0.000D+00 0.100D+01
 Coeff:     -0.266D-01 0.397D-01 0.257D+00 0.730D+00
 Gap=     0.386 Goal=   None    Shift=    0.000
 Gap=     0.386 Goal=   None    Shift=    0.000
 RMSDP=4.25D-05 MaxDP=1.47D-03 DE=-3.58D-03 OVMax= 1.15D-02

 Cycle   5  Pass 1  IDiag  1:
 RMSU=  3.62D-05    CP:  9.65D-01  1.57D+00  9.54D-01  9.03D-01
 E= -491.565800587065     Delta-E=       -0.000321183711 Rises=F Damp=F
 DIIS: error= 6.51D-04 at cycle   5 NSaved=   5.
 NSaved= 5 IEnMin= 5 EnMin= -491.565800587065     IErMin= 5 ErrMin= 6.51D-04
 ErrMax= 6.51D-04  0.00D+00 EMaxC= 1.00D-01 BMatC= 2.14D-04 BMatP= 1.15D-03
 IDIUse=3 WtCom= 9.93D-01 WtEn= 6.51D-03
 Coeff-Com:  0.195D-01-0.367D-01-0.695D-01 0.224D+00 0.863D+00
 Coeff-En:   0.000D+00 0.000D+00 0.000D+00 0.000D+00 0.100D+01
 Coeff:      0.194D-01-0.364D-01-0.691D-01 0.223D+00 0.864D+00
 Gap=     0.384 Goal=   None    Shift=    0.000
 Gap=     0.384 Goal=   None    Shift=    0.000
 RMSDP=2.44D-05 MaxDP=8.39D-04 DE=-3.21D-04 OVMax= 2.62D-03

 Cycle   6  Pass 1  IDiag  1:
 RMSU=  1.67D-05    CP:  9.65D-01  1.56D+00  9.60D-01  1.05D+00  1.10D+00
 E= -491.565878280956     Delta-E=       -0.000077693891 Rises=F Damp=F
 DIIS: error= 1.99D-04 at cycle   6 NSaved=   6.
 NSaved= 6 IEnMin= 6 EnMin= -491.565878280956     IErMin= 6 ErrMin= 1.99D-04
 ErrMax= 1.99D-04  0.00D+00 EMaxC= 1.00D-01 BMatC= 1.71D-05 BMatP= 2.14D-04
 IDIUse=3 WtCom= 9.98D-01 WtEn= 1.99D-03
 Coeff-Com:  0.675D-02-0.114D-01-0.448D-01-0.424D-01-0.138D-01 0.111D+01
 Coeff-En:   0.000D+00 0.000D+00 0.000D+00 0.000D+00 0.000D+00 0.100D+01
 Coeff:      0.674D-02-0.114D-01-0.447D-01-0.423D-01-0.138D-01 0.111D+01
 Gap=     0.384 Goal=   None    Shift=    0.000
 Gap=     0.384 Goal=   None    Shift=    0.000
 RMSDP=1.41D-05 MaxDP=3.78D-04 DE=-7.77D-05 OVMax= 3.25D-03

 Cycle   7  Pass 1  IDiag  1:
 RMSU=  5.55D-06    CP:  9.65D-01  1.55D+00  9.62D-01  1.12D+00  1.29D+00
                    CP:  1.43D+00
 E= -491.565895998136     Delta-E=       -0.000017717180 Rises=F Damp=F
 DIIS: error= 9.90D-05 at cycle   7 NSaved=   7.
 NSaved= 7 IEnMin= 7 EnMin= -491.565895998136     IErMin= 7 ErrMin= 9.90D-05
 ErrMax= 9.90D-05  0.00D+00 EMaxC= 1.00D-01 BMatC= 5.22D-06 BMatP= 1.71D-05
 IDIUse=1 WtCom= 1.00D+00 WtEn= 0.00D+00
 Coeff-Com: -0.209D-02 0.393D-02 0.104D-01 0.624D-03-0.157D+00-0.173D-01
 Coeff-Com:  0.116D+01
 Coeff:     -0.209D-02 0.393D-02 0.104D-01 0.624D-03-0.157D+00-0.173D-01
 Coeff:      0.116D+01
 Gap=     0.384 Goal=   None    Shift=    0.000
 Gap=     0.384 Goal=   None    Shift=    0.000
 RMSDP=7.59D-06 MaxDP=2.67D-04 DE=-1.77D-05 OVMax= 1.74D-03

 Cycle   8  Pass 1  IDiag  1:
 RMSU=  2.47D-06    CP:  9.65D-01  1.55D+00  9.61D-01  1.15D+00  1.33D+00
                    CP:  1.76D+00  1.57D+00
 E= -491.565901179643     Delta-E=       -0.000005181508 Rises=F Damp=F
 DIIS: error= 5.24D-05 at cycle   8 NSaved=   8.
 NSaved= 8 IEnMin= 8 EnMin= -491.565901179643     IErMin= 8 ErrMin= 5.24D-05
 ErrMax= 5.24D-05  0.00D+00 EMaxC= 1.00D-01 BMatC= 1.28D-06 BMatP= 5.22D-06
 IDIUse=1 WtCom= 1.00D+00 WtEn= 0.00D+00
 Coeff-Com: -0.638D-03 0.810D-03 0.806D-02 0.231D-01 0.130D-01-0.195D+00
 Coeff-Com: -0.584D+00 0.173D+01
 Coeff:     -0.638D-03 0.810D-03 0.806D-02 0.231D-01 0.130D-01-0.195D+00
 Coeff:     -0.584D+00 0.173D+01
 Gap=     0.384 Goal=   None    Shift=    0.000
 Gap=     0.384 Goal=   None    Shift=    0.000
 RMSDP=6.47D-06 MaxDP=2.14D-04 DE=-5.18D-06 OVMax= 1.60D-03

 Cycle   9  Pass 1  IDiag  1:
 RMSU=  9.62D-07    CP:  9.65D-01  1.55D+00  9.59D-01  1.17D+00  1.34D+00
                    CP:  2.02D+00  2.15D+00  2.15D+00
 E= -491.565903146529     Delta-E=       -0.000001966886 Rises=F Damp=F
 DIIS: error= 1.01D-05 at cycle   9 NSaved=   9.
 NSaved= 9 IEnMin= 9 EnMin= -491.565903146529     IErMin= 9 ErrMin= 1.01D-05
 ErrMax= 1.01D-05  0.00D+00 EMaxC= 1.00D-01 BMatC= 8.58D-08 BMatP= 1.28D-06
 IDIUse=1 WtCom= 1.00D+00 WtEn= 0.00D+00
 Coeff-Com:  0.488D-03-0.848D-03-0.340D-02-0.996D-03 0.178D-01 0.458D-01
 Coeff-Com: -0.110D+00-0.232D+00 0.128D+01
 Coeff:      0.488D-03-0.848D-03-0.340D-02-0.996D-03 0.178D-01 0.458D-01
 Coeff:     -0.110D+00-0.232D+00 0.128D+01
 Gap=     0.384 Goal=   None    Shift=    0.000
 Gap=     0.384 Goal=   None    Shift=    0.000
 RMSDP=1.67D-06 MaxDP=5.39D-05 DE=-1.97D-06 OVMax= 3.82D-04

 Cycle  10  Pass 1  IDiag  1:
 RMSU=  2.89D-07    CP:  9.65D-01  1.55D+00  9.59D-01  1.17D+00  1.33D+00
                    CP:  2.06D+00  2.25D+00  2.60D+00  1.68D+00
 E= -491.565903257988     Delta-E=       -0.000000111458 Rises=F Damp=F
 DIIS: error= 2.72D-06 at cycle  10 NSaved=  10.
 NSaved=10 IEnMin=10 EnMin= -491.565903257988     IErMin=10 ErrMin= 2.72D-06
 ErrMax= 2.72D-06  0.00D+00 EMaxC= 1.00D-01 BMatC= 4.62D-09 BMatP= 8.58D-08
 IDIUse=1 WtCom= 1.00D+00 WtEn= 0.00D+00
 Coeff-Com: -0.100D-03 0.209D-03 0.633D-04-0.149D-02-0.541D-02 0.594D-02
 Coeff-Com:  0.778D-01-0.957D-01-0.260D+00 0.128D+01
 Coeff:     -0.100D-03 0.209D-03 0.633D-04-0.149D-02-0.541D-02 0.594D-02
 Coeff:      0.778D-01-0.957D-01-0.260D+00 0.128D+01
 Gap=     0.384 Goal=   None    Shift=    0.000
 Gap=     0.384 Goal=   None    Shift=    0.000
 RMSDP=3.46D-07 MaxDP=1.25D-05 DE=-1.11D-07 OVMax= 4.05D-05

 Cycle  11  Pass 1  IDiag  1:
 RMSU=  7.45D-08    CP:  9.65D-01  1.55D+00  9.59D-01  1.17D+00  1.33D+00
                    CP:  2.05D+00  2.24D+00  2.66D+00  1.92D+00  1.38D+00
 E= -491.565903261994     Delta-E=       -0.000000004006 Rises=F Damp=F
 DIIS: error= 8.95D-07 at cycle  11 NSaved=  11.
 NSaved=11 IEnMin=11 EnMin= -491.565903261994     IErMin=11 ErrMin= 8.95D-07
 ErrMax= 8.95D-07  0.00D+00 EMaxC= 1.00D-01 BMatC= 2.95D-10 BMatP= 4.62D-09
 IDIUse=1 WtCom= 1.00D+00 WtEn= 0.00D+00
 Coeff-Com: -0.166D-04 0.241D-04 0.198D-03 0.314D-03-0.566D-03-0.374D-02
 Coeff-Com: -0.447D-02 0.325D-01-0.701D-01-0.130D+00 0.118D+01
 Coeff:     -0.166D-04 0.241D-04 0.198D-03 0.314D-03-0.566D-03-0.374D-02
 Coeff:     -0.447D-02 0.325D-01-0.701D-01-0.130D+00 0.118D+01
 Gap=     0.384 Goal=   None    Shift=    0.000
 Gap=     0.384 Goal=   None    Shift=    0.000
 RMSDP=6.16D-08 MaxDP=2.35D-06 DE=-4.01D-09 OVMax= 9.60D-06

 Cycle  12  Pass 1  IDiag  1:
 RMSU=  1.92D-08    CP:  9.65D-01  1.55D+00  9.59D-01  1.17D+00  1.33D+00
                    CP:  2.05D+00  2.24D+00  2.67D+00  1.95D+00  1.47D+00
                    CP:  1.43D+00
 E= -491.565903262253     Delta-E=       -0.000000000259 Rises=F Damp=F
 DIIS: error= 2.14D-07 at cycle  12 NSaved=  12.
 NSaved=12 IEnMin=12 EnMin= -491.565903262253     IErMin=12 ErrMin= 2.14D-07
 ErrMax= 2.14D-07  0.00D+00 EMaxC= 1.00D-01 BMatC= 2.49D-11 BMatP= 2.95D-10
 IDIUse=1 WtCom= 1.00D+00 WtEn= 0.00D+00
 Coeff-Com:  0.138D-04-0.252D-04-0.756D-04 0.433D-04 0.641D-03 0.404D-03
 Coeff-Com: -0.531D-02 0.248D-03 0.374D-01-0.730D-01-0.263D+00 0.130D+01
 Coeff:      0.138D-04-0.252D-04-0.756D-04 0.433D-04 0.641D-03 0.404D-03
 Coeff:     -0.531D-02 0.248D-03 0.374D-01-0.730D-01-0.263D+00 0.130D+01
 Gap=     0.384 Goal=   None    Shift=    0.000
 Gap=     0.384 Goal=   None    Shift=    0.000
 RMSDP=2.06D-08 MaxDP=7.27D-07 DE=-2.59D-10 OVMax= 2.69D-06

 Cycle  13  Pass 1  IDiag  1:
 RMSU=  5.46D-09    CP:  9.65D-01  1.55D+00  9.59D-01  1.17D+00  1.33D+00
                    CP:  2.05D+00  2.25D+00  2.67D+00  1.95D+00  1.47D+00
                    CP:  1.60D+00  1.62D+00
 E= -491.565903262279     Delta-E=       -0.000000000026 Rises=F Damp=F
 DIIS: error= 5.18D-08 at cycle  13 NSaved=  13.
 NSaved=13 IEnMin=13 EnMin= -491.565903262279     IErMin=13 ErrMin= 5.18D-08
 ErrMax= 5.18D-08  0.00D+00 EMaxC= 1.00D-01 BMatC= 1.95D-12 BMatP= 2.49D-11
 IDIUse=1 WtCom= 1.00D+00 WtEn= 0.00D+00
 Coeff-Com: -0.405D-05 0.781D-05 0.127D-04-0.397D-04-0.157D-03 0.136D-03
 Coeff-Com:  0.210D-02-0.257D-02-0.671D-02 0.317D-01 0.723D-02-0.469D+00
 Coeff-Com:  0.144D+01
 Coeff:     -0.405D-05 0.781D-05 0.127D-04-0.397D-04-0.157D-03 0.136D-03
 Coeff:      0.210D-02-0.257D-02-0.671D-02 0.317D-01 0.723D-02-0.469D+00
 Coeff:      0.144D+01
 Gap=     0.384 Goal=   None    Shift=    0.000
 Gap=     0.384 Goal=   None    Shift=    0.000
 RMSDP=6.19D-09 MaxDP=1.83D-07 DE=-2.63D-11 OVMax= 8.18D-07

 SCF Done:  E(UHF) =  -491.565903262     A.U. after   13 cycles
            NFock= 13  Conv=0.62D-08     -V/T= 2.0007
 <Sx>= 0.0000 <Sy>= 0.0000 <Sz>= 0.0000 <S**2>=-0.0000 S=-0.0000
 <L.S>=  0.00000000000    
 KE= 4.912448788175D+02 PE=-1.369817507994D+03 EE= 2.849755461716D+02
 Annihilation of the first spin contaminant:
 S**2 before annihilation    -0.0000,   after     0.0000
 Leave Link  502 at Tue Jan  3 09:11:06 2023, MaxMem=   536870912 cpu:             561.6 elap:             281.2
 (Enter /opt/software/gaussian/g16.c01/l508.exe)
 QCSCF skips out because SCF is already converged.
 Leave Link  508 at Tue Jan  3 09:11:06 2023, MaxMem=   536870912 cpu:               0.0 elap:               0.0
 (Enter /opt/software/gaussian/g16.c01/l601.exe)
 Copying SCF densities to generalized density rwf, IOpCl= 1 IROHF=0.

 **********************************************************************

            Population analysis using the SCF Density.

 **********************************************************************

 Alpha  occ. eigenvalues --  -92.06361 -15.55233 -11.27828  -9.05521  -6.73649
 Alpha  occ. eigenvalues --   -6.73634  -6.73548  -1.21740  -1.02460  -0.81139
 Alpha  occ. eigenvalues --   -0.66261  -0.64071  -0.52186  -0.49748  -0.44262
 Alpha  occ. eigenvalues --   -0.33436
 Alpha virt. eigenvalues --    0.04978   0.05107   0.05429   0.06367   0.06588
 Alpha virt. eigenvalues --    0.11131   0.13977   0.14342   0.17022   0.18655
 Alpha virt. eigenvalues --    0.19443   0.20354   0.21454   0.21708   0.23955
 Alpha virt. eigenvalues --    0.24806   0.24892   0.25418   0.27517   0.27736
 Alpha virt. eigenvalues --    0.29275   0.29928   0.31026   0.31624   0.32349
 Alpha virt. eigenvalues --    0.34743   0.35236   0.36344   0.37071   0.38242
 Alpha virt. eigenvalues --    0.41623   0.42639   0.43393   0.43653   0.45481
 Alpha virt. eigenvalues --    0.47529   0.48352   0.49374   0.50017   0.51276
 Alpha virt. eigenvalues --    0.54747   0.56812   0.57588   0.58783   0.61840
 Alpha virt. eigenvalues --    0.62573   0.65610   0.66559   0.67712   0.69351
 Alpha virt. eigenvalues --    0.72140   0.74133   0.76383   0.77444   0.80492
 Alpha virt. eigenvalues --    0.86517   0.87078   0.92200   0.93377   0.96498
 Alpha virt. eigenvalues --    0.99729   1.01305   1.03152   1.03286   1.06426
 Alpha virt. eigenvalues --    1.06860   1.10306   1.13175   1.16036   1.16156
 Alpha virt. eigenvalues --    1.21770   1.24483   1.27649   1.28770   1.30306
 Alpha virt. eigenvalues --    1.32398   1.36145   1.36227   1.40310   1.42082
 Alpha virt. eigenvalues --    1.44805   1.45273   1.46008   1.49954   1.52371
 Alpha virt. eigenvalues --    1.54620   1.58530   1.60576   1.61991   1.64492
 Alpha virt. eigenvalues --    1.67877   1.74680   1.77590   1.79777   1.90476
 Alpha virt. eigenvalues --    1.90739   1.96212   2.05503   2.06780   2.10354
 Alpha virt. eigenvalues --    2.15033   2.16479   2.19096   2.21421   2.24158
 Alpha virt. eigenvalues --    2.27172   2.32713   2.36359   2.42574   2.48250
 Alpha virt. eigenvalues --    2.53458   2.55309   2.56325   2.60726   2.61096
 Alpha virt. eigenvalues --    2.66183   2.67762   2.74404   2.76530   2.77631
 Alpha virt. eigenvalues --    2.78930   2.85750   2.87327   2.87682   2.91210
 Alpha virt. eigenvalues --    2.93056   2.95873   2.98312   2.98428   3.02339
 Alpha virt. eigenvalues --    3.07448   3.10102   3.14899   3.14980   3.18334
 Alpha virt. eigenvalues --    3.20090   3.28032   3.28530   3.33086   3.35488
 Alpha virt. eigenvalues --    3.39995   3.44828   3.48293   3.53934   3.55221
 Alpha virt. eigenvalues --    3.59410   3.60430   3.64088   3.65468   3.68768
 Alpha virt. eigenvalues --    3.71956   3.72154   3.76284   3.80613   3.81131
 Alpha virt. eigenvalues --    3.87604   3.89614   3.91813   3.93318   3.97848
 Alpha virt. eigenvalues --    4.02202   4.08403   4.09071   4.19132   4.20645
 Alpha virt. eigenvalues --    4.21030   4.31215   4.33168   4.35177   4.40724
 Alpha virt. eigenvalues --    4.49114   4.60117   4.63958   4.82348   4.96707
 Alpha virt. eigenvalues --    5.05813   5.12757   5.41151   5.49530   5.60586
 Alpha virt. eigenvalues --    5.62469   5.69249   5.69264   5.72264   5.75269
 Alpha virt. eigenvalues --    5.95766   6.09461   6.09490   6.13040   6.16133
 Alpha virt. eigenvalues --    6.18002   6.27616   6.32949   6.33162   6.38960
 Alpha virt. eigenvalues --    6.53710   6.59277   6.63845   6.66973   6.68545
 Alpha virt. eigenvalues --    6.71339   6.74314   6.80573   6.85676   6.97206
 Alpha virt. eigenvalues --    7.08934   7.14490   7.22367   7.25853   7.27185
 Alpha virt. eigenvalues --    7.43795   7.49073   7.50379   7.57257   7.57616
 Alpha virt. eigenvalues --    7.60220   7.66026   7.71258   7.75548   7.76462
 Alpha virt. eigenvalues --    7.86987   7.88620   7.91330   7.94516   7.96152
 Alpha virt. eigenvalues --    7.99791   8.01689   8.10842   8.19292   8.24785
 Alpha virt. eigenvalues --    8.26757   8.36805   8.41708   8.44457   8.53239
 Alpha virt. eigenvalues --    8.56157   8.60994   8.63674   8.65837   8.69187
 Alpha virt. eigenvalues --    8.75861   8.78831   8.79890   8.92693   8.94270
 Alpha virt. eigenvalues --    8.95437   9.14447   9.18758   9.22897   9.27375
 Alpha virt. eigenvalues --    9.34558   9.34804   9.44078   9.44544   9.50457
 Alpha virt. eigenvalues --    9.63833   9.65106   9.78559   9.90964   9.94981
 Alpha virt. eigenvalues --    9.99180  10.04485  10.06594  10.16123  10.16851
 Alpha virt. eigenvalues --   10.23641  10.23939  10.36270  10.69346  10.76277
 Alpha virt. eigenvalues --   10.88238  11.17804  11.86009  12.01151  12.08520
 Alpha virt. eigenvalues --   12.28990  13.33856  15.25439  25.65572  29.46027
 Alpha virt. eigenvalues --   29.98041  30.37272  30.73609  38.76866  85.92776
 Alpha virt. eigenvalues --  149.88379 199.64808 455.83511
  Beta  occ. eigenvalues --  -92.06361 -15.55233 -11.27828  -9.05521  -6.73649
  Beta  occ. eigenvalues --   -6.73634  -6.73548  -1.21740  -1.02460  -0.81139
  Beta  occ. eigenvalues --   -0.66261  -0.64071  -0.52186  -0.49748  -0.44262
  Beta  occ. eigenvalues --   -0.33436
  Beta virt. eigenvalues --    0.04978   0.05107   0.05429   0.06367   0.06588
  Beta virt. eigenvalues --    0.11131   0.13977   0.14342   0.17022   0.18655
  Beta virt. eigenvalues --    0.19443   0.20354   0.21454   0.21708   0.23955
  Beta virt. eigenvalues --    0.24806   0.24892   0.25418   0.27517   0.27736
  Beta virt. eigenvalues --    0.29275   0.29928   0.31026   0.31624   0.32349
  Beta virt. eigenvalues --    0.34743   0.35236   0.36344   0.37071   0.38242
  Beta virt. eigenvalues --    0.41623   0.42639   0.43393   0.43653   0.45481
  Beta virt. eigenvalues --    0.47529   0.48352   0.49374   0.50017   0.51276
  Beta virt. eigenvalues --    0.54747   0.56812   0.57588   0.58783   0.61840
  Beta virt. eigenvalues --    0.62573   0.65610   0.66559   0.67712   0.69351
  Beta virt. eigenvalues --    0.72140   0.74133   0.76383   0.77444   0.80492
  Beta virt. eigenvalues --    0.86517   0.87078   0.92200   0.93377   0.96498
  Beta virt. eigenvalues --    0.99729   1.01305   1.03152   1.03286   1.06426
  Beta virt. eigenvalues --    1.06860   1.10306   1.13175   1.16036   1.16156
  Beta virt. eigenvalues --    1.21770   1.24483   1.27649   1.28770   1.30306
  Beta virt. eigenvalues --    1.32398   1.36145   1.36227   1.40310   1.42082
  Beta virt. eigenvalues --    1.44805   1.45273   1.46008   1.49954   1.52371
  Beta virt. eigenvalues --    1.54620   1.58530   1.60576   1.61991   1.64492
  Beta virt. eigenvalues --    1.67877   1.74680   1.77590   1.79777   1.90476
  Beta virt. eigenvalues --    1.90739   1.96212   2.05503   2.06780   2.10354
  Beta virt. eigenvalues --    2.15033   2.16479   2.19096   2.21421   2.24158
  Beta virt. eigenvalues --    2.27172   2.32713   2.36359   2.42574   2.48250
  Beta virt. eigenvalues --    2.53458   2.55309   2.56325   2.60726   2.61096
  Beta virt. eigenvalues --    2.66183   2.67762   2.74404   2.76530   2.77631
  Beta virt. eigenvalues --    2.78930   2.85750   2.87327   2.87682   2.91210
  Beta virt. eigenvalues --    2.93056   2.95873   2.98312   2.98428   3.02339
  Beta virt. eigenvalues --    3.07448   3.10102   3.14899   3.14980   3.18334
  Beta virt. eigenvalues --    3.20090   3.28032   3.28530   3.33086   3.35488
  Beta virt. eigenvalues --    3.39995   3.44828   3.48293   3.53934   3.55221
  Beta virt. eigenvalues --    3.59410   3.60430   3.64088   3.65468   3.68768
  Beta virt. eigenvalues --    3.71956   3.72154   3.76284   3.80613   3.81131
  Beta virt. eigenvalues --    3.87604   3.89614   3.91813   3.93318   3.97848
  Beta virt. eigenvalues --    4.02202   4.08403   4.09071   4.19132   4.20645
  Beta virt. eigenvalues --    4.21030   4.31215   4.33168   4.35177   4.40724
  Beta virt. eigenvalues --    4.49114   4.60117   4.63958   4.82348   4.96707
  Beta virt. eigenvalues --    5.05813   5.12757   5.41151   5.49530   5.60586
  Beta virt. eigenvalues --    5.62469   5.69249   5.69264   5.72264   5.75269
  Beta virt. eigenvalues --    5.95766   6.09461   6.09490   6.13040   6.16133
  Beta virt. eigenvalues --    6.18002   6.27616   6.32949   6.33162   6.38960
  Beta virt. eigenvalues --    6.53710   6.59277   6.63845   6.66973   6.68545
  Beta virt. eigenvalues --    6.71339   6.74314   6.80573   6.85676   6.97206
  Beta virt. eigenvalues --    7.08934   7.14490   7.22367   7.25853   7.27185
  Beta virt. eigenvalues --    7.43795   7.49073   7.50379   7.57257   7.57616
  Beta virt. eigenvalues --    7.60220   7.66026   7.71258   7.75548   7.76462
  Beta virt. eigenvalues --    7.86987   7.88620   7.91330   7.94516   7.96152
  Beta virt. eigenvalues --    7.99791   8.01689   8.10842   8.19292   8.24785
  Beta virt. eigenvalues --    8.26757   8.36805   8.41708   8.44457   8.53239
  Beta virt. eigenvalues --    8.56157   8.60994   8.63674   8.65837   8.69187
  Beta virt. eigenvalues --    8.75861   8.78831   8.79890   8.92693   8.94270
  Beta virt. eigenvalues --    8.95437   9.14447   9.18758   9.22897   9.27375
  Beta virt. eigenvalues --    9.34558   9.34804   9.44078   9.44544   9.50457
  Beta virt. eigenvalues --    9.63833   9.65106   9.78559   9.90964   9.94981
  Beta virt. eigenvalues --    9.99180  10.04485  10.06594  10.16123  10.16851
  Beta virt. eigenvalues --   10.23641  10.23939  10.36270  10.69346  10.76277
  Beta virt. eigenvalues --   10.88238  11.17804  11.86009  12.01151  12.08520
  Beta virt. eigenvalues --   12.28990  13.33856  15.25439  25.65572  29.46027
  Beta virt. eigenvalues --   29.98041  30.37272  30.73609  38.76866  85.92776
  Beta virt. eigenvalues --  149.88379 199.64808 455.83511
          Condensed to atoms (all electrons):
               1          2          3          4          5          6
     1  C    5.085682   0.475550  -0.028250   0.376346   0.448746  -0.034681
     2  S    0.475550  14.783687   0.331106  -0.028892  -0.018682   0.013288
     3  N   -0.028250   0.331106   7.027122   0.003238  -0.007206   0.263968
     4  H    0.376346  -0.028892   0.003238   0.491608  -0.028775   0.002893
     5  H    0.448746  -0.018682  -0.007206  -0.028775   0.488713  -0.002512
     6  H   -0.034681   0.013288   0.263968   0.002893  -0.002512   0.590915
          Atomic-Atomic Spin Densities.
               1          2          3          4          5          6
     1  C    0.000000   0.000000   0.000000   0.000000   0.000000   0.000000
     2  S    0.000000   0.000000   0.000000   0.000000   0.000000   0.000000
     3  N    0.000000   0.000000   0.000000   0.000000   0.000000   0.000000
     4  H    0.000000   0.000000   0.000000   0.000000   0.000000   0.000000
     5  H    0.000000   0.000000   0.000000   0.000000   0.000000   0.000000
     6  H    0.000000   0.000000   0.000000   0.000000   0.000000   0.000000
 Mulliken charges and spin densities:
               1          2
     1  C   -0.323391   0.000000
     2  S    0.443944   0.000000
     3  N   -0.589978   0.000000
     4  H    0.183581   0.000000
     5  H    0.119716   0.000000
     6  H    0.166128   0.000000
 Sum of Mulliken charges =  -0.00000   0.00000
 Mulliken charges and spin densities with hydrogens summed into heavy atoms:
               1          2
     1  C   -0.020094   0.000000
     2  S    0.443944   0.000000
     3  N   -0.423850   0.000000
 Electronic spatial extent (au):  <R**2>=            823.8272
 Charge=             -0.0000 electrons
 Dipole moment (field-independent basis, Debye):
    X=             -3.0061    Y=             -0.4765    Z=             -0.2429  Tot=              3.0533
 Quadrupole moment (field-independent basis, Debye-Ang):
   XX=            -40.9937   YY=            -24.9825   ZZ=            -26.2677
   XY=             -4.1808   XZ=             -2.5499   YZ=              1.7245
 Traceless Quadrupole moment (field-independent basis, Debye-Ang):
   XX=            -10.2458   YY=              5.7655   ZZ=              4.4803
   XY=             -4.1808   XZ=             -2.5499   YZ=              1.7245
 Octapole moment (field-independent basis, Debye-Ang**2):
  XXX=           -241.1926  YYY=            -28.5332  ZZZ=            -19.8125  XYY=            -60.8940
  XXY=            -32.0592  XXZ=            -19.7952  XZZ=            -60.0580  YZZ=             -8.6931
  YYZ=             -2.8652  XYZ=             -0.1340
 Hexadecapole moment (field-independent basis, Debye-Ang**3):
 XXXX=          -1231.3145 YYYY=            -94.5235 ZZZZ=            -62.2763 XXXY=           -190.2176
 XXXZ=           -117.2271 YYYX=            -90.6976 YYYZ=            -12.2657 ZZZX=            -60.0834
 ZZZY=            -19.8566 XXYY=           -197.0444 XXZZ=           -179.2239 YYZZ=            -21.3958
 XXYZ=            -16.6463 YYXZ=            -11.7804 ZZXY=            -28.3384
 N-N= 1.020311797422D+02 E-N=-1.369817508379D+03  KE= 4.912448788175D+02
                          Isotropic Fermi Contact Couplings
        Atom                 a.u.       MegaHertz       Gauss      10(-4) cm-1
     1  C(13)              0.00000       0.00000       0.00000       0.00000
     2  S(33)              0.00000       0.00000       0.00000       0.00000
     3  N(14)              0.00000       0.00000       0.00000       0.00000
     4  H(1)               0.00000       0.00000       0.00000       0.00000
     5  H(1)               0.00000       0.00000       0.00000       0.00000
     6  H(1)               0.00000       0.00000       0.00000       0.00000
 --------------------------------------------------------
       Center         ----  Spin Dipole Couplings  ----
                      3XX-RR        3YY-RR        3ZZ-RR
 --------------------------------------------------------
     1   Atom        0.000000      0.000000      0.000000
     2   Atom        0.000000      0.000000      0.000000
     3   Atom        0.000000      0.000000      0.000000
     4   Atom        0.000000      0.000000      0.000000
     5   Atom        0.000000      0.000000      0.000000
     6   Atom        0.000000      0.000000      0.000000
 --------------------------------------------------------
                        XY            XZ            YZ
 --------------------------------------------------------
     1   Atom        0.000000      0.000000      0.000000
     2   Atom        0.000000      0.000000      0.000000
     3   Atom        0.000000      0.000000      0.000000
     4   Atom        0.000000      0.000000      0.000000
     5   Atom        0.000000      0.000000      0.000000
     6   Atom        0.000000      0.000000      0.000000
 --------------------------------------------------------


 ---------------------------------------------------------------------------------
              Anisotropic Spin Dipole Couplings in Principal Axis System
 ---------------------------------------------------------------------------------

       Atom             a.u.   MegaHertz   Gauss  10(-4) cm-1        Axes

              Baa     0.0000     0.000     0.000     0.000  1.0000  0.0000  0.0000
     1 C(13)  Bbb     0.0000     0.000     0.000     0.000 -0.0000  1.0000  0.0000
              Bcc     0.0000     0.000     0.000     0.000  0.0000  0.0000  1.0000
 
              Baa     0.0000     0.000     0.000     0.000  1.0000  0.0000  0.0000
     2 S(33)  Bbb     0.0000     0.000     0.000     0.000 -0.0000  1.0000  0.0000
              Bcc     0.0000     0.000     0.000     0.000  0.0000  0.0000  1.0000
 
              Baa     0.0000     0.000     0.000     0.000  1.0000  0.0000  0.0000
     3 N(14)  Bbb     0.0000     0.000     0.000     0.000 -0.0000  1.0000  0.0000
              Bcc     0.0000     0.000     0.000     0.000  0.0000  0.0000  1.0000
 
              Baa     0.0000     0.000     0.000     0.000  1.0000  0.0000  0.0000
     4 H(1)   Bbb     0.0000     0.000     0.000     0.000 -0.0000  1.0000  0.0000
              Bcc     0.0000     0.000     0.000     0.000  0.0000  0.0000  1.0000
 
              Baa     0.0000     0.000     0.000     0.000  1.0000  0.0000  0.0000
     5 H(1)   Bbb     0.0000     0.000     0.000     0.000 -0.0000  1.0000  0.0000
              Bcc     0.0000     0.000     0.000     0.000  0.0000  0.0000  1.0000
 
              Baa     0.0000     0.000     0.000     0.000  1.0000  0.0000  0.0000
     6 H(1)   Bbb     0.0000     0.000     0.000     0.000 -0.0000  1.0000  0.0000
              Bcc     0.0000     0.000     0.000     0.000  0.0000  0.0000  1.0000
 

 ---------------------------------------------------------------------------------

 No NMR shielding tensors so no spin-rotation constants.
 Leave Link  601 at Tue Jan  3 09:11:06 2023, MaxMem=   536870912 cpu:               0.6 elap:               0.3
 (Enter /opt/software/gaussian/g16.c01/l801.exe)
 Range of M.O.s used for correlation:     1   304
 NBasis=   304 NAE=    16 NBE=    16 NFC=     0 NFV=     0
 NROrb=    304 NOA=    16 NOB=    16 NVA=   288 NVB=   288

 **** Warning!!: The largest alpha MO coefficient is  0.10016451D+03


 **** Warning!!: The largest beta MO coefficient is  0.10016451D+03

 Leave Link  801 at Tue Jan  3 09:11:06 2023, MaxMem=   536870912 cpu:               0.1 elap:               0.0
 (Enter /opt/software/gaussian/g16.c01/l914.exe)
 UHF ground state
 Doing stability rather than CIS.
 Two-electron integral symmetry not used.
 MDV=   536870912 DFT=F DoStab=T Mixed=F DoRPA=F DoScal=F NonHer=F
 Making orbital integer symmetry assigments:
 FoFJK:  IHMeth= 1 ICntrl=       0 DoSepK=F KAlg= 0 I1Cent=           0 FoldK=F
 IRaf=         0 NMat=       2 IRICut=       1 DoRegI=T DoRafI=F ISym2E= 0 IDoP0=0 IntGTp=1.
 FoFCou: FMM=F IPFlag=           0 FMFlag=      100000 FMFlg1=           0
         NFxFlg=           0 DoJE=F BraDBF=F KetDBF=F FulRan=T
         wScrn=  0.000000 ICntrl=         0 IOpCl=  1 I1Cent=           0 NGrid=           0
         NMat0=    2 NMatS0=      2 NMatT0=    0 NMatD0=    2 NMtDS0=    0 NMtDT0=    0
 Symmetry not used in FoFCou.
    12 initial guesses have been made.
 Convergence on wavefunction:    0.001000000000000
 Davidson Disk Diagonalization:  ConvIn= 1.00D-03 SkipCon=T Conv= 1.00D-03.
 Max sub-space:  2000 roots to seek:    12 dimension of matrix:         9216
 Iteration     1 Dimension    12 NMult     0 NNew     12
 CISAX will form    12 AO SS matrices at one time.
 NMat=    12 NSing=    12 JSym2X= 0.
 New state      1 was old state      2
 Excitation Energies [eV] at current iteration:
 Root      1 :    -0.282564684034129
 Root      2 :     4.427344458147140
 Root      3 :     4.745357398649244
 Root      4 :     5.299249227351507
 Root      5 :     6.031829421236010
 Root      6 :     6.590918482243282
 Root      7 :     6.812242714418690
 Root      8 :     6.965591753149481
 Root      9 :     7.381797167719541
 Root     10 :     8.854694111503425
 Root     11 :     8.986197201105275
 Root     12 :    12.667291052546268
 Iteration     2 Dimension    24 NMult    12 NNew     12
 CISAX will form    12 AO SS matrices at one time.
 NMat=    12 NSing=    12 JSym2X= 0.
 Root      1 not converged, maximum delta is    0.058836078726981
 Excitation Energies [eV] at current iteration:
 Root      1 :    -1.563072677402896   Change is   -1.280507993368767
 Root      2 :     3.054920249659828   Change is   -1.372424208487311
 Root      3 :     3.289740437414481   Change is   -1.455616961234763
 Root      4 :     4.078127266991959   Change is   -1.221121960359548
 Root      5 :     4.771324819209061   Change is   -4.214872381896215
 Root      6 :     5.444615121839612   Change is   -0.587214299396398
 Root      7 :     5.782518285784561   Change is   -1.183073467364920
 Root      8 :     5.901638863958096   Change is   -0.689279618285186
 Root      9 :     6.078466390292568   Change is   -0.733776324126123
 Root     10 :     6.609563271753787   Change is   -0.772233895965754
 Root     11 :     7.641631222887293   Change is   -1.213062888616133
 Root     12 :     8.900533864664999   Change is   -3.766757187881269
 Iteration     3 Dimension    27 NMult    24 NNew      3
 CISAX will form     3 AO SS matrices at one time.
 NMat=     3 NSing=     3 JSym2X= 0.
 Root      1 not converged, maximum delta is    0.011867959160075
 Excitation Energies [eV] at current iteration:
 Root      1 :    -1.622515119943864   Change is   -0.059442442540968
 Root      2 :     2.936548846374504   Change is   -0.118371403285325
 Root      3 :     3.168435195314431   Change is   -0.121305242100050
 Iteration     4 Dimension    30 NMult    27 NNew      3
 CISAX will form     3 AO SS matrices at one time.
 NMat=     3 NSing=     3 JSym2X= 0.
 Root      1 not converged, maximum delta is    0.001949285194576
 Excitation Energies [eV] at current iteration:
 Root      1 :    -1.627603605444864   Change is   -0.005088485501000
 Root      2 :     2.917607741009665   Change is   -0.018941105364838
 Root      3 :     3.150608041399282   Change is   -0.017827153915149
 Iteration     5 Dimension    33 NMult    30 NNew      3
 CISAX will form     3 AO SS matrices at one time.
 NMat=     3 NSing=     3 JSym2X= 0.
 Root      1 has converged.
 Excitation Energies [eV] at current iteration:
 Root      1 :    -1.628022691492994   Change is   -0.000419086048131
 Root      2 :     2.914019573819741   Change is   -0.003588167189924
 Root      3 :     3.146745843348937   Change is   -0.003862198050345
 Convergence achieved on expansion vectors.
 ***********************************************************************
 Stability analysis using <AA,BB:AA,BB> singles matrix:
 ***********************************************************************
 1PDM for each excited state written to RWF  633
 Ground to excited state transition densities written to RWF  633

 Eigenvectors of the stability matrix:
 
 Excited state symmetry could not be determined.
 Eigenvector   1:  3.000-?Sym  Eigenvalue=-0.0598287  <S**2>=2.000
     16A -> 18A       -0.60662
     16A -> 21A        0.19725
     16A -> 26A       -0.13130
     16A -> 29A       -0.15850
     16B -> 18B        0.60662
     16B -> 21B       -0.19725
     16B -> 26B        0.13130
     16B -> 29B        0.15850
 The wavefunction has an internal instability.
 Leave Link  914 at Tue Jan  3 09:17:29 2023, MaxMem=   536870912 cpu:             764.7 elap:             382.6
 (Enter /opt/software/gaussian/g16.c01/l508.exe)
 Two-electron integral symmetry not used.
 Very tight linear equation convergence will be used.
 UHF wavefunction.
 Quadratic Convergence SCF Method.
 Line search only if initial step raises energy.
 Fock matrices will be formed incrementally for  20 cycles.
 Perform preliminary linear searches along instability eigenvector.
     ILin= 1 X=0.000D+00 Y=-4.915659032623D+02 DE= 0.00D+00
 FoFJK:  IHMeth= 1 ICntrl=       0 DoSepK=F KAlg= 0 I1Cent=           0 FoldK=F
 IRaf= 980000000 NMat=       1 IRICut=       1 DoRegI=T DoRafI=F ISym2E= 0 IDoP0=0 IntGTp=1.
 FoFCou: FMM=F IPFlag=           0 FMFlag=      100000 FMFlg1=           0
         NFxFlg=           0 DoJE=F BraDBF=F KetDBF=F FulRan=T
         wScrn=  0.000000 ICntrl=         0 IOpCl=  1 I1Cent=           0 NGrid=           0
         NMat0=    1 NMatS0=      1 NMatT0=    0 NMatD0=    1 NMtDS0=    0 NMtDT0=    0
 Symmetry not used in FoFCou.
     ILin= 2 X=1.000D-01 Y=-4.915664888873D+02 DE=-5.86D-04
     ILin= 3 X=1.414D-01 Y=-4.915670497410D+02 DE=-1.15D-03
     ILin= 4 X=2.000D-01 Y=-4.915680979452D+02 DE=-2.19D-03
     ILin= 5 X=2.828D-01 Y=-4.915699059559D+02 DE=-4.00D-03
     ILin= 6 X=4.000D-01 Y=-4.915724124253D+02 DE=-6.51D-03
     ILin= 7 X=5.657D-01 Y=-4.915733252505D+02 DE=-7.42D-03
     ILin= 8 X=8.000D-01 Y=-4.915612384002D+02 DE= 4.66D-03
     An  expanding polynomial of degree  8 produced  0.5171
 Iteration F X= 5.171D-01 EE=-4.915735961314111D+02
     ILin= 1 X=0.000D+00 Y=-4.915659032623D+02 DE= 0.00D+00
     ILin= 2 X=1.000D-01 Y=-4.915664888823D+02 DE=-5.86D-04
     ILin= 3 X=1.414D-01 Y=-4.915670497268D+02 DE=-1.15D-03
 The two search directions are symmetric.
 Iteration B X= 5.171D-01 EE=-4.915735961314111D+02
 Take forward step, X= 5.171D-01 Step= 5.171D-01
 Iteration   1 EE= -491.573596104733                                    Grad=3.979D-02 Max rot=    0.6659 deg.
 Gradient too large for Newton-Raphson -- use scaled steepest descent instead.
 Alpha Gap=     0.422 HL deriv= 1.35D-06
  Beta Gap=     0.410 HL deriv= 1.45D-06
     ILin= 1 X=0.000D+00 Y=-4.915735961047D+02 DE= 0.00D+00 F= -2.91D-03
 RMSU=  3.22D-05    CP:  1.00D+00
     ILin= 2 X=3.000D-01 Y=-4.915743830536D+02 DE=-7.87D-04 F= -2.33D-03 OKLS=F
 RMSU=  3.64D-07    CP:  1.00D+00  2.00D+00
     ILin= 3 X=6.000D-01 Y=-4.915749959172D+02 DE=-1.40D-03 F= -1.75D-03
 RMSU=  3.24D-05    CP:  1.00D+00  3.00D+00  3.00D+00
     ILin= 4 X=1.200D+00 Y=-4.915757003128D+02 DE=-2.10D-03 F= -5.96D-04
 RMSU=  6.49D-05    CP:  1.00D+00  3.00D+00  3.00D+00  3.00D+00
     ILin= 5 X=2.400D+00 Y=-4.915750310248D+02 DE=-1.43D-03 F=  1.71D-03
     An  expanding polynomial of degree  5 produced  1.5094
 RMSU=  3.83D-07    CP:  1.00D+00  3.00D+00  3.00D+00  2.03D+00  3.31D-04
 Iteration   2 EE= -491.575792426981     Delta-E=       -0.002196322248 Grad=2.060D-02 Max rot=    0.3509 deg.
 Gradient too large for Newton-Raphson -- use scaled steepest descent instead.
 Alpha Gap=     0.418 HL deriv= 3.34D-06
  Beta Gap=     0.406 HL deriv= 3.34D-06
     ILin= 1 X=0.000D+00 Y=-4.915757924270D+02 DE= 0.00D+00 F= -7.83D-04
 RMSU=  3.88D-05    CP:  1.00D+00  3.00D+00  3.00D+00  1.98D+00  2.72D-03
                    CP:  3.00D+00
     ILin= 2 X=7.000D-01 Y=-4.915761739895D+02 DE=-3.82D-04 F= -3.07D-04 OKLS=F
 RMSU=  1.13D-06    CP:  1.00D+00  3.00D+00  3.00D+00  1.93D+00  5.09D-03
                    CP:  3.00D+00  1.86D+00
     ILin= 3 X=1.300D+00 Y=-4.915762354621D+02 DE=-4.43D-04 F=  1.02D-04
     Accept linear search using points  2 and  3.
     An  expanding polynomial of degree  3 produced  1.0665
 RMSU=  3.05D-08    CP:  1.00D+00  3.00D+00  3.00D+00  1.95D+00  4.13D-03
                    CP:  3.00D+00  1.52D+00  5.59D-01
 Iteration   3 EE= -491.576240729230     Delta-E=       -0.000448302249 Grad=1.644D-02 Max rot=    0.2013 deg.
 Gradient too large for Newton-Raphson -- use scaled steepest descent instead.
 Alpha Gap=     0.425 HL deriv= 1.59D-06
  Beta Gap=     0.410 HL deriv= 1.77D-06
     ILin= 1 X=0.000D+00 Y=-4.915762407292D+02 DE= 0.00D+00 F= -4.48D-04
 RMSU=  4.12D-05    CP:  1.00D+00  3.00D+00  3.00D+00  2.78D+00  3.58D-03
                    CP:  3.00D+00  1.75D+00 -5.87D-02 -3.00D+00
     ILin= 2 X=1.300D+00 Y=-4.915765230280D+02 DE=-2.82D-04 F=  1.36D-05 OKLS=T
     Accept linear search using points  1 and  2.
     An  expanding polynomial of degree  2 produced  1.2804
     Minimum is close to point  2 DX= -1.96D-02 DF= -1.02D-07 DXR=  1.53D-02 DFR=  3.62D-04 which will be used.
 Iteration   4 EE= -491.576523027958     Delta-E=       -0.000282298728 Grad=1.542D-02 Max rot=    0.2862 deg.
 Gradient too large for Newton-Raphson -- use scaled steepest descent instead.
 Alpha Gap=     0.422 HL deriv= 8.01D-07
  Beta Gap=     0.409 HL deriv= 2.61D-06
     ILin= 1 X=0.000D+00 Y=-4.915765230280D+02 DE= 0.00D+00 F= -4.64D-04
 RMSU=  2.48D-05    CP:  1.00D+00  3.00D+00  3.00D+00  2.93D+00  9.42D-03
                    CP:  3.00D+00  2.62D+00  3.00D+00  3.00D+00  7.31D-01
     ILin= 2 X=1.200D+00 Y=-4.915767140618D+02 DE=-1.91D-04 F=  1.45D-04 OKLS=T
     Accept linear search using points  1 and  2.
     An  expanding polynomial of degree  2 produced  0.9734
 RMSU=  7.52D-07    CP:  1.00D+00  3.00D+00  3.00D+00  2.90D+00  8.27D-03
                    CP:  3.00D+00  2.45D+00  3.00D+00 -2.21D+00  7.82D-01
                    CP:  8.09D-01
 Iteration   5 EE= -491.576733932564     Delta-E=       -0.000210904606 Grad=1.291D-02 Max rot=    0.1385 deg.
 Gradient too large for Newton-Raphson -- use scaled steepest descent instead.
 Alpha Gap=     0.428 HL deriv= 1.17D-06
  Beta Gap=     0.410 HL deriv= 1.17D-06
     ILin= 1 X=0.000D+00 Y=-4.915767339326D+02 DE= 0.00D+00 F= -2.77D-04
 RMSU=  8.90D-06    CP:  1.00D+00  3.00D+00  3.00D+00  3.00D+00  2.15D-01
                    CP:  3.00D+00  2.57D+00  3.00D+00 -3.00D+00  1.44D+00
                    CP:  7.63D-01  1.23D+00
     ILin= 2 X=1.100D+00 Y=-4.915768860171D+02 DE=-1.52D-04 F=  5.57D-07 OKLS=T
     Accept linear search using points  1 and  2.
     An  expanding polynomial of degree  2 produced  1.0983
     Minimum is close to point  2 DX= -1.68D-03 DF= -4.26D-10 DXR=  1.53D-03 DFR=  2.80D-06 which will be used.
 Iteration   6 EE= -491.576886017118     Delta-E=       -0.000152084554 Grad=1.019D-02 Max rot=    0.2211 deg.
 Gradient too large for Newton-Raphson -- use scaled steepest descent instead.
 Alpha Gap=     0.426 HL deriv= 4.57D-07
  Beta Gap=     0.410 HL deriv= 2.00D-06
     ILin= 1 X=0.000D+00 Y=-4.915768860171D+02 DE= 0.00D+00 F= -2.25D-04
 RMSU=  3.96D-06    CP:  1.00D+00  3.00D+00  3.00D+00  3.00D+00  2.96D-01
                    CP:  3.00D+00  3.00D+00  3.00D+00 -3.00D+00  1.33D+00
                    CP:  1.42D+00 -1.77D+00  7.49D-01
     ILin= 2 X=1.000D+00 Y=-4.915770008477D+02 DE=-1.15D-04 F= -4.63D-06 OKLS=T
     Reject lnstep IMin12=  1  2 Big=T Turn=F Min= 1.021D+00 FVal=-4.915770008963D+02 Lims=  0.00D+00  1.00D+00
 RMSU=  1.73D-05    CP:  1.00D+00  3.00D+00  3.00D+00  3.00D+00  3.86D-01
                    CP:  3.00D+00  3.00D+00  3.00D+00 -3.00D+00  1.22D+00
                    CP:  2.14D+00 -3.00D+00  4.75D-01  3.00D+00
     ILin= 3 X=2.100D+00 Y=-4.915768726995D+02 DE= 1.33D-05 F=  2.38D-04
     An  expanding polynomial of degree  3 produced  1.0212
     Minimum is close to point  2 DX=  2.12D-02 DF= -4.96D-08 DXR=  2.08D-02 DFR=  4.32D-04 which will be used.
 Iteration   7 EE= -491.577000847688     Delta-E=       -0.000114830571 Grad=9.401D-03 Max rot=    0.1048 deg.
 QCNR:  CnvC1=9.60D-10 CnvC2=9.60D-09
 LinEq1:  Iter=  0 NonCon=     1 RMS=1.04D-04 Max=4.88D-03 NDo=     1
 AX will form     1 AO Fock derivatives at one time.
 LinEq1:  Iter=  1 NonCon=     1 RMS=9.17D-05 Max=5.77D-03 NDo=     1
 LinEq1:  Iter=  2 NonCon=     1 RMS=6.09D-06 Max=1.74D-04 NDo=     1
 LinEq1:  Iter=  3 NonCon=     1 RMS=3.21D-06 Max=1.40D-04 NDo=     1
 LinEq1:  Iter=  4 NonCon=     1 RMS=1.10D-06 Max=5.45D-05 NDo=     1
 LinEq1:  Iter=  5 NonCon=     1 RMS=2.41D-07 Max=4.19D-06 NDo=     1
 LinEq1:  Iter=  6 NonCon=     1 RMS=8.23D-08 Max=2.03D-06 NDo=     1
 LinEq1:  Iter=  7 NonCon=     1 RMS=2.16D-08 Max=4.04D-07 NDo=     1
 LinEq1:  Iter=  8 NonCon=     1 RMS=5.44D-09 Max=1.05D-07 NDo=     1
 LinEq1:  Iter=  9 NonCon=     1 RMS=1.71D-09 Max=2.41D-08 NDo=     1
 LinEq1:  Iter= 10 NonCon=     0 RMS=4.25D-10 Max=8.36D-09 NDo=     1
 Linear equations converged to 9.600D-10 9.600D-09 after    10 iterations.
 Angle between quadratic step and gradient=  56.98 degrees.
     ILin= 1 X=0.000D+00 Y=-4.915770008477D+02 DE= 0.00D+00 F= -7.24D-04
 RMSU=  3.46D-05    CP:  1.00D+00  3.00D+00  3.00D+00  3.00D+00  1.30D+00
                    CP:  3.00D+00  3.00D+00  3.00D+00 -3.00D+00  3.00D+00
                    CP:  3.00D+00 -3.00D+00  3.00D+00  3.00D+00  3.00D+00
     ILin= 2 X=1.000D+00 Y=-4.915773394430D+02 DE=-3.39D-04 F=  7.16D-05 OKLS=T
     Accept linear search using points  1 and  2.
     An  expanding polynomial of degree  2 produced  0.9173
     Minimum is close to point  2 DX= -8.27D-02 DF= -2.95D-06 DXR=  9.01D-02 DFR=  8.71D-03 which will be used.
 Iteration   8 EE= -491.577339442987     Delta-E=       -0.000338595298 Grad=9.947D-04 Max rot=    0.0163 deg.
 QCNR:  CnvC1=9.60D-10 CnvC2=9.60D-09
 LinEq1:  Iter=  0 NonCon=     1 RMS=1.40D-05 Max=6.25D-04 NDo=     1
 LinEq1:  Iter=  1 NonCon=     1 RMS=3.18D-06 Max=1.36D-04 NDo=     1
 LinEq1:  Iter=  2 NonCon=     1 RMS=1.34D-06 Max=6.04D-05 NDo=     1
 LinEq1:  Iter=  3 NonCon=     1 RMS=4.08D-07 Max=7.83D-06 NDo=     1
 LinEq1:  Iter=  4 NonCon=     1 RMS=2.16D-07 Max=7.90D-06 NDo=     1
 LinEq1:  Iter=  5 NonCon=     1 RMS=8.74D-08 Max=1.74D-06 NDo=     1
 LinEq1:  Iter=  6 NonCon=     1 RMS=3.47D-08 Max=1.05D-06 NDo=     1
 LinEq1:  Iter=  7 NonCon=     1 RMS=1.16D-08 Max=2.33D-07 NDo=     1
 LinEq1:  Iter=  8 NonCon=     1 RMS=3.11D-09 Max=4.85D-08 NDo=     1
 LinEq1:  Iter=  9 NonCon=     1 RMS=9.47D-10 Max=1.52D-08 NDo=     1
 LinEq1:  Iter= 10 NonCon=     0 RMS=2.44D-10 Max=3.41D-09 NDo=     1
 Linear equations converged to 9.600D-10 9.600D-09 after    10 iterations.
 Angle between quadratic step and gradient=  46.69 degrees.
     ILin= 1 X=0.000D+00 Y=-4.915773394430D+02 DE= 0.00D+00 F= -8.21D-06
 RMSU=  7.43D-06    CP:  1.00D+00  3.00D+00  3.00D+00  3.00D+00  1.24D+00
                    CP:  3.00D+00  3.00D+00  3.00D+00 -3.00D+00  2.89D+00
                    CP:  3.00D+00 -3.00D+00  3.00D+00  3.00D+00  3.00D+00
                    CP:  8.43D-01
     ILin= 2 X=1.000D+00 Y=-4.915773435806D+02 DE=-4.14D-06 F= -9.98D-08 OKLS=T
     Reject lnstep IMin12=  1  2 Big=T Turn=F Min= 1.012D+00 FVal=-4.915773435812D+02 Lims=  0.00D+00  1.00D+00
 RMSU=  2.49D-06    CP:  1.00D+00  3.00D+00  3.00D+00  3.00D+00  1.17D+00
                    CP:  3.00D+00  3.00D+00  3.00D+00 -3.00D+00  2.76D+00
                    CP:  2.88D+00 -3.00D+00  3.00D+00  3.00D+00  3.00D+00
                    CP:  7.07D-01  1.75D+00
     ILin= 3 X=2.000D+00 Y=-4.915773397090D+02 DE=-2.66D-07 F=  7.81D-06
     An  expanding polynomial of degree  3 produced  1.0166
     Minimum is close to point  2 DX=  1.66D-02 DF= -1.10D-09 DXR=  1.63D-02 DFR=  2.67D-04 which will be used.
 Iteration   9 EE= -491.577343580565     Delta-E=       -0.000004137578 Grad=1.025D-05 Max rot=    0.0002 deg.
 QCNR:  CnvC1=1.03D-10 CnvC2=1.03D-09
 LinEq1:  Iter=  0 NonCon=     1 RMS=1.72D-07 Max=9.68D-06 NDo=     1
 LinEq1:  Iter=  1 NonCon=     1 RMS=3.65D-08 Max=1.54D-06 NDo=     1
 LinEq1:  Iter=  2 NonCon=     1 RMS=1.46D-08 Max=5.60D-07 NDo=     1
 LinEq1:  Iter=  3 NonCon=     1 RMS=5.43D-09 Max=1.89D-07 NDo=     1
 LinEq1:  Iter=  4 NonCon=     1 RMS=2.39D-09 Max=7.95D-08 NDo=     1
 LinEq1:  Iter=  5 NonCon=     1 RMS=1.08D-09 Max=2.45D-08 NDo=     1
 LinEq1:  Iter=  6 NonCon=     1 RMS=3.30D-10 Max=7.63D-09 NDo=     1
 LinEq1:  Iter=  7 NonCon=     1 RMS=1.16D-10 Max=1.82D-09 NDo=     1
 LinEq1:  Iter=  8 NonCon=     0 RMS=3.39D-11 Max=4.35D-10 NDo=     1
 Linear equations converged to 1.025D-10 1.025D-09 after     8 iterations.
 Angle between quadratic step and gradient=  39.67 degrees.
     ILin= 1 X=0.000D+00 Y=-4.915773435806D+02 DE= 0.00D+00 F= -1.33D-09
 RMSU=  2.48D-08    CP:  1.00D+00  3.00D+00  3.00D+00  3.00D+00  1.24D+00
                    CP:  3.00D+00  3.00D+00  3.00D+00 -3.00D+00  2.89D+00
                    CP:  3.00D+00 -3.00D+00  3.00D+00  3.00D+00  3.00D+00
                    CP:  8.41D-01  1.01D+00  4.97D-04
     ILin= 2 X=1.000D+00 Y=-4.915773435812D+02 DE=-6.62D-10
 Iteration  10 EE= -491.577343581226     Delta-E=       -0.000000000662 Grad=2.067D-07 Max rot=    0.0000 deg.
 Rotation gradient small -- convergence achieved.
 SCF Done:  E(UHF) =  -491.577343581     a.u. after   10 cycles
            Convg  =    0.2067D-06                    56 Fock formations.
              S**2 =  0.6176                  -V/T =  2.0001
 <Sx>= 0.0000 <Sy>= 0.0000 <Sz>= 0.0000 <S**2>= 0.6176 S= 0.4315
 <L.S>=  0.00000000000    
 Annihilation of the first spin contaminant:
 S**2 before annihilation     0.6176,   after     0.1076
 Leave Link  508 at Tue Jan  3 09:37:18 2023, MaxMem=   536870912 cpu:            2376.8 elap:            1188.8
 (Enter /opt/software/gaussian/g16.c01/l801.exe)
 Range of M.O.s used for correlation:     1   304
 NBasis=   304 NAE=    16 NBE=    16 NFC=     0 NFV=     0
 NROrb=    304 NOA=    16 NOB=    16 NVA=   288 NVB=   288

 **** Warning!!: The largest alpha MO coefficient is  0.96874261D+02


 **** Warning!!: The largest beta MO coefficient is  0.10138873D+03

 Leave Link  801 at Tue Jan  3 09:37:18 2023, MaxMem=   536870912 cpu:               0.1 elap:               0.0
 (Enter /opt/software/gaussian/g16.c01/l914.exe)
 UHF ground state
 Doing stability rather than CIS.
 Two-electron integral symmetry not used.
 MDV=   536870912 DFT=F DoStab=T Mixed=F DoRPA=F DoScal=F NonHer=F
 Making orbital integer symmetry assigments:
 FoFJK:  IHMeth= 1 ICntrl=       0 DoSepK=F KAlg= 0 I1Cent=           0 FoldK=F
 IRaf=         0 NMat=       2 IRICut=       1 DoRegI=T DoRafI=F ISym2E= 0 IDoP0=0 IntGTp=1.
 FoFCou: FMM=F IPFlag=           0 FMFlag=      100000 FMFlg1=           0
         NFxFlg=           0 DoJE=F BraDBF=F KetDBF=F FulRan=T
         wScrn=  0.000000 ICntrl=         0 IOpCl=  1 I1Cent=           0 NGrid=           0
         NMat0=    2 NMatS0=      2 NMatT0=    0 NMatD0=    2 NMtDS0=    0 NMtDT0=    0
 Symmetry not used in FoFCou.
    12 initial guesses have been made.
 Convergence on wavefunction:    0.001000000000000
 Davidson Disk Diagonalization:  ConvIn= 1.00D-03 SkipCon=T Conv= 1.00D-03.
 Max sub-space:  2000 roots to seek:    12 dimension of matrix:         9216
 Iteration     1 Dimension    12 NMult     0 NNew     12
 CISAX will form    12 AO SS matrices at one time.
 NMat=    12 NSing=    12 JSym2X= 0.
 Excitation Energies [eV] at current iteration:
 Root      1 :     4.063788785177866
 Root      2 :     4.964833191997942
 Root      3 :     5.946727038001437
 Root      4 :     6.486167384237620
 Root      5 :     6.677704519873743
 Root      6 :     6.687267231122964
 Root      7 :     7.149272086999346
 Root      8 :     7.167785347945462
 Root      9 :     7.618723041283809
 Root     10 :     8.040252354527858
 Root     11 :     9.348866744326543
 Root     12 :    10.240862745542969
 Iteration     2 Dimension    24 NMult    12 NNew     12
 CISAX will form    12 AO SS matrices at one time.
 NMat=    12 NSing=    12 JSym2X= 0.
 Root      1 not converged, maximum delta is    0.287133589718518
 Excitation Energies [eV] at current iteration:
 Root      1 :     2.468206929191348   Change is   -1.595581855986519
 Root      2 :     3.577079553561993   Change is   -1.387753638435949
 Root      3 :     3.810926434672715   Change is   -2.866778085201029
 Root      4 :     4.686649039773335   Change is   -1.260077998228102
 Root      5 :     5.828710501466418   Change is   -0.858556729656546
 Root      6 :     5.955873644918266   Change is   -0.530293739319355
 Root      7 :     6.164841424895799   Change is   -1.002943923049663
 Root      8 :     6.845006831271163   Change is   -0.773716210012647
 Root      9 :     6.888899028099675   Change is   -0.260373058899671
 Root     10 :     7.376108108790455   Change is   -0.664144245737404
 Root     11 :     7.907705142097512   Change is   -1.441161602229031
 Root     12 :     8.174563755547894   Change is   -2.066298989995077
 Iteration     3 Dimension    27 NMult    24 NNew      3
 CISAX will form     3 AO SS matrices at one time.
 NMat=     3 NSing=     3 JSym2X= 0.
 Root      1 not converged, maximum delta is    0.090225875884501
 Excitation Energies [eV] at current iteration:
 Root      1 :     2.150725193948242   Change is   -0.317481735243106
 Root      2 :     3.467389139907530   Change is   -0.109690413654462
 Root      3 :     3.468902481553044   Change is   -0.342023953119671
 Iteration     4 Dimension    30 NMult    27 NNew      3
 CISAX will form     3 AO SS matrices at one time.
 NMat=     3 NSing=     3 JSym2X= 0.
 Root      1 not converged, maximum delta is    0.015687632311556
 Excitation Energies [eV] at current iteration:
 Root      1 :     2.103069986375178   Change is   -0.047655207573064
 Root      2 :     3.418814156268620   Change is   -0.050088325284425
 Root      3 :     3.455055356025099   Change is   -0.012333783882432
 Iteration     5 Dimension    33 NMult    30 NNew      3
 CISAX will form     3 AO SS matrices at one time.
 NMat=     3 NSing=     3 JSym2X= 0.
 Root      1 not converged, maximum delta is    0.004706302087281
 Excitation Energies [eV] at current iteration:
 Root      1 :     2.094703751160536   Change is   -0.008366235214642
 Root      2 :     3.410763257876198   Change is   -0.008050898392421
 Root      3 :     3.453416280374882   Change is   -0.001639075650216
 Iteration     6 Dimension    36 NMult    33 NNew      3
 CISAX will form     3 AO SS matrices at one time.
 NMat=     3 NSing=     3 JSym2X= 0.
 Root      1 not converged, maximum delta is    0.001866170712863
 Excitation Energies [eV] at current iteration:
 Root      1 :     2.092773867447353   Change is   -0.001929883713183
 Root      2 :     3.409185809857256   Change is   -0.001577448018942
 Root      3 :     3.453232899538563   Change is   -0.000183380836320
 Iteration     7 Dimension    39 NMult    36 NNew      3
 CISAX will form     3 AO SS matrices at one time.
 NMat=     3 NSing=     3 JSym2X= 0.
 Root      1 has converged.
 Excitation Energies [eV] at current iteration:
 Root      1 :     2.092464680642284   Change is   -0.000309186805069
 Root      2 :     3.408654888166435   Change is   -0.000530921690821
 Root      3 :     3.453214006353171   Change is   -0.000018893185391
 Convergence achieved on expansion vectors.
 ***********************************************************************
 Stability analysis using <AA,BB:AA,BB> singles matrix:
 ***********************************************************************
 1PDM for each excited state written to RWF  633
 Ground to excited state transition densities written to RWF  633

 Eigenvectors of the stability matrix:
 
 Excited state symmetry could not be determined.
 Eigenvector   1:  2.105-?Sym  Eigenvalue= 0.0768967  <S**2>=0.858
     16A -> 21A        0.15465
     13B -> 21B       -0.23293
     16B -> 20B        0.12026
     16B -> 21B        0.81978
     16B -> 27B        0.24508
     16B -> 29B        0.10431
     16B -> 36B       -0.11684
 The wavefunction is stable under the perturbations considered.
 Leave Link  914 at Tue Jan  3 09:45:36 2023, MaxMem=   536870912 cpu:             996.8 elap:             498.5
 (Enter /opt/software/gaussian/g16.c01/l508.exe)
 The wavefunction is already stable.
 Leave Link  508 at Tue Jan  3 09:45:36 2023, MaxMem=   536870912 cpu:               0.0 elap:               0.0
 (Enter /opt/software/gaussian/g16.c01/l601.exe)
 Copying SCF densities to generalized density rwf, IOpCl= 1 IROHF=0.

 **********************************************************************

            Population analysis using the SCF Density.

 **********************************************************************

 Alpha  occ. eigenvalues --  -92.02846 -15.58042 -11.25301  -9.02481  -6.70850
 Alpha  occ. eigenvalues --   -6.70651  -6.70444  -1.23803  -1.01859  -0.80464
 Alpha  occ. eigenvalues --   -0.66417  -0.63148  -0.55865  -0.50159  -0.45410
 Alpha  occ. eigenvalues --   -0.36951
 Alpha virt. eigenvalues --    0.05091   0.05548   0.06190   0.06402   0.08800
 Alpha virt. eigenvalues --    0.11275   0.14003   0.14131   0.17324   0.18191
 Alpha virt. eigenvalues --    0.19554   0.20459   0.21592   0.23360   0.24199
 Alpha virt. eigenvalues --    0.24805   0.25061   0.25895   0.27793   0.27803
 Alpha virt. eigenvalues --    0.29322   0.30009   0.31199   0.31847   0.32817
 Alpha virt. eigenvalues --    0.34949   0.35251   0.36927   0.37160   0.38278
 Alpha virt. eigenvalues --    0.41798   0.42680   0.43280   0.43998   0.46094
 Alpha virt. eigenvalues --    0.47778   0.47983   0.49464   0.50643   0.51198
 Alpha virt. eigenvalues --    0.54349   0.55946   0.57777   0.58920   0.61630
 Alpha virt. eigenvalues --    0.62346   0.65993   0.67210   0.67854   0.69502
 Alpha virt. eigenvalues --    0.72120   0.73757   0.77508   0.77818   0.81035
 Alpha virt. eigenvalues --    0.86853   0.88872   0.92404   0.92823   0.96796
 Alpha virt. eigenvalues --    0.99570   1.01593   1.03819   1.04051   1.06848
 Alpha virt. eigenvalues --    1.08233   1.11104   1.13257   1.15543   1.15803
 Alpha virt. eigenvalues --    1.22264   1.24267   1.28406   1.29264   1.30638
 Alpha virt. eigenvalues --    1.32589   1.36168   1.36573   1.40669   1.42703
 Alpha virt. eigenvalues --    1.43897   1.45099   1.46135   1.51046   1.52118
 Alpha virt. eigenvalues --    1.54448   1.58451   1.59404   1.61878   1.64965
 Alpha virt. eigenvalues --    1.68408   1.74848   1.76908   1.79462   1.91062
 Alpha virt. eigenvalues --    1.91106   1.96597   2.04872   2.06461   2.12282
 Alpha virt. eigenvalues --    2.15933   2.18121   2.20473   2.23027   2.25101
 Alpha virt. eigenvalues --    2.27928   2.31922   2.36711   2.42960   2.48607
 Alpha virt. eigenvalues --    2.54051   2.55711   2.56617   2.60524   2.61223
 Alpha virt. eigenvalues --    2.67070   2.68484   2.73522   2.76081   2.76748
 Alpha virt. eigenvalues --    2.79074   2.86068   2.87232   2.87332   2.91803
 Alpha virt. eigenvalues --    2.92607   2.96301   2.98050   3.00479   3.02920
 Alpha virt. eigenvalues --    3.08759   3.10552   3.14420   3.16402   3.18443
 Alpha virt. eigenvalues --    3.20540   3.27306   3.27666   3.33491   3.36006
 Alpha virt. eigenvalues --    3.39639   3.45362   3.48929   3.53813   3.53887
 Alpha virt. eigenvalues --    3.60397   3.61898   3.64259   3.66110   3.70252
 Alpha virt. eigenvalues --    3.72654   3.72808   3.76806   3.80578   3.81404
 Alpha virt. eigenvalues --    3.88237   3.89824   3.92040   3.93667   3.99255
 Alpha virt. eigenvalues --    4.02935   4.07895   4.08161   4.19679   4.21282
 Alpha virt. eigenvalues --    4.21421   4.31830   4.32996   4.36342   4.41118
 Alpha virt. eigenvalues --    4.49579   4.59424   4.62250   4.82303   4.96939
 Alpha virt. eigenvalues --    5.03226   5.12711   5.42456   5.47998   5.61721
 Alpha virt. eigenvalues --    5.63641   5.70229   5.70645   5.73644   5.76812
 Alpha virt. eigenvalues --    5.97191   6.07957   6.09443   6.12804   6.17010
 Alpha virt. eigenvalues --    6.19109   6.28724   6.33721   6.33901   6.39850
 Alpha virt. eigenvalues --    6.54922   6.58699   6.64353   6.66825   6.67804
 Alpha virt. eigenvalues --    6.72312   6.73853   6.81324   6.86676   6.97938
 Alpha virt. eigenvalues --    7.10989   7.15525   7.21937   7.25365   7.25810
 Alpha virt. eigenvalues --    7.42510   7.48995   7.49859   7.54999   7.56964
 Alpha virt. eigenvalues --    7.60251   7.67107   7.69748   7.73662   7.76848
 Alpha virt. eigenvalues --    7.87411   7.89175   7.91344   7.93918   7.96073
 Alpha virt. eigenvalues --    7.99159   8.02362   8.11020   8.17840   8.23405
 Alpha virt. eigenvalues --    8.27884   8.36528   8.41736   8.45420   8.53701
 Alpha virt. eigenvalues --    8.56764   8.59530   8.63697   8.66477   8.69633
 Alpha virt. eigenvalues --    8.75962   8.78566   8.80415   8.90881   8.92215
 Alpha virt. eigenvalues --    8.95931   9.11848   9.17256   9.22307   9.25915
 Alpha virt. eigenvalues --    9.35384   9.36228   9.43830   9.46509   9.49991
 Alpha virt. eigenvalues --    9.61848   9.63032   9.77071   9.87416   9.94628
 Alpha virt. eigenvalues --    9.99521  10.01308  10.05975  10.16376  10.17714
 Alpha virt. eigenvalues --   10.23674  10.24926  10.34976  10.68479  10.76484
 Alpha virt. eigenvalues --   10.88921  11.16144  11.83532  11.98526  12.06958
 Alpha virt. eigenvalues --   12.29697  13.34923  15.23671  25.68493  29.47883
 Alpha virt. eigenvalues --   30.01141  30.40390  30.76654  38.74644  85.96067
 Alpha virt. eigenvalues --  149.90148 199.63026 455.87043
  Beta  occ. eigenvalues --  -92.02660 -15.55892 -11.27129  -9.02298  -6.70517
  Beta  occ. eigenvalues --   -6.70381  -6.70091  -1.20406  -1.02680  -0.81028
  Beta  occ. eigenvalues --   -0.66219  -0.63901  -0.51209  -0.48621  -0.44001
  Beta  occ. eigenvalues --   -0.34418
  Beta virt. eigenvalues --    0.05096   0.05437   0.06398   0.06498   0.08267
  Beta virt. eigenvalues --    0.11264   0.14028   0.14271   0.17281   0.19550
  Beta virt. eigenvalues --    0.19669   0.20366   0.20465   0.21623   0.24041
  Beta virt. eigenvalues --    0.24709   0.24975   0.25671   0.27598   0.28105
  Beta virt. eigenvalues --    0.29447   0.30096   0.31359   0.31791   0.32461
  Beta virt. eigenvalues --    0.34892   0.35243   0.36277   0.37323   0.38337
  Beta virt. eigenvalues --    0.41678   0.42565   0.43377   0.43835   0.45394
  Beta virt. eigenvalues --    0.47743   0.48181   0.49231   0.49784   0.51254
[...]
   219    H    4  pz     Ryd( 3p)     0.00012       2.77211
   220    H    4  pz     Ryd( 4p)     0.00000       2.92045
   221    H    4  pz     Ryd( 5p)     0.00000       8.08935
   222    H    4  dxy    Ryd( 3d)     0.00001       3.72169
   223    H    4  dxy    Ryd( 4d)     0.00000       8.87883
   224    H    4  dxz    Ryd( 3d)     0.00001       3.29760
   225    H    4  dxz    Ryd( 4d)     0.00000       8.63697
   226    H    4  dyz    Ryd( 3d)     0.00001       3.67957
   227    H    4  dyz    Ryd( 4d)     0.00000       8.90801
   228    H    4  dx2y2  Ryd( 3d)     0.00001       3.83376
   229    H    4  dx2y2  Ryd( 4d)     0.00000       8.87172
   230    H    4  dz2    Ryd( 3d)     0.00000       3.42454
   231    H    4  dz2    Ryd( 4d)     0.00000       8.68415
   232    H    4  f(0)   Ryd( 4f)     0.00001       6.70581
   233    H    4  f(C1)  Ryd( 4f)     0.00000       6.67172
   234    H    4  f(S1)  Ryd( 4f)     0.00000       6.87700
   235    H    4  f(C2)  Ryd( 4f)     0.00001       6.82594
   236    H    4  f(S2)  Ryd( 4f)     0.00002       6.68845
   237    H    4  f(C3)  Ryd( 4f)     0.00002       6.87852
   238    H    4  f(S3)  Ryd( 4f)     0.00000       6.95414
 
   239    H    5  S      Val( 1S)     0.37781       0.07689
   240    H    5  S      Ryd( 3S)     0.00030       2.02794
   241    H    5  S      Ryd( 2S)     0.00001       1.68663
   242    H    5  S      Ryd( 4S)     0.00000       5.34629
   243    H    5  px     Ryd( 2p)     0.00026       0.94312
   244    H    5  px     Ryd( 3p)     0.00002       2.78537
   245    H    5  px     Ryd( 4p)     0.00001       3.37310
   246    H    5  px     Ryd( 5p)     0.00000       7.97278
   247    H    5  py     Ryd( 2p)     0.00062       0.93213
   248    H    5  py     Ryd( 3p)     0.00014       2.77100
   249    H    5  py     Ryd( 4p)     0.00000       4.01001
   250    H    5  py     Ryd( 5p)     0.00000       8.02598
   251    H    5  pz     Ryd( 2p)     0.00031       0.85616
   252    H    5  pz     Ryd( 3p)     0.00016       2.55460
   253    H    5  pz     Ryd( 4p)     0.00000       3.12040
   254    H    5  pz     Ryd( 5p)     0.00000       7.89063
   255    H    5  dxy    Ryd( 3d)     0.00001       3.93306
   256    H    5  dxy    Ryd( 4d)     0.00000       8.66706
   257    H    5  dxz    Ryd( 3d)     0.00001       3.57535
   258    H    5  dxz    Ryd( 4d)     0.00000       8.45276
   259    H    5  dyz    Ryd( 3d)     0.00001       3.89726
   260    H    5  dyz    Ryd( 4d)     0.00000       8.63349
   261    H    5  dx2y2  Ryd( 3d)     0.00001       4.10463
   262    H    5  dx2y2  Ryd( 4d)     0.00000       8.64508
   263    H    5  dz2    Ryd( 3d)     0.00000       3.66335
   264    H    5  dz2    Ryd( 4d)     0.00000       8.44946
   265    H    5  f(0)   Ryd( 4f)     0.00001       6.70331
   266    H    5  f(C1)  Ryd( 4f)     0.00000       6.69685
   267    H    5  f(S1)  Ryd( 4f)     0.00000       6.84522
   268    H    5  f(C2)  Ryd( 4f)     0.00001       6.84953
   269    H    5  f(S2)  Ryd( 4f)     0.00002       6.66536
   270    H    5  f(C3)  Ryd( 4f)     0.00001       6.87837
   271    H    5  f(S3)  Ryd( 4f)     0.00001       6.94959
 
   272    H    6  S      Val( 1S)     0.33865       0.14683
   273    H    6  S      Ryd( 3S)     0.00026       1.82485
   274    H    6  S      Ryd( 4S)     0.00011       5.46029
   275    H    6  S      Ryd( 2S)     0.00003       0.98602
   276    H    6  px     Ryd( 2p)     0.00019       0.99818
   277    H    6  px     Ryd( 3p)     0.00021       3.48073
   278    H    6  px     Ryd( 4p)     0.00001       3.63650
   279    H    6  px     Ryd( 5p)     0.00000       8.08445
   280    H    6  py     Ryd( 2p)     0.00024       1.01537
   281    H    6  py     Ryd( 3p)     0.00019       3.73578
   282    H    6  py     Ryd( 4p)     0.00002       3.89112
   283    H    6  py     Ryd( 5p)     0.00000       8.12686
   284    H    6  pz     Ryd( 2p)     0.00025       0.82478
   285    H    6  pz     Ryd( 4p)     0.00013       3.34215
   286    H    6  pz     Ryd( 3p)     0.00001       3.22766
   287    H    6  pz     Ryd( 5p)     0.00000       7.82147
   288    H    6  dxy    Ryd( 3d)     0.00002       3.51060
   289    H    6  dxy    Ryd( 4d)     0.00001       9.06892
   290    H    6  dxz    Ryd( 3d)     0.00002       3.20088
   291    H    6  dxz    Ryd( 4d)     0.00001       8.77504
   292    H    6  dyz    Ryd( 3d)     0.00008       3.46710
   293    H    6  dyz    Ryd( 4d)     0.00001       8.94896
   294    H    6  dx2y2  Ryd( 3d)     0.00007       3.38935
   295    H    6  dx2y2  Ryd( 4d)     0.00000       8.96581
   296    H    6  dz2    Ryd( 3d)     0.00004       3.16614
   297    H    6  dz2    Ryd( 4d)     0.00000       8.73889
   298    H    6  f(0)   Ryd( 4f)     0.00001       6.70639
   299    H    6  f(C1)  Ryd( 4f)     0.00000       6.73531
   300    H    6  f(S1)  Ryd( 4f)     0.00000       6.80627
   301    H    6  f(C2)  Ryd( 4f)     0.00001       6.85442
   302    H    6  f(S2)  Ryd( 4f)     0.00002       6.68849
   303    H    6  f(C3)  Ryd( 4f)     0.00001       6.94151
   304    H    6  f(S3)  Ryd( 4f)     0.00001       6.94762

 WARNING:  Population inversion found on atom  C    1
           Population inversion found on atom  S    2
           Population inversion found on atom  N    3
           Population inversion found on atom  H    4
           Population inversion found on atom  H    5
           Population inversion found on atom  H    6


 Summary of Natural Population Analysis:                  
                                                          
                                       Natural Population 
                Natural  -----------------------------------------------
    Atom  No    Charge         Core      Valence    Rydberg      Total
 -----------------------------------------------------------------------
      C    1   -0.74024      0.99979     2.72488    0.01557     3.74024
      S    2    0.51391      4.99931     2.42228    0.06450     7.48609
      N    3   -0.17798      0.99986     2.64869    0.02942     3.67798
      H    4    0.12471      0.00000     0.37331    0.00198     0.37529
      H    5    0.12022      0.00000     0.37781    0.00196     0.37978
      H    6    0.15938      0.00000     0.33865    0.00197     0.34062
 =======================================================================
   * Total *    0.00000      6.99897     8.88563    0.11541    16.00000

                                 Natural Population      
 --------------------------------------------------------
   Core                       6.99897 ( 99.9852% of   7)
   Valence                    8.88563 ( 98.7292% of   9)
   Natural Minimal Basis     15.88459 ( 99.2787% of  16)
   Natural Rydberg Basis      0.11541 (  0.7213% of  16)
 --------------------------------------------------------

    Atom  No          Natural Electron Configuration
 ----------------------------------------------------------------------------
      C    1      [core]2S( 0.62)2p( 2.11)4d( 0.01)
      S    2      [core]3S( 0.75)3p( 1.67)4S( 0.01)4d( 0.04)5p( 0.01)
      N    3      [core]2S( 0.78)2p( 1.87)3p( 0.01)3d( 0.01)4d( 0.01)
      H    4            1S( 0.37)
      H    5            1S( 0.38)
      H    6            1S( 0.34)


 NBO analysis skipped by request.
 Leave Link  607 at Tue Jan  3 09:46:04 2023, MaxMem=   536870912 cpu:               3.8 elap:               1.9
 (Enter /opt/software/gaussian/g16.c01/l701.exe)
 ... and contract with generalized density number  0.
 Compute integral first derivatives.
 Leave Link  701 at Tue Jan  3 09:46:05 2023, MaxMem=   536870912 cpu:               0.5 elap:               0.3
 (Enter /opt/software/gaussian/g16.c01/l702.exe)
 L702 exits ... SP integral derivatives will be done elsewhere.
 Leave Link  702 at Tue Jan  3 09:46:05 2023, MaxMem=   536870912 cpu:               0.1 elap:               0.0
 (Enter /opt/software/gaussian/g16.c01/l703.exe)
 Integral derivatives from FoFJK, PRISM(SPDF).
 Compute integral first derivatives, UseDBF=F ICtDFT=           0.
 Calling FoFJK, ICntrl=      2127 FMM=F ISym2X=0 I1Cent= 0 IOpClX= 1 NMat=1 NMatS=1 NMatT=0.
 FoFJK:  IHMeth= 1 ICntrl=    2127 DoSepK=F KAlg= 0 I1Cent=           0 FoldK=F
 IRaf=         0 NMat=       1 IRICut=       1 DoRegI=T DoRafI=F ISym2E= 0 IDoP0=0 IntGTp=1.
 FoFCou: FMM=F IPFlag=           0 FMFlag=      100000 FMFlg1=         800
         NFxFlg=           0 DoJE=F BraDBF=F KetDBF=F FulRan=T
         wScrn=  0.000000 ICntrl=      2127 IOpCl=  1 I1Cent=           0 NGrid=           0
         NMat0=    1 NMatS0=      1 NMatT0=    0 NMatD0=    1 NMtDS0=    0 NMtDT0=    0
 Symmetry not used in FoFCou.
 Leave Link  703 at Tue Jan  3 09:47:41 2023, MaxMem=   536870912 cpu:             191.7 elap:              95.9
 (Enter /opt/software/gaussian/g16.c01/l716.exe)
 Dipole        =-1.11315300D+00 2.39132768D-02 4.26442484D-02
 -------------------------------------------------------------------
 Center     Atomic                   Forces (Hartrees/Bohr)
 Number     Number              X              Y              Z
 -------------------------------------------------------------------
      1        6          -0.033696196    0.007052618    0.005479286
      2       16           0.031283597   -0.005798340   -0.004593509
      3        7          -0.018955573    0.009806637    0.006953384
      4        1           0.006179465    0.010551488    0.006835663
      5        1           0.005571448   -0.010534937   -0.007107361
      6        1           0.009617259   -0.011077466   -0.007567462
 -------------------------------------------------------------------
 Cartesian Forces:  Max     0.033696196 RMS     0.013771283
 Z-matrix is all fixed cartesians, so copy forces.
 Force constants in Cartesian coordinates: 
                1             2             3             4             5 
      1  0.814685D+00
      2 -0.103178D-01  0.489891D+00
      3 -0.236660D-01  0.249297D+00  0.279166D+00
      4 -0.473219D+00  0.285194D-01  0.292131D-01  0.664394D+00
      5  0.961866D-02 -0.824860D-01 -0.267353D-01  0.176381D+00  0.396780D+00
      6  0.167037D-01 -0.271885D-01 -0.608333D-01  0.101780D+00  0.230703D+00
      7 -0.980132D-03 -0.200337D-01 -0.128629D-01 -0.210895D+00 -0.175482D+00
      8  0.308076D-03  0.143332D-01 -0.733807D-03 -0.217229D+00 -0.336130D+00
      9  0.597737D-03 -0.245367D-03  0.152527D-01 -0.139479D+00 -0.196571D+00
     10 -0.163349D+00 -0.915366D-01 -0.575233D-01 -0.926052D-03 -0.186700D-01
     11 -0.836129D-01 -0.214907D+00 -0.116374D+00  0.389598D-03  0.844345D-02
     12 -0.522783D-01 -0.116182D+00 -0.111677D+00  0.307294D-03  0.528464D-02
     13 -0.177134D+00  0.932947D-01  0.649511D-01  0.905791D-03  0.178651D-01
     14  0.839304D-01 -0.204801D+00 -0.108521D+00  0.246077D-03  0.152696D-01
     15  0.587541D-01 -0.108748D+00 -0.117275D+00  0.611040D-03 -0.327945D-02
     16 -0.268673D-05  0.740782D-04 -0.111937D-03  0.197412D-01 -0.971277D-02
     17  0.736242D-04 -0.202996D-02  0.306739D-02  0.116927D-01 -0.187726D-02
     18 -0.111233D-03  0.306689D-02 -0.463426D-02  0.756733D-02 -0.940153D-02
                6             7             8             9            10 
      6  0.192015D+00
      7 -0.111851D+00  0.406134D+00
      8 -0.195565D+00  0.534271D-01  0.531518D+00
      9 -0.159476D+00  0.263756D-01  0.328043D+00  0.250445D+00
     10 -0.123067D-01  0.228968D-05 -0.631307D-04  0.953945D-04  0.135830D+00
     11  0.482750D-02 -0.631368D-04  0.174080D-02 -0.263045D-02  0.957457D-01
     12  0.462508D-02  0.953981D-04 -0.263030D-02  0.397455D-02  0.605513D-01
     13  0.122731D-01 -0.247110D-05  0.681327D-04 -0.102953D-03  0.284430D-01
     14 -0.285735D-02  0.681506D-04 -0.187904D-02  0.283934D-02  0.145241D-01
     15  0.173925D-01 -0.102963D-03  0.283889D-02 -0.428974D-02  0.918329D-02
     16 -0.659932D-02 -0.194258D+00  0.163489D+00  0.112513D+00  0.000000D+00
     17 -0.991929D-02  0.142084D+00 -0.209584D+00 -0.131436D+00  0.000000D+00
     18  0.627668D-02  0.983460D-01 -0.131953D+00 -0.105907D+00  0.000000D+00
               11            12            13            14            15 
     11  0.207851D+00
     12  0.122960D+00  0.985155D-01
     13 -0.124593D-01 -0.867575D-02  0.147787D+00
     14 -0.312790D-02 -0.943229D-02 -0.987686D-01  0.194538D+00
     15 -0.878307D-02  0.456134D-02 -0.684455D-01  0.117972D+00  0.996107D-01
     16  0.000000D+00  0.000000D+00  0.000000D+00  0.000000D+00  0.000000D+00
     17  0.000000D+00  0.000000D+00  0.000000D+00  0.000000D+00  0.000000D+00
     18  0.000000D+00  0.000000D+00  0.000000D+00  0.000000D+00  0.000000D+00
               16            17            18 
     16  0.174519D+00
     17 -0.153850D+00  0.213491D+00
     18 -0.105802D+00  0.138288D+00  0.104265D+00
 Leave Link  716 at Tue Jan  3 09:47:41 2023, MaxMem=   536870912 cpu:               0.1 elap:               0.1
 (Enter /opt/software/gaussian/g16.c01/l103.exe)

 GradGradGradGradGradGradGradGradGradGradGradGradGradGradGradGradGradGrad
 Berny optimization.
 Search for a local minimum.
 Step number   1 out of a maximum of    2
 All quantities printed in internal units (Hartrees-Bohrs-Radians)
 Second derivative matrix not updated -- first step.
 The second derivative matrix:
                          X1        Y1        Z1        X2        Y2
           X1           0.81469
           Y1          -0.01032   0.48989
           Z1          -0.02367   0.24930   0.27917
           X2          -0.47322   0.02852   0.02921   0.66439
           Y2           0.00962  -0.08249  -0.02674   0.17638   0.39678
           Z2           0.01670  -0.02719  -0.06083   0.10178   0.23070
           X3          -0.00098  -0.02003  -0.01286  -0.21090  -0.17548
           Y3           0.00031   0.01433  -0.00073  -0.21723  -0.33613
           Z3           0.00060  -0.00025   0.01525  -0.13948  -0.19657
           X4          -0.16335  -0.09154  -0.05752  -0.00093  -0.01867
           Y4          -0.08361  -0.21491  -0.11637   0.00039   0.00844
           Z4          -0.05228  -0.11618  -0.11168   0.00031   0.00528
           X5          -0.17713   0.09329   0.06495   0.00091   0.01787
           Y5           0.08393  -0.20480  -0.10852   0.00025   0.01527
           Z5           0.05875  -0.10875  -0.11727   0.00061  -0.00328
           X6          -0.00000   0.00007  -0.00011   0.01974  -0.00971
           Y6           0.00007  -0.00203   0.00307   0.01169  -0.00188
           Z6          -0.00011   0.00307  -0.00463   0.00757  -0.00940
                          Z2        X3        Y3        Z3        X4
           Z2           0.19201
           X3          -0.11185   0.40613
           Y3          -0.19556   0.05343   0.53152
           Z3          -0.15948   0.02638   0.32804   0.25045
           X4          -0.01231   0.00000  -0.00006   0.00010   0.13583
           Y4           0.00483  -0.00006   0.00174  -0.00263   0.09575
           Z4           0.00463   0.00010  -0.00263   0.00397   0.06055
           X5           0.01227  -0.00000   0.00007  -0.00010   0.02844
           Y5          -0.00286   0.00007  -0.00188   0.00284   0.01452
           Z5           0.01739  -0.00010   0.00284  -0.00429   0.00918
           X6          -0.00660  -0.19426   0.16349   0.11251   0.00000
           Y6          -0.00992   0.14208  -0.20958  -0.13144   0.00000
           Z6           0.00628   0.09835  -0.13195  -0.10591   0.00000
                          Y4        Z4        X5        Y5        Z5
           Y4           0.20785
           Z4           0.12296   0.09852
           X5          -0.01246  -0.00868   0.14779
           Y5          -0.00313  -0.00943  -0.09877   0.19454
           Z5          -0.00878   0.00456  -0.06845   0.11797   0.09961
           X6           0.00000   0.00000   0.00000   0.00000   0.00000
           Y6           0.00000   0.00000   0.00000   0.00000   0.00000
           Z6           0.00000   0.00000   0.00000   0.00000   0.00000
                          X6        Y6        Z6
           X6           0.17452
           Y6          -0.15385   0.21349
           Z6          -0.10580   0.13829   0.10426
 ITU=  0
     Eigenvalues ---    0.01003   0.01738   0.04698   0.06571   0.11631
     Eigenvalues ---    0.13625   0.18094   0.33456   0.69321   0.85789
     Eigenvalues ---    1.12959   1.46007
 Angle between quadratic step and forces=  70.50 degrees.
 Linear search not attempted -- first point.
 B after Tr=     0.016461   -0.016617   -0.011406
         Rot=    0.999999   -0.000029    0.000649   -0.000980 Ang=  -0.13 deg.
 Variable       Old X    -DE/DX   Delta X   Delta X   Delta X     New X
                                 (Linear)    (Quad)   (Total)
    X1        1.67863  -0.03370   0.00000   0.01753   0.03308   1.71171
    Y1        0.26878   0.00705   0.00000   0.03913   0.02582   0.29461
    Z1        0.20584   0.00548   0.00000   0.02548   0.01630   0.22214
    X2        4.73702   0.03128   0.00000   0.06023   0.07632   4.81334
    Y2        0.19685  -0.00580   0.00000  -0.04587  -0.05308   0.14377
    Z2        0.08483  -0.00459   0.00000  -0.03184  -0.03700   0.04782
    X3        6.24222  -0.01896   0.00000  -0.07714  -0.06718   6.17504
    Y3        2.32417   0.00981   0.00000   0.01108   0.00646   2.33063
    Z3        1.45653   0.00695   0.00000   0.00926   0.00599   1.46252
    X4        0.70917   0.00618   0.00000  -0.01649   0.00319   0.71236
    Y4       -1.25730   0.01055   0.00000   0.09190   0.07668  -1.18062
    Z4       -0.78089   0.00684   0.00000   0.06123   0.05066  -0.73023
    X5        0.61279   0.00557   0.00000   0.07229   0.08373   0.69652
    Y5        1.72884  -0.01053   0.00000   0.02866   0.01331   1.74215
    Z5        1.19782  -0.00711   0.00000   0.01726   0.00684   1.20466
    X6        5.12842   0.00962   0.00000  -0.13560  -0.12914   4.99928
    Y6        3.62850  -0.01108   0.00000  -0.06222  -0.06919   3.55931
    Z6        2.34676  -0.00757   0.00000  -0.03806  -0.04278   2.30398
         Item               Value     Threshold  Converged?
 Maximum Force            0.033696     0.000450     NO 
 RMS     Force            0.013771     0.000300     NO 
 Maximum Displacement     0.129141     0.001800     NO 
 RMS     Displacement     0.055585     0.001200     NO 
 Predicted change in Energy=-2.347103D-03
 GradGradGradGradGradGradGradGradGradGradGradGradGradGradGradGradGradGrad

 Leave Link  103 at Tue Jan  3 09:47:41 2023, MaxMem=   536870912 cpu:               0.1 elap:               0.0
 (Enter /opt/software/gaussian/g16.c01/l9999.exe)
 Unable to Open any file for archive entry.
 1\1\GINC-GRA614\Force\UHF\Gen\C1H3N1S1\BHAVUK\03-Jan-2023\0\\#p uhf/ch
 kbasis force guess=read geom=check scf=(maxcycle=900,verytightlineq,xq
 c) integral=grid=ultrafine symmetry=None density=current pop=(cm5,hlyg
 at,mbs,npa) output=wfx\\0004_q000_m01_k00_opt_uwb97xd_def2svpd/0004_q0
 00_m01_k00_force_uhf_def2qzvpd stable-force\\0,1\C,0.8882935141,0.1422
 345627,0.1089263123\S,2.5067242222,0.1041696479,0.0448895292\N,3.30323
 98974,1.2298974173,0.7707622237\H,0.3752741579,-0.6653344173,-0.413229
 3362\H,0.3242760911,0.9148647349,0.6338600998\H,2.7138421188,1.9201180
 545,1.2418511706\\Version=ES64L-G16RevC.01\HF=-491.5773436\S2=0.617634
 \S2-1=0.\S2A=0.10755\RMSD=6.094e-10\RMSF=1.377e-02\Dipole=-1.113153,0.
 0239133,0.0426442\Quadrupole=-7.435825,4.3489758,3.0868492,-1.632294,-
 0.9290519,1.5894722\PG=Unknown\\@
 The archive entry for this job was punched.

 Writing a WFNX file to "0004_q000_m01_k00_force_uhf_def2qzvpd.wfx"


 Everywhere is walking distance if you have the time.
                                    -- Steven Wright
 Job cpu time:       0 days  0 hours  4 minutes  7.4 seconds.
 Elapsed time:       0 days  0 hours  2 minutes  3.5 seconds.
 File lengths (MBytes):  RWF=     91 Int=      0 D2E=      0 Chk=     13 Scr=      1
 Normal termination of Gaussian 16 at Tue Jan  3 09:47:41 2023.
