 Entering Gaussian System, Link 0=g16
 Input=0004_q000_m01_k00_force_ub3lyp_def2svpd.com
 Output=0004_q000_m01_k00_force_ub3lyp_def2svpd.log
 Initial command:
 /opt/software/gaussian/g16.c01/l1.exe "/localscratch/bhavuk.2151395.0/Gau-19897.inp" -scrdir="/localscratch/bhavuk.2151395.0/"
 Entering Link 1 = /opt/software/gaussian/g16.c01/l1.exe PID=     19906.
  
 Copyright (c) 1988-2019, Gaussian, Inc.  All Rights Reserved.
  
 This is part of the Gaussian(R) 16 program.  It is based on
 the Gaussian(R) 09 system (copyright 2009, Gaussian, Inc.),
 the Gaussian(R) 03 system (copyright 2003, Gaussian, Inc.),
 the Gaussian(R) 98 system (copyright 1998, Gaussian, Inc.),
 the Gaussian(R) 94 system (copyright 1995, Gaussian, Inc.),
 the Gaussian 92(TM) system (copyright 1992, Gaussian, Inc.),
 the Gaussian 90(TM) system (copyright 1990, Gaussian, Inc.),
 the Gaussian 88(TM) system (copyright 1988, Gaussian, Inc.),
 the Gaussian 86(TM) system (copyright 1986, Carnegie Mellon
 University), and the Gaussian 82(TM) system (copyright 1983,
 Carnegie Mellon University). Gaussian is a federally registered
 trademark of Gaussian, Inc.
  
 This software contains proprietary and confidential information,
 including trade secrets, belonging to Gaussian, Inc.
  
 This software is provided under written license and may be
 used, copied, transmitted, or stored only in accord with that
 written license.
  
 The following legend is applicable only to US Government
 contracts under FAR:
  
                    RESTRICTED RIGHTS LEGEND
  
 Use, reproduction and disclosure by the US Government is
 subject to restrictions as set forth in subparagraphs (a)
 and (c) of the Commercial Computer Software - Restricted
 Rights clause in FAR 52.227-19.
  
 Gaussian, Inc.
 340 Quinnipiac St., Bldg. 40, Wallingford CT 06492
  
  
 ---------------------------------------------------------------
 Warning -- This program may not be used in any manner that
 competes with the business of Gaussian, Inc. or will provide
 assistance to any competitor of Gaussian, Inc.  The licensee
 of this program is prohibited from giving any competitor of
 Gaussian, Inc. access to this program.  By using this program,
 the user acknowledges that Gaussian, Inc. is engaged in the
 business of creating and licensing software in the field of
 computational chemistry and represents and warrants to the
 licensee that it is not a competitor of Gaussian, Inc. and that
 it will not use this program in any manner prohibited above.
 ---------------------------------------------------------------
  

 Cite this work as:
 Gaussian 16, Revision C.01,
 M. J. Frisch, G. W. Trucks, H. B. Schlegel, G. E. Scuseria, 
 M. A. Robb, J. R. Cheeseman, G. Scalmani, V. Barone, 
 G. A. Petersson, H. Nakatsuji, X. Li, M. Caricato, A. V. Marenich, 
 J. Bloino, B. G. Janesko, R. Gomperts, B. Mennucci, H. P. Hratchian, 
 J. V. Ortiz, A. F. Izmaylov, J. L. Sonnenberg, D. Williams-Young, 
 F. Ding, F. Lipparini, F. Egidi, J. Goings, B. Peng, A. Petrone, 
 T. Henderson, D. Ranasinghe, V. G. Zakrzewski, J. Gao, N. Rega, 
 G. Zheng, W. Liang, M. Hada, M. Ehara, K. Toyota, R. Fukuda, 
 J. Hasegawa, M. Ishida, T. Nakajima, Y. Honda, O. Kitao, H. Nakai, 
 T. Vreven, K. Throssell, J. A. Montgomery, Jr., J. E. Peralta, 
 F. Ogliaro, M. J. Bearpark, J. J. Heyd, E. N. Brothers, K. N. Kudin, 
 V. N. Staroverov, T. A. Keith, R. Kobayashi, J. Normand, 
 K. Raghavachari, A. P. Rendell, J. C. Burant, S. S. Iyengar, 
 J. Tomasi, M. Cossi, J. M. Millam, M. Klene, C. Adamo, R. Cammi, 
 J. W. Ochterski, R. L. Martin, K. Morokuma, O. Farkas, 
 J. B. Foresman, and D. J. Fox, Gaussian, Inc., Wallingford CT, 2019.
 
 ******************************************
 Gaussian 16:  ES64L-G16RevC.01  3-Jul-2019
                 3-Jan-2023 
 ******************************************
 %chk=0004_q000_m01_k00_force_ub3lyp_def2svpd.chk
 %nprocshared=2
 Will use up to    2 processors via shared memory.
 %mem=4GB
 ----------------------------------------------------------------------
 #p ub3lyp/gen stable=opt scf=(maxcycle=900,verytightlineq,xqc) integra
 l=grid=ultrafine symmetry=None density=current iop(99/18=-1) output=wf
 n
 ----------------------------------------------------------------------
 1/38=1,172=1/1;
 2/12=2,15=3,17=6,18=5,40=1/2;
 3/5=7,11=2,25=1,30=1,74=-5,75=-5,116=2/1,2,3;
 4//1;
 5/5=2,7=900,8=3,13=1,17=3,38=5/2,8;
 6/7=2,8=2,9=2,10=2,22=-1,28=1/1;
 8/6=1,10=90,11=11/1;
 9/8=-3,42=1,46=1/14;
 5/5=2,7=900,8=3,17=43,38=5/8(-2);
 6/7=2,8=2,9=2,10=2,22=-1,28=1/1;
 99/5=1,6=100,9=1,18=-1/99;
 Leave Link    1 at Tue Jan  3 09:06:11 2023, MaxMem=   536870912 cpu:               0.1 elap:               0.1
 (Enter /opt/software/gaussian/g16.c01/l101.exe)
 ----------------------------------------------------------------------
 0004_q000_m01_k00_opt_uwb97xd_def2svpd/0004_q000_m01_k00_force_ub3lyp_
 def2svpd stable-force
 ----------------------------------------------------------------------
 Symbolic Z-matrix:
 Charge =  0 Multiplicity = 1
 C                     0.88829   0.14223   0.10893 
 S                     2.50672   0.10417   0.04489 
 N                     3.30324   1.2299    0.77076 
 H                     0.37527  -0.66533  -0.41323 
 H                     0.32428   0.91486   0.63386 
 H                     2.71384   1.92012   1.24185 
 
 ITRead=  0  0  0  0  0  0
 MicOpt= -1 -1 -1 -1 -1 -1
 NAtoms=      6 NQM=        6 NQMF=       0 NMMI=      0 NMMIF=      0
                NMic=       0 NMicF=      0.
                    Isotopes and Nuclear Properties:
 (Nuclear quadrupole moments (NQMom) in fm**2, nuclear magnetic moments (NMagM)
  in nuclear magnetons)

  Atom         1           2           3           4           5           6
 IAtWgt=          12          32          14           1           1           1
 AtmWgt=  12.0000000  31.9720718  14.0030740   1.0078250   1.0078250   1.0078250
 NucSpn=           0           0           2           1           1           1
 AtZEff=  -0.0000000  -0.0000000  -0.0000000  -0.0000000  -0.0000000  -0.0000000
 NQMom=    0.0000000   0.0000000   2.0440000   0.0000000   0.0000000   0.0000000
 NMagM=    0.0000000   0.0000000   0.4037610   2.7928460   2.7928460   2.7928460
 AtZNuc=   6.0000000  16.0000000   7.0000000   1.0000000   1.0000000   1.0000000
 Leave Link  101 at Tue Jan  3 09:06:12 2023, MaxMem=   536870912 cpu:               0.4 elap:               0.2
 (Enter /opt/software/gaussian/g16.c01/l202.exe)
                          Input orientation:                          
 ---------------------------------------------------------------------
 Center     Atomic      Atomic             Coordinates (Angstroms)
 Number     Number       Type             X           Y           Z
 ---------------------------------------------------------------------
      1          6           0        0.888294    0.142235    0.108926
      2         16           0        2.506724    0.104170    0.044890
      3          7           0        3.303240    1.229897    0.770762
      4          1           0        0.375274   -0.665334   -0.413229
      5          1           0        0.324276    0.914865    0.633860
      6          1           0        2.713842    1.920118    1.241851
 ---------------------------------------------------------------------
                    Distance matrix (angstroms):
                    1          2          3          4          5
     1  C    0.000000
     2  S    1.620144   0.000000
     3  N    2.730019   1.558394   0.000000
     4  H    1.089956   2.311945   3.683303   0.000000
     5  H    1.091159   2.401498   2.998702   1.896319   0.000000
     6  H    2.788730   2.184785   1.022604   3.859113   2.662745
                    6
     6  H    0.000000
 Symmetry turned off by external request.
 Stoichiometry    CH3NS
 Rotational constants (GHZ):          36.3131241           8.8290023           7.1022055
 Leave Link  202 at Tue Jan  3 09:06:12 2023, MaxMem=   536870912 cpu:               0.0 elap:               0.0
 (Enter /opt/software/gaussian/g16.c01/l301.exe)
 General basis read from cards:  (5D, 7F)
 Centers:       4      5      6
 S 3 1.00
     Exponent=  1.3010701000D+01 Coefficients=  1.9682158000D-02
     Exponent=  1.9622572000D+00 Coefficients=  1.3796524000D-01
     Exponent=  4.4453796000D-01 Coefficients=  4.7831935000D-01
 S 1 1.00
     Exponent=  1.2194962000D-01 Coefficients=  1.0000000000D+00
 P 1 1.00
     Exponent=  8.0000000000D-01 Coefficients=  1.0000000000D+00
 P 1 1.00
     Exponent=  1.1704099050D-01 Coefficients=  1.0000000000D+00
 ****
 Centers:       1
 S 5 1.00
     Exponent=  1.2384016938D+03 Coefficients=  5.4568832082D-03
     Exponent=  1.8629004992D+02 Coefficients=  4.0638409211D-02
     Exponent=  4.2251176346D+01 Coefficients=  1.8025593888D-01
     Exponent=  1.1676557932D+01 Coefficients=  4.6315121755D-01
     Exponent=  3.5930506482D+00 Coefficients=  4.4087173314D-01
 S 1 1.00
     Exponent=  4.0245147363D-01 Coefficients=  1.0000000000D+00
 S 1 1.00
     Exponent=  1.3090182668D-01 Coefficients=  1.0000000000D+00
 S 1 1.00
     Exponent=  6.7053540256D-02 Coefficients=  1.0000000000D+00
 P 3 1.00
     Exponent=  9.4680970621D+00 Coefficients=  3.8387871728D-02
     Exponent=  2.0103545142D+00 Coefficients=  2.1117025112D-01
     Exponent=  5.4771004707D-01 Coefficients=  5.1328172114D-01
 P 1 1.00
     Exponent=  1.5268613795D-01 Coefficients=  1.0000000000D+00
 D 1 1.00
     Exponent=  8.0000000000D-01 Coefficients=  1.0000000000D+00
 D 1 1.00
     Exponent=  1.1713185140D-01 Coefficients=  1.0000000000D+00
 ****
 Centers:       3
 S 5 1.00
     Exponent=  1.7128415853D+03 Coefficients= -5.3934125305D-03
     Exponent=  2.5764812677D+02 Coefficients= -4.0221581118D-02
     Exponent=  5.8458245853D+01 Coefficients= -1.7931144990D-01
     Exponent=  1.6198367905D+01 Coefficients= -4.6376317823D-01
     Exponent=  5.0052600809D+00 Coefficients= -4.4171422662D-01
 S 1 1.00
     Exponent=  5.8731856571D-01 Coefficients=  1.0000000000D+00
 S 1 1.00
     Exponent=  1.8764592253D-01 Coefficients=  1.0000000000D+00
 S 1 1.00
     Exponent=  9.6171241529D-02 Coefficients=  1.0000000000D+00
 P 3 1.00
     Exponent=  1.3571470233D+01 Coefficients= -4.0072398852D-02
     Exponent=  2.9257372874D+00 Coefficients= -2.1807045028D-01
     Exponent=  7.9927750754D-01 Coefficients= -5.1294466049D-01
 P 1 1.00
     Exponent=  2.1954348034D-01 Coefficients=  1.0000000000D+00
 D 1 1.00
     Exponent=  1.0000000000D+00 Coefficients=  1.0000000000D+00
 D 1 1.00
     Exponent=  1.6697708112D-01 Coefficients=  1.0000000000D+00
 ****
 Centers:       2
 S 5 1.00
     Exponent=  9.1849303010D+03 Coefficients= -2.2294387756D-03
     Exponent=  1.3815105503D+03 Coefficients= -1.6683029937D-02
     Exponent=  3.1387147580D+02 Coefficients= -7.5262436116D-02
     Exponent=  8.8053870623D+01 Coefficients= -1.9376827038D-01
     Exponent=  2.7039914905D+01 Coefficients= -1.7718020803D-01
 S 3 1.00
     Exponent=  4.5648731303D+01 Coefficients= -1.0736062573D-01
     Exponent=  4.9664522326D+00 Coefficients=  6.5066293018D-01
     Exponent=  2.0116242047D+00 Coefficients=  5.9712155354D-01
 S 1 1.00
     Exponent=  3.5661077013D-01 Coefficients=  1.0000000000D+00
 S 1 1.00
     Exponent=  1.3507221477D-01 Coefficients=  1.0000000000D+00
 S 1 1.00
     Exponent=  4.4999823506D-02 Coefficients=  1.0000000000D+00
 P 5 1.00
     Exponent=  2.6198233439D+02 Coefficients= -9.2729929822D-03
     Exponent=  6.1306894736D+01 Coefficients= -6.6547669241D-02
     Exponent=  1.9103729887D+01 Coefficients= -2.4828595903D-01
     Exponent=  6.6567720378D+00 Coefficients= -4.8703847402D-01
     Exponent=  2.3959635161D+00 Coefficients= -3.9337850312D-01
 P 1 1.00
     Exponent=  6.1776161679D-01 Coefficients=  1.0000000000D+00
 P 1 1.00
     Exponent=  1.6993376871D-01 Coefficients=  1.0000000000D+00
 P 1 1.00
     Exponent=  4.1706793676D-02 Coefficients=  1.0000000000D+00
 D 1 1.00
     Exponent=  5.5000000000D-01 Coefficients=  1.0000000000D+00
 D 1 1.00
     Exponent=  1.0172853717D-01 Coefficients=  1.0000000000D+00
 ****
 Ernie: Thresh=  0.10000D-02 Tol=  0.10000D-05 Strict=F.
    91 basis functions,   141 primitive gaussians,    97 cartesian basis functions
    16 alpha electrons       16 beta electrons
       nuclear repulsion energy       102.0311797422 Hartrees.
 IExCor=  402 DFT=T Ex+Corr=B3LYP ExCW=0 ScaHFX=  0.200000
 ScaDFX=  0.800000  0.720000  1.000000  0.810000 ScalE2=  1.000000  1.000000
 IRadAn=      5 IRanWt=     -1 IRanGd=            0 ICorTp=0 IEmpDi=  4
 NAtoms=    6 NActive=    6 NUniq=    6 SFac= 1.00D+00 NAtFMM=   60 NAOKFM=F Big=F
 Integral buffers will be    131072 words long.
 Raffenetti 2 integral format.
 Two-electron integral symmetry is turned off.
 Leave Link  301 at Tue Jan  3 09:06:12 2023, MaxMem=   536870912 cpu:               0.1 elap:               0.1
 (Enter /opt/software/gaussian/g16.c01/l302.exe)
 NPDir=0 NMtPBC=     1 NCelOv=     1 NCel=       1 NClECP=     1 NCelD=      1
         NCelK=      1 NCelE2=     1 NClLst=     1 CellRange=     0.0.
 One-electron integrals computed using PRISM.
 NBasis=    91 RedAO= T EigKep=  4.68D-04  NBF=    91
 NBsUse=    91 1.00D-06 EigRej= -1.00D+00 NBFU=    91
 Precomputing XC quadrature grid using
 IXCGrd= 4 IRadAn=           5 IRanWt=          -1 IRanGd=           0 AccXCQ= 0.00D+00.
 Generated NRdTot=       0 NPtTot=           0 NUsed=           0 NTot=          32
 NSgBfM=    97    97    97    97    97 MxSgAt=     6 MxSgA2=     6.
 Leave Link  302 at Tue Jan  3 09:06:13 2023, MaxMem=   536870912 cpu:               0.4 elap:               0.2
 (Enter /opt/software/gaussian/g16.c01/l303.exe)
 DipDrv:  MaxL=1.
 Leave Link  303 at Tue Jan  3 09:06:13 2023, MaxMem=   536870912 cpu:               0.1 elap:               0.1
 (Enter /opt/software/gaussian/g16.c01/l401.exe)
 ExpMin= 4.17D-02 ExpMax= 9.18D+03 ExpMxC= 1.38D+03 IAcc=3 IRadAn=         5 AccDes= 0.00D+00
 Harris functional with IExCor=  402 and IRadAn=       5 diagonalized for initial guess.
 HarFok:  IExCor=  402 AccDes= 0.00D+00 IRadAn=         5 IDoV= 1 UseB2=F ITyADJ=14
 ICtDFT=  3500011 ScaDFX=  1.000000  1.000000  1.000000  1.000000
 FoFCou: FMM=F IPFlag=           0 FMFlag=      100000 FMFlg1=           0
         NFxFlg=           0 DoJE=T BraDBF=F KetDBF=T FulRan=T
         wScrn=  0.000000 ICntrl=       500 IOpCl=  0 I1Cent=   200000004 NGrid=           0
         NMat0=    1 NMatS0=      1 NMatT0=    0 NMatD0=    1 NMtDS0=    0 NMtDT0=    0
 Symmetry not used in FoFCou.
 Harris En= -492.596611039966    
 JPrj=0 DoOrth=F DoCkMO=F.
 Initial guess <Sx>= 0.0000 <Sy>= 0.0000 <Sz>= 0.0000 <S**2>=-0.0000 S=-0.0000
 Leave Link  401 at Tue Jan  3 09:06:14 2023, MaxMem=   536870912 cpu:               1.0 elap:               0.5
 (Enter /opt/software/gaussian/g16.c01/l502.exe)
 Keep R1 and R2 ints in memory in canonical form, NReq=19372367.
 FoFCou: FMM=F IPFlag=           0 FMFlag=           0 FMFlg1=           0
         NFxFlg=           0 DoJE=F BraDBF=F KetDBF=F FulRan=T
         wScrn=  0.000000 ICntrl=       600 IOpCl=  0 I1Cent=           0 NGrid=           0
         NMat0=    1 NMatS0=   4186 NMatT0=    0 NMatD0=    1 NMtDS0=    0 NMtDT0=    0
 Symmetry not used in FoFCou.
 Two-electron integral symmetry not used.
 UHF open shell SCF:
 Using DIIS extrapolation, IDIIS=  1040.
 NGot=   536870912 LenX=   519323767 LenY=   519313917
 Requested convergence on RMS density matrix=1.00D-08 within 128 cycles.
 Requested convergence on MAX density matrix=1.00D-06.
 Requested convergence on             energy=1.00D-06.
 No special actions if energy rises.

 Cycle   1  Pass 1  IDiag  1:
 E= -492.422070680570    
 DIIS: error= 3.58D-02 at cycle   1 NSaved=   1.
 NSaved= 1 IEnMin= 1 EnMin= -492.422070680570     IErMin= 1 ErrMin= 3.58D-02
 ErrMax= 3.58D-02  0.00D+00 EMaxC= 1.00D-01 BMatC= 7.53D-01 BMatP= 7.53D-01
 IDIUse=3 WtCom= 6.42D-01 WtEn= 3.58D-01
 Coeff-Com:  0.100D+01
 Coeff-En:   0.100D+01
 Coeff:      0.100D+01
 Gap=     0.056 Goal=   None    Shift=    0.000
 Gap=     0.056 Goal=   None    Shift=    0.000
 GapD=    0.056 DampG=0.500 DampE=0.500 DampFc=0.2500 IDamp=-1.
 Damping current iteration by 2.50D-01
 RMSDP=1.29D-02 MaxDP=2.41D-01              OVMax= 4.05D-01

 Cycle   2  Pass 1  IDiag  1:
 E= -492.492925334483     Delta-E=       -0.070854653913 Rises=F Damp=T
 DIIS: error= 1.24D-02 at cycle   2 NSaved=   2.
 NSaved= 2 IEnMin= 2 EnMin= -492.492925334483     IErMin= 2 ErrMin= 1.24D-02
 ErrMax= 1.24D-02  0.00D+00 EMaxC= 1.00D-01 BMatC= 1.07D-01 BMatP= 7.53D-01
 IDIUse=3 WtCom= 8.76D-01 WtEn= 1.24D-01
 Coeff-Com: -0.542D+00 0.154D+01
 Coeff-En:   0.000D+00 0.100D+01
 Coeff:     -0.475D+00 0.147D+01
 Gap=     0.156 Goal=   None    Shift=    0.000
 Gap=     0.156 Goal=   None    Shift=    0.000
 RMSDP=3.16D-03 MaxDP=6.98D-02 DE=-7.09D-02 OVMax= 2.33D-01

 Cycle   3  Pass 1  IDiag  1:
 E= -492.592613819142     Delta-E=       -0.099688484659 Rises=F Damp=F
 DIIS: error= 8.83D-03 at cycle   3 NSaved=   3.
 NSaved= 3 IEnMin= 3 EnMin= -492.592613819142     IErMin= 3 ErrMin= 8.83D-03
 ErrMax= 8.83D-03  0.00D+00 EMaxC= 1.00D-01 BMatC= 3.30D-02 BMatP= 1.07D-01
 IDIUse=3 WtCom= 9.12D-01 WtEn= 8.83D-02
 Coeff-Com: -0.302D+00 0.909D+00 0.393D+00
 Coeff-En:   0.000D+00 0.000D+00 0.100D+01
 Coeff:     -0.275D+00 0.829D+00 0.446D+00
 Gap=     0.163 Goal=   None    Shift=    0.000
 Gap=     0.163 Goal=   None    Shift=    0.000
 RMSDP=1.67D-03 MaxDP=3.84D-02 DE=-9.97D-02 OVMax= 1.07D-01

 Cycle   4  Pass 1  IDiag  1:
 E= -492.596568606452     Delta-E=       -0.003954787310 Rises=F Damp=F
 DIIS: error= 8.68D-03 at cycle   4 NSaved=   4.
 NSaved= 4 IEnMin= 4 EnMin= -492.596568606452     IErMin= 4 ErrMin= 8.68D-03
 ErrMax= 8.68D-03  0.00D+00 EMaxC= 1.00D-01 BMatC= 2.06D-02 BMatP= 3.30D-02
 IDIUse=3 WtCom= 9.13D-01 WtEn= 8.68D-02
 Coeff-Com: -0.358D-01 0.173D+00 0.409D+00 0.454D+00
 Coeff-En:   0.000D+00 0.000D+00 0.407D+00 0.593D+00
 Coeff:     -0.327D-01 0.158D+00 0.409D+00 0.466D+00
 Gap=     0.165 Goal=   None    Shift=    0.000
 Gap=     0.165 Goal=   None    Shift=    0.000
 RMSDP=9.32D-04 MaxDP=1.57D-02 DE=-3.95D-03 OVMax= 5.05D-02

 Cycle   5  Pass 1  IDiag  1:
 E= -492.602196223797     Delta-E=       -0.005627617345 Rises=F Damp=F
 DIIS: error= 9.30D-04 at cycle   5 NSaved=   5.
 NSaved= 5 IEnMin= 5 EnMin= -492.602196223797     IErMin= 5 ErrMin= 9.30D-04
 ErrMax= 9.30D-04  0.00D+00 EMaxC= 1.00D-01 BMatC= 3.68D-04 BMatP= 2.06D-02
 IDIUse=3 WtCom= 9.91D-01 WtEn= 9.30D-03
 Coeff-Com:  0.176D-01-0.234D-01 0.129D+00 0.209D+00 0.667D+00
 Coeff-En:   0.000D+00 0.000D+00 0.000D+00 0.000D+00 0.100D+01
 Coeff:      0.175D-01-0.232D-01 0.128D+00 0.207D+00 0.670D+00
 Gap=     0.166 Goal=   None    Shift=    0.000
 Gap=     0.166 Goal=   None    Shift=    0.000
 RMSDP=1.53D-04 MaxDP=2.79D-03 DE=-5.63D-03 OVMax= 3.90D-03

 Cycle   6  Pass 1  IDiag  1:
 E= -492.602302074455     Delta-E=       -0.000105850658 Rises=F Damp=F
 DIIS: error= 9.59D-05 at cycle   6 NSaved=   6.
 NSaved= 6 IEnMin= 6 EnMin= -492.602302074455     IErMin= 6 ErrMin= 9.59D-05
 ErrMax= 9.59D-05  0.00D+00 EMaxC= 1.00D-01 BMatC= 5.08D-06 BMatP= 3.68D-04
 IDIUse=1 WtCom= 1.00D+00 WtEn= 0.00D+00
 Coeff-Com:  0.664D-02-0.113D-01 0.361D-01 0.619D-01 0.222D+00 0.684D+00
 Coeff:      0.664D-02-0.113D-01 0.361D-01 0.619D-01 0.222D+00 0.684D+00
 Gap=     0.166 Goal=   None    Shift=    0.000
 Gap=     0.166 Goal=   None    Shift=    0.000
 RMSDP=2.04D-05 MaxDP=5.32D-04 DE=-1.06D-04 OVMax= 4.39D-04

 Cycle   7  Pass 1  IDiag  1:
 E= -492.602303353291     Delta-E=       -0.000001278836 Rises=F Damp=F
 DIIS: error= 2.81D-05 at cycle   7 NSaved=   7.
 NSaved= 7 IEnMin= 7 EnMin= -492.602303353291     IErMin= 7 ErrMin= 2.81D-05
 ErrMax= 2.81D-05  0.00D+00 EMaxC= 1.00D-01 BMatC= 4.20D-07 BMatP= 5.08D-06
 IDIUse=1 WtCom= 1.00D+00 WtEn= 0.00D+00
 Coeff-Com:  0.530D-03-0.116D-02 0.184D-02 0.299D-02 0.124D-01 0.229D+00
 Coeff-Com:  0.755D+00
 Coeff:      0.530D-03-0.116D-02 0.184D-02 0.299D-02 0.124D-01 0.229D+00
 Coeff:      0.755D+00
 Gap=     0.166 Goal=   None    Shift=    0.000
 Gap=     0.166 Goal=   None    Shift=    0.000
 RMSDP=5.88D-06 MaxDP=1.74D-04 DE=-1.28D-06 OVMax= 1.11D-04

 Cycle   8  Pass 1  IDiag  1:
 E= -492.602303471989     Delta-E=       -0.000000118698 Rises=F Damp=F
 DIIS: error= 5.21D-06 at cycle   8 NSaved=   8.
 NSaved= 8 IEnMin= 8 EnMin= -492.602303471989     IErMin= 8 ErrMin= 5.21D-06
 ErrMax= 5.21D-06  0.00D+00 EMaxC= 1.00D-01 BMatC= 1.05D-08 BMatP= 4.20D-07
 IDIUse=1 WtCom= 1.00D+00 WtEn= 0.00D+00
 Coeff-Com:  0.145D-04-0.842D-04-0.234D-03-0.909D-03-0.239D-02 0.329D-01
 Coeff-Com:  0.178D+00 0.793D+00
 Coeff:      0.145D-04-0.842D-04-0.234D-03-0.909D-03-0.239D-02 0.329D-01
 Coeff:      0.178D+00 0.793D+00
 Gap=     0.166 Goal=   None    Shift=    0.000
 Gap=     0.166 Goal=   None    Shift=    0.000
 RMSDP=1.07D-06 MaxDP=1.90D-05 DE=-1.19D-07 OVMax= 3.12D-05

 Cycle   9  Pass 1  IDiag  1:
 E= -492.602303475457     Delta-E=       -0.000000003468 Rises=F Damp=F
 DIIS: error= 3.75D-07 at cycle   9 NSaved=   9.
 NSaved= 9 IEnMin= 9 EnMin= -492.602303475457     IErMin= 9 ErrMin= 3.75D-07
 ErrMax= 3.75D-07  0.00D+00 EMaxC= 1.00D-01 BMatC= 6.33D-11 BMatP= 1.05D-08
 IDIUse=1 WtCom= 1.00D+00 WtEn= 0.00D+00
 Coeff-Com: -0.105D-04 0.184D-04-0.928D-04-0.209D-03-0.766D-03-0.220D-02
 Coeff-Com:  0.406D-02 0.942D-01 0.905D+00
 Coeff:     -0.105D-04 0.184D-04-0.928D-04-0.209D-03-0.766D-03-0.220D-02
 Coeff:      0.406D-02 0.942D-01 0.905D+00
 Gap=     0.166 Goal=   None    Shift=    0.000
 Gap=     0.166 Goal=   None    Shift=    0.000
 RMSDP=8.79D-08 MaxDP=1.34D-06 DE=-3.47D-09 OVMax= 4.01D-06

 Cycle  10  Pass 1  IDiag  1:
 E= -492.602303475477     Delta-E=       -0.000000000020 Rises=F Damp=F
 DIIS: error= 1.39D-07 at cycle  10 NSaved=  10.
 NSaved=10 IEnMin=10 EnMin= -492.602303475477     IErMin=10 ErrMin= 1.39D-07
 ErrMax= 1.39D-07  0.00D+00 EMaxC= 1.00D-01 BMatC= 7.61D-12 BMatP= 6.33D-11
 IDIUse=1 WtCom= 1.00D+00 WtEn= 0.00D+00
 Coeff-Com:  0.270D-07 0.172D-05-0.923D-06-0.155D-04-0.287D-04-0.853D-03
 Coeff-Com: -0.227D-02-0.424D-02 0.885D-01 0.919D+00
 Coeff:      0.270D-07 0.172D-05-0.923D-06-0.155D-04-0.287D-04-0.853D-03
 Coeff:     -0.227D-02-0.424D-02 0.885D-01 0.919D+00
 Gap=     0.166 Goal=   None    Shift=    0.000
 Gap=     0.166 Goal=   None    Shift=    0.000
 RMSDP=2.56D-08 MaxDP=4.89D-07 DE=-2.03D-11 OVMax= 5.78D-07

 Cycle  11  Pass 1  IDiag  1:
 E= -492.602303475481     Delta-E=       -0.000000000004 Rises=F Damp=F
 DIIS: error= 1.97D-08 at cycle  11 NSaved=  11.
 NSaved=11 IEnMin=11 EnMin= -492.602303475481     IErMin=11 ErrMin= 1.97D-08
 ErrMax= 1.97D-08  0.00D+00 EMaxC= 1.00D-01 BMatC= 1.67D-13 BMatP= 7.61D-12
 IDIUse=1 WtCom= 1.00D+00 WtEn= 0.00D+00
 Coeff-Com:  0.335D-06-0.414D-06 0.271D-05 0.187D-05 0.177D-04-0.377D-04
 Coeff-Com: -0.335D-03-0.295D-02-0.153D-01 0.111D+00 0.908D+00
 Coeff:      0.335D-06-0.414D-06 0.271D-05 0.187D-05 0.177D-04-0.377D-04
 Coeff:     -0.335D-03-0.295D-02-0.153D-01 0.111D+00 0.908D+00
 Gap=     0.166 Goal=   None    Shift=    0.000
 Gap=     0.166 Goal=   None    Shift=    0.000
 RMSDP=3.67D-09 MaxDP=4.81D-08 DE=-3.98D-12 OVMax= 9.31D-08

 SCF Done:  E(UB3LYP) =  -492.602303475     A.U. after   11 cycles
            NFock= 11  Conv=0.37D-08     -V/T= 2.0042
 <Sx>= 0.0000 <Sy>= 0.0000 <Sz>= 0.0000 <S**2>=-0.0000 S=-0.0000
 <L.S>=  0.00000000000    
 KE= 4.905346246407D+02 PE=-1.369021515016D+03 EE= 2.838534071579D+02
 Annihilation of the first spin contaminant:
 S**2 before annihilation    -0.0000,   after     0.0000
 Leave Link  502 at Tue Jan  3 09:06:21 2023, MaxMem=   536870912 cpu:              14.4 elap:               7.4
 (Enter /opt/software/gaussian/g16.c01/l508.exe)
 QCSCF skips out because SCF is already converged.
 Leave Link  508 at Tue Jan  3 09:06:21 2023, MaxMem=   536870912 cpu:               0.0 elap:               0.0
 (Enter /opt/software/gaussian/g16.c01/l601.exe)
 Copying SCF densities to generalized density rwf, IOpCl= 1 IROHF=0.

 **********************************************************************

            Population analysis using the SCF Density.

 **********************************************************************

 Alpha  occ. eigenvalues --  -88.95302 -14.32769 -10.22457  -8.03600  -6.00396
 Alpha  occ. eigenvalues --   -6.00196  -5.99834  -0.93320  -0.76687  -0.61003
 Alpha  occ. eigenvalues --   -0.50470  -0.47555  -0.39423  -0.36308  -0.30026
 Alpha  occ. eigenvalues --   -0.24403
 Alpha virt. eigenvalues --   -0.07770   0.01016   0.02114   0.03634   0.05545
 Alpha virt. eigenvalues --    0.05904   0.08143   0.08892   0.13244   0.15025
 Alpha virt. eigenvalues --    0.16179   0.16812   0.20438   0.21547   0.21969
 Alpha virt. eigenvalues --    0.22246   0.24209   0.25276   0.28962   0.29376
 Alpha virt. eigenvalues --    0.30455   0.32881   0.33374   0.36053   0.37085
 Alpha virt. eigenvalues --    0.37351   0.39920   0.41021   0.42644   0.44771
 Alpha virt. eigenvalues --    0.46457   0.50948   0.52274   0.55180   0.57871
 Alpha virt. eigenvalues --    0.64554   0.73244   0.75871   0.77097   0.81617
 Alpha virt. eigenvalues --    0.85967   0.87463   0.88879   0.91104   0.95878
 Alpha virt. eigenvalues --    0.96328   1.01451   1.05295   1.11414   1.12501
 Alpha virt. eigenvalues --    1.14756   1.18440   1.25132   1.32246   1.40296
 Alpha virt. eigenvalues --    1.43190   1.49678   1.57461   1.69214   1.72846
 Alpha virt. eigenvalues --    1.79583   1.91297   2.05997   2.06607   2.09065
 Alpha virt. eigenvalues --    2.14822   2.25440   2.38885   2.45984   2.59620
 Alpha virt. eigenvalues --    2.60147   2.83648   2.96339   2.96745   3.36305
  Beta  occ. eigenvalues --  -88.95302 -14.32769 -10.22457  -8.03600  -6.00396
  Beta  occ. eigenvalues --   -6.00196  -5.99834  -0.93320  -0.76687  -0.61003
  Beta  occ. eigenvalues --   -0.50470  -0.47555  -0.39423  -0.36308  -0.30026
  Beta  occ. eigenvalues --   -0.24403
  Beta virt. eigenvalues --   -0.07770   0.01016   0.02114   0.03634   0.05545
  Beta virt. eigenvalues --    0.05904   0.08143   0.08892   0.13244   0.15025
  Beta virt. eigenvalues --    0.16179   0.16812   0.20438   0.21547   0.21969
  Beta virt. eigenvalues --    0.22246   0.24209   0.25276   0.28962   0.29376
  Beta virt. eigenvalues --    0.30455   0.32881   0.33374   0.36053   0.37085
  Beta virt. eigenvalues --    0.37351   0.39920   0.41021   0.42644   0.44771
  Beta virt. eigenvalues --    0.46457   0.50948   0.52274   0.55180   0.57871
  Beta virt. eigenvalues --    0.64554   0.73244   0.75871   0.77097   0.81617
  Beta virt. eigenvalues --    0.85967   0.87463   0.88879   0.91104   0.95878
  Beta virt. eigenvalues --    0.96328   1.01451   1.05295   1.11414   1.12501
  Beta virt. eigenvalues --    1.14756   1.18440   1.25132   1.32246   1.40296
  Beta virt. eigenvalues --    1.43190   1.49678   1.57461   1.69214   1.72846
  Beta virt. eigenvalues --    1.79583   1.91297   2.05997   2.06607   2.09065
  Beta virt. eigenvalues --    2.14822   2.25440   2.38885   2.45984   2.59620
  Beta virt. eigenvalues --    2.60147   2.83648   2.96339   2.96745   3.36305
          Condensed to atoms (all electrons):
               1          2          3          4          5          6
     1  C    4.455113   0.279473   0.023971   0.327074   0.412472  -0.058921
     2  S    0.279473  15.617446   0.016409  -0.035331  -0.072179   0.108652
     3  N    0.023971   0.016409   7.218760   0.004350  -0.015914  -0.037538
     4  H    0.327074  -0.035331   0.004350   1.057087  -0.124715   0.002994
     5  H    0.412472  -0.072179  -0.015914  -0.124715   0.971403   0.004764
     6  H   -0.058921   0.108652  -0.037538   0.002994   0.004764   1.009068
          Atomic-Atomic Spin Densities.
               1          2          3          4          5          6
     1  C   -0.000000   0.000000  -0.000000  -0.000000   0.000000   0.000000
     2  S    0.000000   0.000000   0.000000  -0.000000  -0.000000  -0.000000
     3  N   -0.000000   0.000000   0.000000  -0.000000  -0.000000   0.000000
     4  H   -0.000000  -0.000000  -0.000000   0.000000  -0.000000   0.000000
     5  H    0.000000  -0.000000  -0.000000  -0.000000   0.000000  -0.000000
     6  H    0.000000  -0.000000   0.000000   0.000000  -0.000000  -0.000000
 Mulliken charges and spin densities:
               1          2
     1  C    0.560818  -0.000000
     2  S    0.085530   0.000000
     3  N   -0.210039   0.000000
     4  H   -0.231459  -0.000000
     5  H   -0.175831   0.000000
     6  H   -0.029019  -0.000000
 Sum of Mulliken charges =  -0.00000   0.00000
 Mulliken charges and spin densities with hydrogens summed into heavy atoms:
               1          2
     1  C    0.153528  -0.000000
     2  S    0.085530   0.000000
     3  N   -0.239058   0.000000
 Electronic spatial extent (au):  <R**2>=            821.9893
 Charge=             -0.0000 electrons
 Dipole moment (field-independent basis, Debye):
    X=             -2.5467    Y=             -0.2264    Z=             -0.0884  Tot=              2.5582
 Quadrupole moment (field-independent basis, Debye-Ang):
   XX=            -39.0863   YY=            -24.6485   ZZ=            -26.0369
   XY=             -3.0479   XZ=             -1.8248   YZ=              1.7997
 Traceless Quadrupole moment (field-independent basis, Debye-Ang):
   XX=             -9.1624   YY=              5.2754   ZZ=              3.8870
   XY=             -3.0479   XZ=             -1.8248   YZ=              1.7997
 Octapole moment (field-independent basis, Debye-Ang**2):
  XXX=           -232.9903  YYY=            -28.0358  ZZZ=            -19.3145  XYY=            -59.1014
  XXY=            -27.5969  XXZ=            -16.9484  XZZ=            -59.0913  YZZ=             -8.6229
  YYZ=             -3.0415  XYZ=              0.6927
 Hexadecapole moment (field-independent basis, Debye-Ang**3):
 XXXX=          -1196.1041 YYYY=            -93.7565 ZZZZ=            -60.8777 XXXY=           -172.5205
 XXXZ=           -105.9337 YYYX=            -87.7139 YYYZ=            -13.3463 ZZZX=            -57.7058
 ZZZY=            -19.8110 XXYY=           -189.9422 XXZZ=           -175.3420 YYZZ=            -21.7394
 XXYZ=            -13.3411 YYXZ=            -11.8601 ZZXY=            -27.5850
 N-N= 1.020311797422D+02 E-N=-1.369021515758D+03  KE= 4.905346246407D+02
                          Isotropic Fermi Contact Couplings
        Atom                 a.u.       MegaHertz       Gauss      10(-4) cm-1
     1  C(13)              0.00000       0.00000       0.00000       0.00000
     2  S(33)              0.00000       0.00000       0.00000       0.00000
     3  N(14)              0.00000       0.00000       0.00000       0.00000
     4  H(1)               0.00000       0.00000       0.00000       0.00000
     5  H(1)               0.00000       0.00000       0.00000       0.00000
     6  H(1)              -0.00000      -0.00000      -0.00000      -0.00000
 --------------------------------------------------------
       Center         ----  Spin Dipole Couplings  ----
                      3XX-RR        3YY-RR        3ZZ-RR
 --------------------------------------------------------
     1   Atom        0.000000      0.000000      0.000000
     2   Atom        0.000000      0.000000      0.000000
     3   Atom        0.000000      0.000000      0.000000
     4   Atom        0.000000      0.000000      0.000000
     5   Atom        0.000000      0.000000      0.000000
     6   Atom        0.000000      0.000000      0.000000
 --------------------------------------------------------
                        XY            XZ            YZ
 --------------------------------------------------------
     1   Atom        0.000000      0.000000      0.000000
     2   Atom        0.000000      0.000000      0.000000
     3   Atom        0.000000      0.000000      0.000000
     4   Atom        0.000000      0.000000      0.000000
     5   Atom        0.000000      0.000000      0.000000
     6   Atom        0.000000      0.000000      0.000000
 --------------------------------------------------------


 ---------------------------------------------------------------------------------
              Anisotropic Spin Dipole Couplings in Principal Axis System
 ---------------------------------------------------------------------------------

       Atom             a.u.   MegaHertz   Gauss  10(-4) cm-1        Axes

              Baa     0.0000     0.000     0.000     0.000  1.0000  0.0000  0.0000
     1 C(13)  Bbb     0.0000     0.000     0.000     0.000 -0.0000  1.0000  0.0000
              Bcc     0.0000     0.000     0.000     0.000  0.0000  0.0000  1.0000
 
              Baa     0.0000     0.000     0.000     0.000  1.0000  0.0000  0.0000
     2 S(33)  Bbb     0.0000     0.000     0.000     0.000 -0.0000  1.0000  0.0000
              Bcc     0.0000     0.000     0.000     0.000  0.0000  0.0000  1.0000
 
              Baa     0.0000     0.000     0.000     0.000  1.0000  0.0000  0.0000
     3 N(14)  Bbb     0.0000     0.000     0.000     0.000 -0.0000  1.0000  0.0000
              Bcc     0.0000     0.000     0.000     0.000  0.0000  0.0000  1.0000
 
              Baa     0.0000     0.000     0.000     0.000  1.0000  0.0000  0.0000
     4 H(1)   Bbb     0.0000     0.000     0.000     0.000 -0.0000  1.0000  0.0000
              Bcc     0.0000     0.000     0.000     0.000  0.0000  0.0000  1.0000
 
              Baa     0.0000     0.000     0.000     0.000  1.0000  0.0000  0.0000
     5 H(1)   Bbb     0.0000     0.000     0.000     0.000 -0.0000  1.0000  0.0000
              Bcc     0.0000     0.000     0.000     0.000  0.0000  0.0000  1.0000
 
              Baa     0.0000     0.000     0.000     0.000  1.0000  0.0000  0.0000
     6 H(1)   Bbb     0.0000     0.000     0.000     0.000 -0.0000  1.0000  0.0000
              Bcc     0.0000     0.000     0.000     0.000  0.0000  0.0000  1.0000
 

 ---------------------------------------------------------------------------------

 No NMR shielding tensors so no spin-rotation constants.
 Leave Link  601 at Tue Jan  3 09:06:22 2023, MaxMem=   536870912 cpu:               0.3 elap:               0.2
 (Enter /opt/software/gaussian/g16.c01/l801.exe)
 DoSCS=F DFT=T ScalE2(SS,OS)=  1.000000  1.000000
 Range of M.O.s used for correlation:     1    91
 NBasis=    91 NAE=    16 NBE=    16 NFC=     0 NFV=     0
 NROrb=     91 NOA=    16 NOB=    16 NVA=    75 NVB=    75

 **** Warning!!: The largest alpha MO coefficient is  0.16670901D+02


 **** Warning!!: The largest beta MO coefficient is  0.16670901D+02

 Leave Link  801 at Tue Jan  3 09:06:22 2023, MaxMem=   536870912 cpu:               0.1 elap:               0.0
 (Enter /opt/software/gaussian/g16.c01/l914.exe)
 UHF ground state
 Doing stability rather than CIS.
 Keep R1 and R2 ints in memory in canonical form, NReq=20750929.
 FoFCou: FMM=F IPFlag=           0 FMFlag=           0 FMFlg1=           0
         NFxFlg=           0 DoJE=F BraDBF=F KetDBF=F FulRan=T
         wScrn=  0.000000 ICntrl=       600 IOpCl=  0 I1Cent=           0 NGrid=           0
         NMat0=    1 NMatS0=   4186 NMatT0=    0 NMatD0=    1 NMtDS0=    0 NMtDT0=    0
 Symmetry not used in FoFCou.
 Two-electron integral symmetry not used.
 MDV=   536870912 DFT=T DoStab=T Mixed=T DoRPA=F DoScal=F NonHer=F
 Making orbital integer symmetry assigments:
    12 initial guesses have been made.
 Convergence on wavefunction:    0.001000000000000
 Davidson Disk Diagonalization:  ConvIn= 1.00D-03 SkipCon=T Conv= 1.00D-03.
 Max sub-space:  2000 roots to seek:    12 dimension of matrix:         2400
 Iteration     1 Dimension    12 NMult     0 NNew     12
 CISAX will form    12 AO SS matrices at one time.
 NMat=    12 NSing=    12 JSym2X= 0.
 Excitation Energies [eV] at current iteration:
 Root      1 :     1.216895846717341
 Root      2 :     3.860010886032641
 Root      3 :     5.252899997792271
 Root      4 :     5.325569519157382
 Root      5 :     5.579203045147993
 Root      6 :     5.862508493211811
 Root      7 :     5.981348933812682
 Root      8 :     6.299147417856744
 Root      9 :     6.588914775963600
 Root     10 :     6.693162597466221
 Root     11 :     7.552213725853776
 Root     12 :    11.833998823711596
 Iteration     2 Dimension    24 NMult    12 NNew     12
 CISAX will form    12 AO SS matrices at one time.
 NMat=    12 NSing=    12 JSym2X= 0.
 Root      1 not converged, maximum delta is    0.069763412606369
 Excitation Energies [eV] at current iteration:
 Root      1 :     0.825595388134981   Change is   -0.391300458582360
 Root      2 :     3.570544434292998   Change is   -0.289466451739643
 Root      3 :     4.988682664666831   Change is   -0.264217333125440
 Root      4 :     4.997969715715921   Change is   -0.327599803441462
 Root      5 :     5.419559509092734   Change is   -0.159643536055259
 Root      6 :     5.792964835953288   Change is   -0.069543657258522
 Root      7 :     5.815563712260080   Change is   -0.165785221552602
 Root      8 :     6.214120164646267   Change is   -0.085027253210477
 Root      9 :     6.451125011744857   Change is   -0.137789764218743
 Root     10 :     6.639520086417530   Change is   -0.053642511048691
 Root     11 :     6.944120824717905   Change is   -0.608092901135871
 Root     12 :     7.734242909908911
 Iteration     3 Dimension    27 NMult    24 NNew      3
 CISAX will form     3 AO SS matrices at one time.
 NMat=     3 NSing=     3 JSym2X= 0.
 Root      1 not converged, maximum delta is    0.003070490786232
 Excitation Energies [eV] at current iteration:
 Root      1 :     0.820324520041344   Change is   -0.005270868093637
 Root      2 :     3.563955483030617   Change is   -0.006588951262381
 Root      3 :     4.979783294310373   Change is   -0.008899370356458
 Iteration     4 Dimension    30 NMult    27 NNew      3
 CISAX will form     3 AO SS matrices at one time.
 NMat=     3 NSing=     3 JSym2X= 0.
 Root      1 has converged.
 Excitation Energies [eV] at current iteration:
 Root      1 :     0.820184478514809   Change is   -0.000140041526535
 Root      2 :     3.563639854679153   Change is   -0.000315628351463
 Root      3 :     4.979566613814011   Change is   -0.000216680496361
 Convergence achieved on expansion vectors.
 ***********************************************************************
 Stability analysis using <AA,BB:AA,BB> singles matrix:
 ***********************************************************************
 1PDM for each excited state written to RWF  633
 Ground to excited state transition densities written to RWF  633

 Eigenvectors of the stability matrix:
 
 Excited state symmetry could not be determined.
 Eigenvector   1:  3.000-?Sym  Eigenvalue= 0.0301412  <S**2>=2.000
     16A -> 17A       -0.69474
     16B -> 17B        0.69474
 The wavefunction is stable under the perturbations considered.
 Leave Link  914 at Tue Jan  3 09:06:49 2023, MaxMem=   536870912 cpu:              53.0 elap:              26.6
 (Enter /opt/software/gaussian/g16.c01/l508.exe)
 The wavefunction is already stable.
 Leave Link  508 at Tue Jan  3 09:06:49 2023, MaxMem=   536870912 cpu:               0.0 elap:               0.0
 (Enter /opt/software/gaussian/g16.c01/l601.exe)
 Copying SCF densities to generalized density rwf, IOpCl= 1 IROHF=0.

 **********************************************************************

            Population analysis using the SCF Density.

 **********************************************************************

 Alpha  occ. eigenvalues --  -88.95302 -14.32769 -10.22457  -8.03600  -6.00396
 Alpha  occ. eigenvalues --   -6.00196  -5.99834  -0.93320  -0.76687  -0.61003
 Alpha  occ. eigenvalues --   -0.50470  -0.47555  -0.39423  -0.36308  -0.30026
 Alpha  occ. eigenvalues --   -0.24403
 Alpha virt. eigenvalues --   -0.07770   0.01016   0.02114   0.03634   0.05545
 Alpha virt. eigenvalues --    0.05904   0.08143   0.08892   0.13244   0.15025
 Alpha virt. eigenvalues --    0.16179   0.16812   0.20438   0.21547   0.21969
 Alpha virt. eigenvalues --    0.22246   0.24209   0.25276   0.28962   0.29376
 Alpha virt. eigenvalues --    0.30455   0.32881   0.33374   0.36053   0.37085
 Alpha virt. eigenvalues --    0.37351   0.39920   0.41021   0.42644   0.44771
 Alpha virt. eigenvalues --    0.46457   0.50948   0.52274   0.55180   0.57871
 Alpha virt. eigenvalues --    0.64554   0.73244   0.75871   0.77097   0.81617
 Alpha virt. eigenvalues --    0.85967   0.87463   0.88879   0.91104   0.95878
 Alpha virt. eigenvalues --    0.96328   1.01451   1.05295   1.11414   1.12501
 Alpha virt. eigenvalues --    1.14756   1.18440   1.25132   1.32246   1.40296
 Alpha virt. eigenvalues --    1.43190   1.49678   1.57461   1.69214   1.72846
 Alpha virt. eigenvalues --    1.79583   1.91297   2.05997   2.06607   2.09065
 Alpha virt. eigenvalues --    2.14822   2.25440   2.38885   2.45984   2.59620
 Alpha virt. eigenvalues --    2.60147   2.83648   2.96339   2.96745   3.36305
  Beta  occ. eigenvalues --  -88.95302 -14.32769 -10.22457  -8.03600  -6.00396
  Beta  occ. eigenvalues --   -6.00196  -5.99834  -0.93320  -0.76687  -0.61003
  Beta  occ. eigenvalues --   -0.50470  -0.47555  -0.39423  -0.36308  -0.30026
  Beta  occ. eigenvalues --   -0.24403
  Beta virt. eigenvalues --   -0.07770   0.01016   0.02114   0.03634   0.05545
  Beta virt. eigenvalues --    0.05904   0.08143   0.08892   0.13244   0.15025
  Beta virt. eigenvalues --    0.16179   0.16812   0.20438   0.21547   0.21969
  Beta virt. eigenvalues --    0.22246   0.24209   0.25276   0.28962   0.29376
  Beta virt. eigenvalues --    0.30455   0.32881   0.33374   0.36053   0.37085
  Beta virt. eigenvalues --    0.37351   0.39920   0.41021   0.42644   0.44771
  Beta virt. eigenvalues --    0.46457   0.50948   0.52274   0.55180   0.57871
  Beta virt. eigenvalues --    0.64554   0.73244   0.75871   0.77097   0.81617
  Beta virt. eigenvalues --    0.85967   0.87463   0.88879   0.91104   0.95878
  Beta virt. eigenvalues --    0.96328   1.01451   1.05295   1.11414   1.12501
  Beta virt. eigenvalues --    1.14756   1.18440   1.25132   1.32246   1.40296
  Beta virt. eigenvalues --    1.43190   1.49678   1.57461   1.69214   1.72846
  Beta virt. eigenvalues --    1.79583   1.91297   2.05997   2.06607   2.09065
  Beta virt. eigenvalues --    2.14822   2.25440   2.38885   2.45984   2.59620
  Beta virt. eigenvalues --    2.60147   2.83648   2.96339   2.96745   3.36305
          Condensed to atoms (all electrons):
               1          2          3          4          5          6
     1  C    4.455113   0.279473   0.023971   0.327074   0.412472  -0.058921
     2  S    0.279473  15.617446   0.016409  -0.035331  -0.072179   0.108652
     3  N    0.023971   0.016409   7.218760   0.004350  -0.015914  -0.037538
     4  H    0.327074  -0.035331   0.004350   1.057087  -0.124715   0.002994
     5  H    0.412472  -0.072179  -0.015914  -0.124715   0.971403   0.004764
     6  H   -0.058921   0.108652  -0.037538   0.002994   0.004764   1.009068
          Atomic-Atomic Spin Densities.
               1          2          3          4          5          6
     1  C   -0.000000   0.000000  -0.000000  -0.000000   0.000000   0.000000
     2  S    0.000000   0.000000   0.000000  -0.000000  -0.000000  -0.000000
     3  N   -0.000000   0.000000   0.000000  -0.000000  -0.000000   0.000000
     4  H   -0.000000  -0.000000  -0.000000   0.000000  -0.000000   0.000000
     5  H    0.000000  -0.000000  -0.000000  -0.000000   0.000000  -0.000000
     6  H    0.000000  -0.000000   0.000000   0.000000  -0.000000  -0.000000
 Mulliken charges and spin densities:
               1          2
     1  C    0.560818  -0.000000
     2  S    0.085530   0.000000
     3  N   -0.210039   0.000000
     4  H   -0.231459  -0.000000
     5  H   -0.175831   0.000000
     6  H   -0.029019  -0.000000
 Sum of Mulliken charges =  -0.00000   0.00000
 Mulliken charges and spin densities with hydrogens summed into heavy atoms:
               1          2
     1  C    0.153528  -0.000000
     2  S    0.085530   0.000000
     3  N   -0.239058   0.000000
 Electronic spatial extent (au):  <R**2>=            821.9893
 Charge=             -0.0000 electrons
 Dipole moment (field-independent basis, Debye):
    X=             -2.5467    Y=             -0.2264    Z=             -0.0884  Tot=              2.5582
 Quadrupole moment (field-independent basis, Debye-Ang):
   XX=            -39.0863   YY=            -24.6485   ZZ=            -26.0369
   XY=             -3.0479   XZ=             -1.8248   YZ=              1.7997
 Traceless Quadrupole moment (field-independent basis, Debye-Ang):
   XX=             -9.1624   YY=              5.2754   ZZ=              3.8870
   XY=             -3.0479   XZ=             -1.8248   YZ=              1.7997
 Octapole moment (field-independent basis, Debye-Ang**2):
  XXX=           -232.9903  YYY=            -28.0358  ZZZ=            -19.3145  XYY=            -59.1014
  XXY=            -27.5969  XXZ=            -16.9484  XZZ=            -59.0913  YZZ=             -8.6229
  YYZ=             -3.0415  XYZ=              0.6927
 Hexadecapole moment (field-independent basis, Debye-Ang**3):
 XXXX=          -1196.1041 YYYY=            -93.7565 ZZZZ=            -60.8777 XXXY=           -172.5205
 XXXZ=           -105.9337 YYYX=            -87.7139 YYYZ=            -13.3463 ZZZX=            -57.7058
 ZZZY=            -19.8110 XXYY=           -189.9422 XXZZ=           -175.3420 YYZZ=            -21.7394
 XXYZ=            -13.3411 YYXZ=            -11.8601 ZZXY=            -27.5850
 N-N= 1.020311797422D+02 E-N=-1.369021515758D+03  KE= 4.905346246407D+02
                          Isotropic Fermi Contact Couplings
        Atom                 a.u.       MegaHertz       Gauss      10(-4) cm-1
     1  C(13)              0.00000       0.00000       0.00000       0.00000
     2  S(33)              0.00000       0.00000       0.00000       0.00000
     3  N(14)              0.00000       0.00000       0.00000       0.00000
     4  H(1)               0.00000       0.00000       0.00000       0.00000
     5  H(1)               0.00000       0.00000       0.00000       0.00000
     6  H(1)              -0.00000      -0.00000      -0.00000      -0.00000
 --------------------------------------------------------
       Center         ----  Spin Dipole Couplings  ----
                      3XX-RR        3YY-RR        3ZZ-RR
 --------------------------------------------------------
     1   Atom        0.000000      0.000000      0.000000
     2   Atom        0.000000      0.000000      0.000000
     3   Atom        0.000000      0.000000      0.000000
     4   Atom        0.000000      0.000000      0.000000
     5   Atom        0.000000      0.000000      0.000000
     6   Atom        0.000000      0.000000      0.000000
 --------------------------------------------------------
                        XY            XZ            YZ
 --------------------------------------------------------
     1   Atom        0.000000      0.000000      0.000000
     2   Atom        0.000000      0.000000      0.000000
     3   Atom        0.000000      0.000000      0.000000
     4   Atom        0.000000      0.000000      0.000000
     5   Atom        0.000000      0.000000      0.000000
     6   Atom        0.000000      0.000000      0.000000
 --------------------------------------------------------


 ---------------------------------------------------------------------------------
              Anisotropic Spin Dipole Couplings in Principal Axis System
 ---------------------------------------------------------------------------------

       Atom             a.u.   MegaHertz   Gauss  10(-4) cm-1        Axes

              Baa     0.0000     0.000     0.000     0.000  1.0000  0.0000  0.0000
     1 C(13)  Bbb     0.0000     0.000     0.000     0.000 -0.0000  1.0000  0.0000
              Bcc     0.0000     0.000     0.000     0.000  0.0000  0.0000  1.0000
 
              Baa     0.0000     0.000     0.000     0.000  1.0000  0.0000  0.0000
     2 S(33)  Bbb     0.0000     0.000     0.000     0.000 -0.0000  1.0000  0.0000
              Bcc     0.0000     0.000     0.000     0.000  0.0000  0.0000  1.0000
 
              Baa     0.0000     0.000     0.000     0.000  1.0000  0.0000  0.0000
     3 N(14)  Bbb     0.0000     0.000     0.000     0.000 -0.0000  1.0000  0.0000
              Bcc     0.0000     0.000     0.000     0.000  0.0000  0.0000  1.0000
 
              Baa     0.0000     0.000     0.000     0.000  1.0000  0.0000  0.0000
     4 H(1)   Bbb     0.0000     0.000     0.000     0.000 -0.0000  1.0000  0.0000
              Bcc     0.0000     0.000     0.000     0.000  0.0000  0.0000  1.0000
 
              Baa     0.0000     0.000     0.000     0.000  1.0000  0.0000  0.0000
     5 H(1)   Bbb     0.0000     0.000     0.000     0.000 -0.0000  1.0000  0.0000
              Bcc     0.0000     0.000     0.000     0.000  0.0000  0.0000  1.0000
 
              Baa     0.0000     0.000     0.000     0.000  1.0000  0.0000  0.0000
     6 H(1)   Bbb     0.0000     0.000     0.000     0.000 -0.0000  1.0000  0.0000
              Bcc     0.0000     0.000     0.000     0.000  0.0000  0.0000  1.0000
 

 ---------------------------------------------------------------------------------

 No NMR shielding tensors so no spin-rotation constants.
 Leave Link  601 at Tue Jan  3 09:06:49 2023, MaxMem=   536870912 cpu:               0.3 elap:               0.1
 (Enter /opt/software/gaussian/g16.c01/l9999.exe)

 Test job not archived.
 1\1\GINC-GRA1076\Stability\UB3LYP\Gen\C1H3N1S1\BHAVUK\03-Jan-2023\0\\#
 p ub3lyp/gen stable=opt scf=(maxcycle=900,verytightlineq,xqc) integral
 =grid=ultrafine symmetry=None density=current iop(99/18=-1) output=wfn
 \\0004_q000_m01_k00_opt_uwb97xd_def2svpd/0004_q000_m01_k00_force_ub3ly
 p_def2svpd stable-force\\0,1\C,0,0.8882935141,0.1422345627,0.108926312
 3\S,0,2.5067242222,0.1041696479,0.0448895292\N,0,3.3032398974,1.229897
 4173,0.7707622237\H,0,0.3752741579,-0.6653344173,-0.4132293362\H,0,0.3
 242760911,0.9148647349,0.6338600998\H,0,2.7138421188,1.9201180545,1.24
 18511706\\Version=ES64L-G16RevC.01\HF=-492.6023035\S2=0.\S2-1=0.\S2A=0
 .\RMSD=3.668e-09\Dipole=-1.0019365,-0.0890592,-0.034791\Quadrupole=-6.
 8120345,3.9221502,2.8898842,-2.266065,-1.3567234,1.3380212\PG=Unknown\
 \@

 Writing a WFN file to "0004_q000_m01_k00_force_ub3lyp_def2svpd.wfn"


 IT WAS A GAME, A VERY INTERESTING GAME ONE COULD
 PLAY.  WHENEVER ONE SOLVED ONE OF THE LITTLE PROBLEMS,
 ONE COULD WRITE A PAPER ABOUT IT.  IT WAS VERY EASY IN
 THOSE DAYS FOR ANY SECOND-RATE PHYSICIST TO DO
 FIRST-RATE WORK.  THERE HAS NOT BEEN SUCH A GLORIOUS
 TIME SINCE.  IT IS VERY DIFFICULT NOW FOR A FIRST-RATE
 PHYSICIST TO DO SECOND-RATE WORK.
     P.A.M. DIRAC, ON THE EARLY DAYS OF QUANTUM MECHANICS
                   DIRECTIONS IN PHYSICS, 1978, P. 7
 Job cpu time:       0 days  0 hours  1 minutes 10.9 seconds.
 Elapsed time:       0 days  0 hours  0 minutes 35.6 seconds.
 File lengths (MBytes):  RWF=     79 Int=      0 D2E=      0 Chk=      2 Scr=      1
 Normal termination of Gaussian 16 at Tue Jan  3 09:06:49 2023.
 Initial command:
 /opt/software/gaussian/g16.c01/l1.exe "/localscratch/bhavuk.2151395.0/Gau-19897.inp" -scrdir="/localscratch/bhavuk.2151395.0/"
 Entering Link 1 = /opt/software/gaussian/g16.c01/l1.exe PID=     20260.
  
 Copyright (c) 1988-2019, Gaussian, Inc.  All Rights Reserved.
  
 This is part of the Gaussian(R) 16 program.  It is based on
 the Gaussian(R) 09 system (copyright 2009, Gaussian, Inc.),
 the Gaussian(R) 03 system (copyright 2003, Gaussian, Inc.),
 the Gaussian(R) 98 system (copyright 1998, Gaussian, Inc.),
 the Gaussian(R) 94 system (copyright 1995, Gaussian, Inc.),
 the Gaussian 92(TM) system (copyright 1992, Gaussian, Inc.),
 the Gaussian 90(TM) system (copyright 1990, Gaussian, Inc.),
 the Gaussian 88(TM) system (copyright 1988, Gaussian, Inc.),
 the Gaussian 86(TM) system (copyright 1986, Carnegie Mellon
 University), and the Gaussian 82(TM) system (copyright 1983,
 Carnegie Mellon University). Gaussian is a federally registered
 trademark of Gaussian, Inc.
  
 This software contains proprietary and confidential information,
 including trade secrets, belonging to Gaussian, Inc.
  
 This software is provided under written license and may be
 used, copied, transmitted, or stored only in accord with that
 written license.
  
 The following legend is applicable only to US Government
 contracts under FAR:
  
                    RESTRICTED RIGHTS LEGEND
  
 Use, reproduction and disclosure by the US Government is
 subject to restrictions as set forth in subparagraphs (a)
 and (c) of the Commercial Computer Software - Restricted
 Rights clause in FAR 52.227-19.
  
 Gaussian, Inc.
 340 Quinnipiac St., Bldg. 40, Wallingford CT 06492
  
  
 ---------------------------------------------------------------
 Warning -- This program may not be used in any manner that
 competes with the business of Gaussian, Inc. or will provide
 assistance to any competitor of Gaussian, Inc.  The licensee
 of this program is prohibited from giving any competitor of
 Gaussian, Inc. access to this program.  By using this program,
 the user acknowledges that Gaussian, Inc. is engaged in the
 business of creating and licensing software in the field of
 computational chemistry and represents and warrants to the
 licensee that it is not a competitor of Gaussian, Inc. and that
 it will not use this program in any manner prohibited above.
 ---------------------------------------------------------------
  

 Cite this work as:
 Gaussian 16, Revision C.01,
 M. J. Frisch, G. W. Trucks, H. B. Schlegel, G. E. Scuseria, 
 M. A. Robb, J. R. Cheeseman, G. Scalmani, V. Barone, 
 G. A. Petersson, H. Nakatsuji, X. Li, M. Caricato, A. V. Marenich, 
 J. Bloino, B. G. Janesko, R. Gomperts, B. Mennucci, H. P. Hratchian, 
 J. V. Ortiz, A. F. Izmaylov, J. L. Sonnenberg, D. Williams-Young, 
 F. Ding, F. Lipparini, F. Egidi, J. Goings, B. Peng, A. Petrone, 
 T. Henderson, D. Ranasinghe, V. G. Zakrzewski, J. Gao, N. Rega, 
 G. Zheng, W. Liang, M. Hada, M. Ehara, K. Toyota, R. Fukuda, 
 J. Hasegawa, M. Ishida, T. Nakajima, Y. Honda, O. Kitao, H. Nakai, 
 T. Vreven, K. Throssell, J. A. Montgomery, Jr., J. E. Peralta, 
 F. Ogliaro, M. J. Bearpark, J. J. Heyd, E. N. Brothers, K. N. Kudin, 
 V. N. Staroverov, T. A. Keith, R. Kobayashi, J. Normand, 
 K. Raghavachari, A. P. Rendell, J. C. Burant, S. S. Iyengar, 
 J. Tomasi, M. Cossi, J. M. Millam, M. Klene, C. Adamo, R. Cammi, 
 J. W. Ochterski, R. L. Martin, K. Morokuma, O. Farkas, 
 J. B. Foresman, and D. J. Fox, Gaussian, Inc., Wallingford CT, 2019.
 
 ******************************************
 Gaussian 16:  ES64L-G16RevC.01  3-Jul-2019
                 3-Jan-2023 
 ******************************************
 %chk=0004_q000_m01_k00_force_ub3lyp_def2svpd.chk
 %nprocshared=2
 Will use up to    2 processors via shared memory.
 %mem=4GB
 ----------------------------------------------------------------------
 #p ub3lyp/chkbasis force guess=read geom=check scf=(maxcycle=900,veryt
 ightlineq,xqc) integral=grid=ultrafine symmetry=None density=current p
 op=(cm5,hlygat,mbs,npa) output=wfx
 ----------------------------------------------------------------------
 1/10=7,29=2,30=1,38=1/1,3;
 2/12=2,15=3,40=1/2;
 3/5=7,6=2,11=2,14=-4,25=1,30=1,67=1,71=1,74=-5,75=-5,116=2/1,2,3;
 4/5=1/1;
 5/5=2,7=900,8=3,13=1,17=3,38=6/2,8;
 6/7=2,8=2,9=2,10=2,15=8,20=15,22=-1,27=100,28=1,40=-1,79=1/1,2,7;
 7/29=1,30=1/1,2,3,16;
 1/10=7,30=1/3;
 99/6=200/99;
 Leave Link    1 at Tue Jan  3 09:06:49 2023, MaxMem=   536870912 cpu:               0.2 elap:               0.1
 (Enter /opt/software/gaussian/g16.c01/l101.exe)
 ----------------------------------------------------------------------
 0004_q000_m01_k00_opt_uwb97xd_def2svpd/0004_q000_m01_k00_force_ub3lyp_
 def2svpd stable-force
 ----------------------------------------------------------------------
 Structure from the checkpoint file:  "0004_q000_m01_k00_force_ub3lyp_def2svpd.chk"
 Charge =  0 Multiplicity = 1
 Z-Matrix found in chk file.
 C,0,0.8882935141,0.1422345627,0.1089263123
 S,0,2.5067242222,0.1041696479,0.0448895292
 N,0,3.3032398974,1.2298974173,0.7707622237
 H,0,0.3752741579,-0.6653344173,-0.4132293362
 H,0,0.3242760911,0.9148647349,0.6338600998
 H,0,2.7138421188,1.9201180545,1.2418511706
 Recover connectivity data from disk.
 ITRead=  0  0  0  0  0  0
 MicOpt= -1 -1 -1 -1 -1 -1
 NAtoms=      6 NQM=        6 NQMF=       0 NMMI=      0 NMMIF=      0
                NMic=       0 NMicF=      0.
                    Isotopes and Nuclear Properties:
 (Nuclear quadrupole moments (NQMom) in fm**2, nuclear magnetic moments (NMagM)
  in nuclear magnetons)

  Atom         1           2           3           4           5           6
 IAtWgt=          12          32          14           1           1           1
 AtmWgt=  12.0000000  31.9720718  14.0030740   1.0078250   1.0078250   1.0078250
 NucSpn=           0           0           2           1           1           1
 AtZEff=   3.6000000  13.6000000   4.5500000   1.0000000   1.0000000   1.0000000
 NQMom=    0.0000000   0.0000000   2.0440000   0.0000000   0.0000000   0.0000000
 NMagM=    0.0000000   0.0000000   0.4037610   2.7928460   2.7928460   2.7928460
 AtZNuc=   6.0000000  16.0000000   7.0000000   1.0000000   1.0000000   1.0000000
 Leave Link  101 at Tue Jan  3 09:06:50 2023, MaxMem=   536870912 cpu:               0.4 elap:               0.2
 (Enter /opt/software/gaussian/g16.c01/l103.exe)

 GradGradGradGradGradGradGradGradGradGradGradGradGradGradGradGradGradGrad
 Berny optimization.
 Initialization pass.
 Trust Radius=3.00D-01 FncErr=1.00D-07 GrdErr=1.00D-07 EigMax=2.50D+02 EigMin=1.00D-04
 Number of steps in this run=      2 maximum allowed number of steps=      2.
 GradGradGradGradGradGradGradGradGradGradGradGradGradGradGradGradGradGrad

 Leave Link  103 at Tue Jan  3 09:06:50 2023, MaxMem=   536870912 cpu:               0.0 elap:               0.0
 (Enter /opt/software/gaussian/g16.c01/l202.exe)
                          Input orientation:                          
 ---------------------------------------------------------------------
 Center     Atomic      Atomic             Coordinates (Angstroms)
 Number     Number       Type             X           Y           Z
 ---------------------------------------------------------------------
      1          6           0        0.888294    0.142235    0.108926
      2         16           0        2.506724    0.104170    0.044890
      3          7           0        3.303240    1.229897    0.770762
      4          1           0        0.375274   -0.665334   -0.413229
      5          1           0        0.324276    0.914865    0.633860
      6          1           0        2.713842    1.920118    1.241851
 ---------------------------------------------------------------------
                    Distance matrix (angstroms):
                    1          2          3          4          5
     1  C    0.000000
     2  S    1.620144   0.000000
     3  N    2.730019   1.558394   0.000000
     4  H    1.089956   2.311945   3.683303   0.000000
     5  H    1.091159   2.401498   2.998702   1.896319   0.000000
     6  H    2.788730   2.184785   1.022604   3.859113   2.662745
                    6
     6  H    0.000000
 Symmetry turned off by external request.
 Stoichiometry    CH3NS
 Rotational constants (GHZ):          36.3131241           8.8290023           7.1022055
 Leave Link  202 at Tue Jan  3 09:06:50 2023, MaxMem=   536870912 cpu:               0.0 elap:               0.0
 (Enter /opt/software/gaussian/g16.c01/l301.exe)
 Basis read from chk: "0004_q000_m01_k00_force_ub3lyp_def2svpd.chk" (5D, 7F)
 No pseudopotential information found on chk file.
    91 basis functions,   141 primitive gaussians,    97 cartesian basis functions
    16 alpha electrons       16 beta electrons
       nuclear repulsion energy       102.0311797422 Hartrees.
 IExCor=  402 DFT=T Ex+Corr=B3LYP ExCW=0 ScaHFX=  0.200000
 ScaDFX=  0.800000  0.720000  1.000000  0.810000 ScalE2=  1.000000  1.000000
 IRadAn=      5 IRanWt=     -1 IRanGd=            0 ICorTp=0 IEmpDi=  4
 NAtoms=    6 NActive=    6 NUniq=    6 SFac= 1.00D+00 NAtFMM=   60 NAOKFM=F Big=F
 Integral buffers will be    131072 words long.
 Raffenetti 2 integral format.
 Two-electron integral symmetry is turned off.
 No density basis found on file  20724.
 Leave Link  301 at Tue Jan  3 09:06:50 2023, MaxMem=   536870912 cpu:               0.1 elap:               0.1
 (Enter /opt/software/gaussian/g16.c01/l302.exe)
 NPDir=0 NMtPBC=     1 NCelOv=     1 NCel=       1 NClECP=     1 NCelD=      1
         NCelK=      1 NCelE2=     1 NClLst=     1 CellRange=     0.0.
 One-electron integrals computed using PRISM.
 NBasis=    91 RedAO= T EigKep=  4.68D-04  NBF=    91
 NBsUse=    91 1.00D-06 EigRej= -1.00D+00 NBFU=    91
 Precomputing XC quadrature grid using
 IXCGrd= 4 IRadAn=           5 IRanWt=          -1 IRanGd=           0 AccXCQ= 0.00D+00.
 Generated NRdTot=       0 NPtTot=           0 NUsed=           0 NTot=          32
 NSgBfM=    97    97    97    97    97 MxSgAt=     6 MxSgA2=     6.
 Leave Link  302 at Tue Jan  3 09:06:50 2023, MaxMem=   536870912 cpu:               0.3 elap:               0.2
 (Enter /opt/software/gaussian/g16.c01/l303.exe)
 DipDrv:  MaxL=1.
 Leave Link  303 at Tue Jan  3 09:06:50 2023, MaxMem=   536870912 cpu:               0.1 elap:               0.0
 (Enter /opt/software/gaussian/g16.c01/l401.exe)
 Initial guess from the checkpoint file:  "0004_q000_m01_k00_force_ub3lyp_def2svpd.chk"
 B after Tr=     0.000000    0.000000    0.000000
         Rot=    1.000000    0.000000    0.000000    0.000000 Ang=   0.00 deg.
 Guess basis will be translated and rotated to current coordinates.
 JPrj=2 DoOrth=T DoCkMO=T.
 Initial guess <Sx>= 0.0000 <Sy>= 0.0000 <Sz>= 0.0000 <S**2>=-0.0000 S=-0.0000
 Leave Link  401 at Tue Jan  3 09:06:50 2023, MaxMem=   536870912 cpu:               0.2 elap:               0.1
 (Enter /opt/software/gaussian/g16.c01/l502.exe)
 Keep R1 and R2 ints in memory in canonical form, NReq=19372367.
 FoFCou: FMM=F IPFlag=           0 FMFlag=           0 FMFlg1=           0
         NFxFlg=           0 DoJE=F BraDBF=F KetDBF=F FulRan=T
         wScrn=  0.000000 ICntrl=       600 IOpCl=  0 I1Cent=           0 NGrid=           0
         NMat0=    1 NMatS0=   4186 NMatT0=    0 NMatD0=    1 NMtDS0=    0 NMtDT0=    0
 Symmetry not used in FoFCou.
 Two-electron integral symmetry not used.
 UHF open shell SCF:
 Using DIIS extrapolation, IDIIS=  1040.
 NGot=   536870912 LenX=   519323767 LenY=   519313917
 Requested convergence on RMS density matrix=1.00D-08 within 128 cycles.
 Requested convergence on MAX density matrix=1.00D-06.
 Requested convergence on             energy=1.00D-06.
 No special actions if energy rises.

 Cycle   1  Pass 1  IDiag  1:
 E= -492.602303475480    
 DIIS: error= 4.11D-09 at cycle   1 NSaved=   1.
 NSaved= 1 IEnMin= 1 EnMin= -492.602303475480     IErMin= 1 ErrMin= 4.11D-09
 ErrMax= 4.11D-09  0.00D+00 EMaxC= 1.00D-01 BMatC= 1.11D-14 BMatP= 1.11D-14
 IDIUse=1 WtCom= 1.00D+00 WtEn= 0.00D+00
 Coeff-Com:  0.100D+01
 Coeff:      0.100D+01
 Gap=     0.166 Goal=   None    Shift=    0.000
 Gap=     0.166 Goal=   None    Shift=    0.000
 RMSDP=1.99D-09 MaxDP=2.71D-08              OVMax= 8.17D-08

 SCF Done:  E(UB3LYP) =  -492.602303475     A.U. after    1 cycles
            NFock=  1  Conv=0.20D-08     -V/T= 2.0042
 <Sx>= 0.0000 <Sy>= 0.0000 <Sz>= 0.0000 <S**2>=-0.0000 S=-0.0000
 <L.S>=  0.00000000000    
 KE= 4.905346247225D+02 PE=-1.369021515840D+03 EE= 2.838534078999D+02
 Annihilation of the first spin contaminant:
 S**2 before annihilation    -0.0000,   after     0.0000
 Leave Link  502 at Tue Jan  3 09:06:51 2023, MaxMem=   536870912 cpu:               2.1 elap:               1.1
 (Enter /opt/software/gaussian/g16.c01/l508.exe)
 QCSCF skips out because SCF is already converged.
 Leave Link  508 at Tue Jan  3 09:06:51 2023, MaxMem=   536870912 cpu:               0.0 elap:               0.0
 (Enter /opt/software/gaussian/g16.c01/l601.exe)
 Copying SCF densities to generalized density rwf, IOpCl= 1 IROHF=0.

 **********************************************************************

            Population analysis using the SCF Density.

 **********************************************************************

 Alpha  occ. eigenvalues --  -88.95302 -14.32769 -10.22457  -8.03600  -6.00396
 Alpha  occ. eigenvalues --   -6.00196  -5.99834  -0.93320  -0.76687  -0.61003
 Alpha  occ. eigenvalues --   -0.50470  -0.47555  -0.39423  -0.36308  -0.30026
 Alpha  occ. eigenvalues --   -0.24403
 Alpha virt. eigenvalues --   -0.07770   0.01016   0.02114   0.03634   0.05545
 Alpha virt. eigenvalues --    0.05904   0.08143   0.08892   0.13244   0.15025
 Alpha virt. eigenvalues --    0.16179   0.16812   0.20438   0.21547   0.21969
 Alpha virt. eigenvalues --    0.22246   0.24209   0.25276   0.28962   0.29376
 Alpha virt. eigenvalues --    0.30455   0.32881   0.33374   0.36053   0.37085
 Alpha virt. eigenvalues --    0.37351   0.39920   0.41021   0.42644   0.44771
 Alpha virt. eigenvalues --    0.46457   0.50948   0.52274   0.55180   0.57871
 Alpha virt. eigenvalues --    0.64554   0.73244   0.75871   0.77097   0.81617
 Alpha virt. eigenvalues --    0.85967   0.87463   0.88879   0.91104   0.95878
 Alpha virt. eigenvalues --    0.96328   1.01451   1.05295   1.11414   1.12501
 Alpha virt. eigenvalues --    1.14756   1.18440   1.25132   1.32246   1.40296
 Alpha virt. eigenvalues --    1.43190   1.49678   1.57461   1.69214   1.72846
 Alpha virt. eigenvalues --    1.79583   1.91297   2.05997   2.06607   2.09065
 Alpha virt. eigenvalues --    2.14822   2.25440   2.38885   2.45984   2.59620
 Alpha virt. eigenvalues --    2.60147   2.83648   2.96339   2.96745   3.36305
  Beta  occ. eigenvalues --  -88.95302 -14.32769 -10.22457  -8.03600  -6.00396
  Beta  occ. eigenvalues --   -6.00196  -5.99834  -0.93320  -0.76687  -0.61003
  Beta  occ. eigenvalues --   -0.50470  -0.47555  -0.39423  -0.36308  -0.30026
  Beta  occ. eigenvalues --   -0.24403
  Beta virt. eigenvalues --   -0.07770   0.01016   0.02114   0.03634   0.05545
  Beta virt. eigenvalues --    0.05904   0.08143   0.08892   0.13244   0.15025
  Beta virt. eigenvalues --    0.16179   0.16812   0.20438   0.21547   0.21969
  Beta virt. eigenvalues --    0.22246   0.24209   0.25276   0.28962   0.29376
  Beta virt. eigenvalues --    0.30455   0.32881   0.33374   0.36053   0.37085
  Beta virt. eigenvalues --    0.37351   0.39920   0.41021   0.42644   0.44771
  Beta virt. eigenvalues --    0.46457   0.50948   0.52274   0.55180   0.57871
  Beta virt. eigenvalues --    0.64554   0.73244   0.75871   0.77097   0.81617
  Beta virt. eigenvalues --    0.85967   0.87463   0.88879   0.91104   0.95878
  Beta virt. eigenvalues --    0.96328   1.01451   1.05295   1.11414   1.12501
  Beta virt. eigenvalues --    1.14756   1.18440   1.25132   1.32246   1.40296
  Beta virt. eigenvalues --    1.43190   1.49678   1.57461   1.69214   1.72846
  Beta virt. eigenvalues --    1.79583   1.91297   2.05997   2.06607   2.09065
  Beta virt. eigenvalues --    2.14822   2.25440   2.38885   2.45984   2.59620
  Beta virt. eigenvalues --    2.60147   2.83648   2.96339   2.96745   3.36305
          Condensed to atoms (all electrons):
               1          2          3          4          5          6
     1  C    4.455112   0.279473   0.023971   0.327074   0.412472  -0.058921
     2  S    0.279473  15.617446   0.016409  -0.035331  -0.072179   0.108652
     3  N    0.023971   0.016409   7.218760   0.004350  -0.015914  -0.037538
     4  H    0.327074  -0.035331   0.004350   1.057087  -0.124715   0.002994
     5  H    0.412472  -0.072179  -0.015914  -0.124715   0.971403   0.004764
     6  H   -0.058921   0.108652  -0.037538   0.002994   0.004764   1.009068
          Atomic-Atomic Spin Densities.
               1          2          3          4          5          6
     1  C   -0.000000  -0.000000  -0.000000   0.000000  -0.000000   0.000000
     2  S   -0.000000   0.000000  -0.000000  -0.000000  -0.000000   0.000000
     3  N   -0.000000  -0.000000   0.000000   0.000000  -0.000000  -0.000000
     4  H    0.000000  -0.000000   0.000000   0.000000   0.000000   0.000000
     5  H   -0.000000  -0.000000  -0.000000   0.000000   0.000000  -0.000000
     6  H    0.000000   0.000000  -0.000000   0.000000  -0.000000   0.000000
 Mulliken charges and spin densities:
               1          2
     1  C    0.560818  -0.000000
     2  S    0.085530  -0.000000
     3  N   -0.210039   0.000000
     4  H   -0.231459   0.000000
     5  H   -0.175831   0.000000
     6  H   -0.029019  -0.000000
 Sum of Mulliken charges =  -0.00000  -0.00000
 Mulliken charges and spin densities with hydrogens summed into heavy atoms:
               1          2
     1  C    0.153528   0.000000
     2  S    0.085530  -0.000000
     3  N   -0.239058  -0.000000
 Electronic spatial extent (au):  <R**2>=            821.9893
 Charge=             -0.0000 electrons
 Dipole moment (field-independent basis, Debye):
    X=             -2.5467    Y=             -0.2264    Z=             -0.0884  Tot=              2.5582
 Quadrupole moment (field-independent basis, Debye-Ang):
   XX=            -39.0864   YY=            -24.6485   ZZ=            -26.0369
   XY=             -3.0479   XZ=             -1.8248   YZ=              1.7997
 Traceless Quadrupole moment (field-independent basis, Debye-Ang):
   XX=             -9.1624   YY=              5.2754   ZZ=              3.8870
   XY=             -3.0479   XZ=             -1.8248   YZ=              1.7997
 Octapole moment (field-independent basis, Debye-Ang**2):
  XXX=           -232.9903  YYY=            -28.0358  ZZZ=            -19.3145  XYY=            -59.1014
  XXY=            -27.5969  XXZ=            -16.9484  XZZ=            -59.0913  YZZ=             -8.6229
  YYZ=             -3.0415  XYZ=              0.6927
 Hexadecapole moment (field-independent basis, Debye-Ang**3):
 XXXX=          -1196.1043 YYYY=            -93.7565 ZZZZ=            -60.8777 XXXY=           -172.5206
 XXXZ=           -105.9337 YYYX=            -87.7139 YYYZ=            -13.3463 ZZZX=            -57.7058
 ZZZY=            -19.8110 XXYY=           -189.9423 XXZZ=           -175.3420 YYZZ=            -21.7394
 XXYZ=            -13.3411 YYXZ=            -11.8601 ZZXY=            -27.5850
 N-N= 1.020311797422D+02 E-N=-1.369021515941D+03  KE= 4.905346247225D+02
 There are a total of      136008 grid points.
 ElSum from          density=       32.0000001697
 ElSum from atomic densities=       32.0000004807

 Hirshfeld populations at iteration   1 (CX, CA, CB, DipXYZ):
               1          2          3          4          5          6
     1  C    0.000000   3.062574   3.062574  -0.073275   0.018445   0.013969
     2  S    0.000007   7.885151   7.885151  -0.008946   0.048193   0.032117
     3  N    0.000008   3.642794   3.642794  -0.238683   0.025215   0.022436
     4  H    0.000002   0.477199   0.477199  -0.092032  -0.120876  -0.077792
     5  H    0.000000   0.475840   0.475840  -0.093731   0.114718   0.078181
     6  H    0.000001   0.456441   0.456441  -0.099295   0.135114   0.091832
       Tot   0.000018  16.000000  16.000000  -0.605962   0.220809   0.160743

 Dip from Atomic Chgs             -0.395976  -0.309870  -0.195532
         Total Dipole             -1.001937  -0.089061  -0.034788

 Hirshfeld charges, spin densities, dipoles, and CM5 charges using IRadAn=      5:
              Q-H        S-H        Dx         Dy         Dz        Q-CM5   
     1  C   -0.125148   0.000000  -0.073275   0.018445   0.013969  -0.200767
     2  S    0.229698   0.000000  -0.008946   0.048193   0.032117   0.274346
     3  N   -0.285589   0.000000  -0.238683   0.025215   0.022436  -0.548950
     4  H    0.045601  -0.000000  -0.092032  -0.120876  -0.077792   0.099522
     5  H    0.048319  -0.000000  -0.093731   0.114718   0.078181   0.102020
     6  H    0.087117  -0.000000  -0.099295   0.135114   0.091832   0.273829
       Tot  -0.000000   0.000000  -0.605962   0.220809   0.160743  -0.000000
 Hirshfeld charges and spin densities with hydrogens summed into heavy atoms:
              Q-H        S-H       Q-CM5   
     1  C   -0.031227   0.000000   0.000775
     2  S    0.229698   0.000000   0.274346
     3  N   -0.198471   0.000000  -0.275121
 
 EQQ= 0.445849749403E-29 EQD=-0.477252223777E-15 EDD= 0.634030679734E-02
 EQQ+QD+DD= 0.634030679734E-02
 
 GSVD:  LWork=        -945 too small for GESVD, short by        4050 words or        4050 for optimal perf.
          MBS Condensed to atoms (all electrons):
               1          2          3          4          5          6
     1  C    5.047960   0.470292  -0.013547   0.379398   0.374915  -0.003977
     2  S    0.470292  14.904625   0.453197  -0.021272  -0.015973  -0.025073
     3  N   -0.013547   0.453197   6.732141   0.000495  -0.001281   0.306559
     4  H    0.379398  -0.021272   0.000495   0.525414  -0.017113   0.000017
     5  H    0.374915  -0.015973  -0.001281  -0.017113   0.534125   0.001931
     6  H   -0.003977  -0.025073   0.306559   0.000017   0.001931   0.478603
          MBS Atomic-Atomic Spin Densities.
               1          2          3          4          5          6
     1  C    0.000000  -0.000000   0.000000   0.000000  -0.000000  -0.000000
     2  S   -0.000000   0.000000  -0.000000   0.000000   0.000000   0.000000
     3  N    0.000000  -0.000000  -0.000000  -0.000000  -0.000000  -0.000000
     4  H    0.000000   0.000000  -0.000000  -0.000000   0.000000   0.000000
     5  H   -0.000000   0.000000  -0.000000   0.000000  -0.000000  -0.000000
     6  H   -0.000000   0.000000  -0.000000   0.000000  -0.000000   0.000000
 MBS Mulliken charges and spin densities:
               1          2
     1  C   -0.255041   0.000000
     2  S    0.234205   0.000000
     3  N   -0.477564  -0.000000
     4  H    0.133062  -0.000000
     5  H    0.123396  -0.000000
     6  H    0.241942  -0.000000
 Sum of MBS Mulliken charges =   0.00000  -0.00000
 MBS Mulliken charges and spin densities with hydrogens summed into heavy atoms:
               1          2
     1  C    0.001417   0.000000
     2  S    0.234205   0.000000
     3  N   -0.235622  -0.000000
 MBS Atomic Valencies and Mayer Atomic Bond Orders:
               1          2          3          4          5          6
     1  C    3.912674   1.697209   0.322370   0.942559   0.946229   0.004307
     2  S    1.697209   3.557359   1.766634   0.018004   0.029751   0.045762
     3  N    0.322370   1.766634   2.999696   0.018952   0.003180   0.888560
     4  H    0.942559   0.018004   0.018952   0.982295   0.002779   0.000001
     5  H    0.946229   0.029751   0.003180   0.002779   0.984773   0.002835
     6  H    0.004307   0.045762   0.888560   0.000001   0.002835   0.941464
 MBS Mayer-style numbers of lone pairs (16.000 valence pairs, 9.311 lone pairs):
               1
     1  C    1.171184
     2  S    6.104218
     3  N    2.238934
     4  H   -0.057678
     5  H   -0.054085
     6  H   -0.091703
 BEBO parameters in MulMin, MxElBE=  0:
 ELP=  0.00000000000     EBEBO=  11.9229125302     Sum=  11.9229125302    
 ELP=  0.00000000000     EBEBO=  11.9229125302     EJK=  11.9229125302      0.00000000000     Sum=  11.9229125302    
 0 EA=  5.96145626510     EB=  5.96145626510     ETot=  11.9229125302    
 1 EA=  5.96145626510     EB=  5.96145626510     ETot=  11.9229125302    
 2 EA=  5.96145626510     EB=  5.96145626510     ETot=  11.9229125302    
 3 EJ=  11.9229125302     EK=  0.00000000000     ETot=  11.9229125302    
 4 EJ=  11.9229125302     EK=  0.00000000000     ETot=  11.9229125302    
 5 EA=  5.96145626510     EB=  5.96145626510     ETot=  11.9229125302    
                          Isotropic Fermi Contact Couplings
        Atom                 a.u.       MegaHertz       Gauss      10(-4) cm-1
     1  C(13)              0.00000       0.00000       0.00000       0.00000
     2  S(33)             -0.00000      -0.00000      -0.00000      -0.00000
     3  N(14)              0.00000       0.00000       0.00000       0.00000
     4  H(1)              -0.00000      -0.00000      -0.00000      -0.00000
     5  H(1)               0.00000       0.00000       0.00000       0.00000
     6  H(1)              -0.00000      -0.00000      -0.00000      -0.00000
 --------------------------------------------------------
       Center         ----  Spin Dipole Couplings  ----
                      3XX-RR        3YY-RR        3ZZ-RR
 --------------------------------------------------------
     1   Atom        0.000000      0.000000      0.000000
     2   Atom        0.000000      0.000000      0.000000
     3   Atom        0.000000      0.000000      0.000000
     4   Atom        0.000000      0.000000      0.000000
     5   Atom        0.000000      0.000000      0.000000
     6   Atom        0.000000      0.000000      0.000000
 --------------------------------------------------------
                        XY            XZ            YZ
 --------------------------------------------------------
     1   Atom        0.000000      0.000000      0.000000
     2   Atom        0.000000      0.000000      0.000000
     3   Atom        0.000000      0.000000      0.000000
     4   Atom        0.000000      0.000000      0.000000
     5   Atom        0.000000      0.000000      0.000000
     6   Atom        0.000000      0.000000      0.000000
 --------------------------------------------------------


 ---------------------------------------------------------------------------------
              Anisotropic Spin Dipole Couplings in Principal Axis System
 ---------------------------------------------------------------------------------

       Atom             a.u.   MegaHertz   Gauss  10(-4) cm-1        Axes

              Baa     0.0000     0.000     0.000     0.000  1.0000  0.0000  0.0000
     1 C(13)  Bbb     0.0000     0.000     0.000     0.000 -0.0000  1.0000  0.0000
              Bcc     0.0000     0.000     0.000     0.000  0.0000  0.0000  1.0000
 
              Baa     0.0000     0.000     0.000     0.000  1.0000  0.0000  0.0000
     2 S(33)  Bbb     0.0000     0.000     0.000     0.000 -0.0000  1.0000  0.0000
              Bcc     0.0000     0.000     0.000     0.000  0.0000  0.0000  1.0000
 
              Baa     0.0000     0.000     0.000     0.000  1.0000  0.0000  0.0000
     3 N(14)  Bbb     0.0000     0.000     0.000     0.000 -0.0000  1.0000  0.0000
              Bcc     0.0000     0.000     0.000     0.000  0.0000  0.0000  1.0000
 
              Baa     0.0000     0.000     0.000     0.000  1.0000  0.0000  0.0000
     4 H(1)   Bbb     0.0000     0.000     0.000     0.000 -0.0000  1.0000  0.0000
              Bcc     0.0000     0.000     0.000     0.000  0.0000  0.0000  1.0000
 
              Baa     0.0000     0.000     0.000     0.000  1.0000  0.0000  0.0000
     5 H(1)   Bbb     0.0000     0.000     0.000     0.000 -0.0000  1.0000  0.0000
              Bcc     0.0000     0.000     0.000     0.000  0.0000  0.0000  1.0000
 
              Baa     0.0000     0.000     0.000     0.000  1.0000  0.0000  0.0000
     6 H(1)   Bbb     0.0000     0.000     0.000     0.000 -0.0000  1.0000  0.0000
              Bcc     0.0000     0.000     0.000     0.000  0.0000  0.0000  1.0000
 

 ---------------------------------------------------------------------------------

 No NMR shielding tensors so no spin-rotation constants.
 Leave Link  601 at Tue Jan  3 09:06:52 2023, MaxMem=   536870912 cpu:               0.8 elap:               0.4
 (Enter /opt/software/gaussian/g16.c01/l602.exe)
 FitSet:  NAtFit=     6 NAtPot=     6 NAtFrz=     0 MDM=    10 TotChg=   0.00000
 Generate Potential Derived Charges using the Hu-Lu-Yang model:
 IRhTyp=1 IRadAn=         2 Sigma=    0.800 Ln(Rho0)=    -9.00 ThrGrd= 1.00D-08 Tiny= 1.00D-08
[...]
     4    C    1  S      Ryd( 3S)     0.00005       0.72726
     5    C    1  px     Val( 2p)     0.54183      -0.17540
     6    C    1  px     Ryd( 3p)     0.00305       0.66949
     7    C    1  py     Val( 2p)     0.62934      -0.14069
     8    C    1  py     Ryd( 3p)     0.00149       0.74662
     9    C    1  pz     Val( 2p)     0.62294      -0.16818
    10    C    1  pz     Ryd( 3p)     0.00238       0.65994
    11    C    1  dxy    Ryd( 4d)     0.00052       1.94886
    12    C    1  dxy    Ryd( 3d)     0.00010       0.90072
    13    C    1  dxz    Ryd( 4d)     0.00071       1.70980
    14    C    1  dxz    Ryd( 3d)     0.00006       0.80789
    15    C    1  dyz    Ryd( 4d)     0.00034       1.64663
    16    C    1  dyz    Ryd( 3d)     0.00020       0.94478
    17    C    1  dx2y2  Ryd( 4d)     0.00170       1.97584
    18    C    1  dx2y2  Ryd( 3d)     0.00005       0.75007
    19    C    1  dz2    Ryd( 4d)     0.00073       1.61477
    20    C    1  dz2    Ryd( 3d)     0.00006       0.74114
 
    21    S    2  S      Cor( 1S)     1.00000     -88.28441
    22    S    2  S      Cor( 2S)     0.99954      -8.42778
    23    S    2  S      Val( 3S)     0.76240      -0.70711
    24    S    2  S      Ryd( 5S)     0.00846       0.60819
    25    S    2  S      Ryd( 4S)     0.00023       0.29669
    26    S    2  px     Cor( 2p)     0.99984      -5.99190
    27    S    2  px     Val( 3p)     0.50622      -0.16612
    28    S    2  px     Ryd( 5p)     0.00439       0.82350
    29    S    2  px     Ryd( 4p)     0.00029       0.22026
    30    S    2  py     Cor( 2p)     0.99991      -5.99260
    31    S    2  py     Val( 3p)     0.59633      -0.22228
    32    S    2  py     Ryd( 5p)     0.00247       0.76307
    33    S    2  py     Ryd( 4p)     0.00009       0.25243
    34    S    2  pz     Cor( 2p)     0.99991      -5.99447
    35    S    2  pz     Val( 3p)     0.60051      -0.24443
    36    S    2  pz     Ryd( 5p)     0.00130       0.72564
    37    S    2  pz     Ryd( 4p)     0.00012       0.23759
    38    S    2  dxy    Ryd( 4d)     0.00668       0.86320
    39    S    2  dxy    Ryd( 3d)     0.00009       0.63663
    40    S    2  dxz    Ryd( 4d)     0.00928       0.75699
    41    S    2  dxz    Ryd( 3d)     0.00007       0.58907
    42    S    2  dyz    Ryd( 4d)     0.00387       0.72723
    43    S    2  dyz    Ryd( 3d)     0.00015       0.58994
    44    S    2  dx2y2  Ryd( 4d)     0.00985       0.96069
    45    S    2  dx2y2  Ryd( 3d)     0.00011       0.62675
    46    S    2  dz2    Ryd( 4d)     0.00627       0.71654
    47    S    2  dz2    Ryd( 3d)     0.00010       0.59072
 
    48    N    3  S      Cor( 1S)     0.99983     -14.19535
    49    N    3  S      Val( 2S)     0.79520      -0.63879
    50    N    3  S      Ryd( 3S)     0.00241       0.72761
    51    N    3  S      Ryd( 4S)     0.00006       1.13385
    52    N    3  px     Val( 2p)     0.81541      -0.24484
    53    N    3  px     Ryd( 3p)     0.00150       0.92406
    54    N    3  py     Val( 2p)     0.66139      -0.22911
    55    N    3  py     Ryd( 3p)     0.00210       1.02241
    56    N    3  pz     Val( 2p)     0.71562      -0.22780
    57    N    3  pz     Ryd( 3p)     0.00160       0.90809
    58    N    3  dxy    Ryd( 4d)     0.00370       1.68618
    59    N    3  dxy    Ryd( 3d)     0.00023       1.65978
    60    N    3  dxz    Ryd( 3d)     0.00325       1.32985
    61    N    3  dxz    Ryd( 4d)     0.00013       1.72564
    62    N    3  dyz    Ryd( 3d)     0.00176       1.40308
    63    N    3  dyz    Ryd( 4d)     0.00016       1.70334
    64    N    3  dx2y2  Ryd( 3d)     0.00299       1.25690
    65    N    3  dx2y2  Ryd( 4d)     0.00011       1.69126
    66    N    3  dz2    Ryd( 3d)     0.00178       1.16608
    67    N    3  dz2    Ryd( 4d)     0.00007       1.76532
 
    68    H    4  S      Val( 1S)     0.37277       0.02406
    69    H    4  S      Ryd( 2S)     0.00059       0.41054
    70    H    4  px     Ryd( 2p)     0.00101       0.70583
    71    H    4  px     Ryd( 3p)     0.00016       1.67992
    72    H    4  py     Ryd( 2p)     0.00047       0.81169
    73    H    4  py     Ryd( 3p)     0.00010       1.66922
    74    H    4  pz     Ryd( 2p)     0.00030       0.68883
    75    H    4  pz     Ryd( 3p)     0.00006       1.57617
 
    76    H    5  S      Val( 1S)     0.38044       0.02135
    77    H    5  S      Ryd( 2S)     0.00072       0.43619
    78    H    5  px     Ryd( 2p)     0.00105       0.59177
    79    H    5  px     Ryd( 3p)     0.00013       1.87068
    80    H    5  py     Ryd( 2p)     0.00044       0.58770
    81    H    5  py     Ryd( 3p)     0.00017       1.89852
    82    H    5  pz     Ryd( 2p)     0.00023       0.51952
    83    H    5  pz     Ryd( 3p)     0.00013       1.75715
 
    84    H    6  S      Val( 1S)     0.31252       0.06794
    85    H    6  S      Ryd( 2S)     0.00091       0.38373
    86    H    6  px     Ryd( 2p)     0.00043       1.43895
    87    H    6  px     Ryd( 3p)     0.00006       1.48693
    88    H    6  py     Ryd( 3p)     0.00049       1.51283
    89    H    6  py     Ryd( 2p)     0.00027       1.38409
    90    H    6  pz     Ryd( 3p)     0.00081       1.31337
    91    H    6  pz     Ryd( 2p)     0.00019       1.27069

 WARNING:  Population inversion found on atom  C    1
           Population inversion found on atom  S    2
           Population inversion found on atom  N    3
           Population inversion found on atom  H    6


 Summary of Natural Population Analysis:                  
                                                          
                                       Natural Population 
                Natural  -----------------------------------------------
    Atom  No    Charge         Core      Valence    Rydberg      Total
 -----------------------------------------------------------------------
      C    1   -0.39779      0.99977     2.38601    0.01202     3.39779
      S    2    0.48153      4.99920     2.46546    0.05381     7.51847
      N    3   -0.50930      0.99983     2.98762    0.02185     4.00930
      H    4    0.12454      0.00000     0.37277    0.00269     0.37546
      H    5    0.11669      0.00000     0.38044    0.00287     0.38331
      H    6    0.18433      0.00000     0.31252    0.00315     0.31567
 =======================================================================
   * Total *    0.00000      6.99880     8.90481    0.09639    16.00000

                                 Natural Population      
 --------------------------------------------------------
   Core                       6.99880 ( 99.9829% of   7)
   Valence                    8.90481 ( 98.9423% of   9)
   Natural Minimal Basis     15.90361 ( 99.3976% of  16)
   Natural Rydberg Basis      0.09639 (  0.6024% of  16)
 --------------------------------------------------------

    Atom  No          Natural Electron Configuration
 ----------------------------------------------------------------------------
      C    1      [core]2S( 0.59)2p( 1.79)3p( 0.01)
      S    2      [core]3S( 0.76)3p( 1.70)5S( 0.01)4d( 0.04)5p( 0.01)
      N    3      [core]2S( 0.80)2p( 2.19)3p( 0.01)3d( 0.01)
      H    4            1S( 0.37)
      H    5            1S( 0.38)
      H    6            1S( 0.31)


 NBO analysis skipped by request.
 Leave Link  607 at Tue Jan  3 09:06:54 2023, MaxMem=   536870912 cpu:               3.6 elap:               1.8
 (Enter /opt/software/gaussian/g16.c01/l701.exe)
 ... and contract with generalized density number  0.
 Compute integral first derivatives.
 Leave Link  701 at Tue Jan  3 09:06:55 2023, MaxMem=   536870912 cpu:               0.2 elap:               0.1
 (Enter /opt/software/gaussian/g16.c01/l702.exe)
 L702 exits ... SP integral derivatives will be done elsewhere.
 Leave Link  702 at Tue Jan  3 09:06:55 2023, MaxMem=   536870912 cpu:               0.1 elap:               0.0
 (Enter /opt/software/gaussian/g16.c01/l703.exe)
 Integral derivatives from FoFJK, PRISM(SPDF).
 Compute integral first derivatives, UseDBF=F ICtDFT=           0.
 Calling FoFJK, ICntrl=      2127 FMM=F ISym2X=0 I1Cent= 0 IOpClX= 1 NMat=1 NMatS=1 NMatT=0.
 FoFJK:  IHMeth= 1 ICntrl=    2127 DoSepK=F KAlg= 0 I1Cent=           0 FoldK=F
 IRaf=         0 NMat=       1 IRICut=       1 DoRegI=T DoRafI=F ISym2E= 0 IDoP0=0 IntGTp=1.
 FoFCou: FMM=F IPFlag=           0 FMFlag=      100000 FMFlg1=         800
         NFxFlg=           0 DoJE=F BraDBF=F KetDBF=F FulRan=T
         wScrn=  0.000000 ICntrl=      2127 IOpCl=  1 I1Cent=           0 NGrid=           0
         NMat0=    1 NMatS0=      1 NMatT0=    0 NMatD0=    1 NMtDS0=    0 NMtDT0=    0
 Symmetry not used in FoFCou.
 Leave Link  703 at Tue Jan  3 09:06:57 2023, MaxMem=   536870912 cpu:               4.1 elap:               2.1
 (Enter /opt/software/gaussian/g16.c01/l716.exe)
 Dipole        =-1.00193737D+00-8.90596429D-02-3.47912874D-02
 -------------------------------------------------------------------
 Center     Atomic                   Forces (Hartrees/Bohr)
 Number     Number              X              Y              Z
 -------------------------------------------------------------------
      1        6          -0.008781069   -0.000229084    0.000061786
      2       16           0.003758115   -0.008065150   -0.005435959
      3        7           0.006550233    0.006945240    0.004445078
      4        1          -0.000562379    0.000009858    0.000021025
      5        1          -0.000647658   -0.000088699   -0.000043561
      6        1          -0.000317242    0.001427835    0.000951632
 -------------------------------------------------------------------
 Cartesian Forces:  Max     0.008781069 RMS     0.004086392
 Z-matrix is all fixed cartesians, so copy forces.
 Force constants in Cartesian coordinates: 
                1             2             3             4             5 
      1  0.814685D+00
      2 -0.103178D-01  0.489891D+00
      3 -0.236660D-01  0.249297D+00  0.279166D+00
      4 -0.473219D+00  0.285194D-01  0.292131D-01  0.664394D+00
      5  0.961866D-02 -0.824860D-01 -0.267353D-01  0.176381D+00  0.396780D+00
      6  0.167037D-01 -0.271885D-01 -0.608333D-01  0.101780D+00  0.230703D+00
      7 -0.980132D-03 -0.200337D-01 -0.128629D-01 -0.210895D+00 -0.175482D+00
      8  0.308076D-03  0.143332D-01 -0.733807D-03 -0.217229D+00 -0.336130D+00
      9  0.597737D-03 -0.245367D-03  0.152527D-01 -0.139479D+00 -0.196571D+00
     10 -0.163349D+00 -0.915366D-01 -0.575233D-01 -0.926052D-03 -0.186700D-01
     11 -0.836129D-01 -0.214907D+00 -0.116374D+00  0.389598D-03  0.844345D-02
     12 -0.522783D-01 -0.116182D+00 -0.111677D+00  0.307294D-03  0.528464D-02
     13 -0.177134D+00  0.932947D-01  0.649511D-01  0.905791D-03  0.178651D-01
     14  0.839304D-01 -0.204801D+00 -0.108521D+00  0.246077D-03  0.152696D-01
     15  0.587541D-01 -0.108748D+00 -0.117275D+00  0.611040D-03 -0.327945D-02
     16 -0.268673D-05  0.740782D-04 -0.111937D-03  0.197412D-01 -0.971277D-02
     17  0.736242D-04 -0.202996D-02  0.306739D-02  0.116927D-01 -0.187726D-02
     18 -0.111233D-03  0.306689D-02 -0.463426D-02  0.756733D-02 -0.940153D-02
                6             7             8             9            10 
      6  0.192015D+00
      7 -0.111851D+00  0.406134D+00
      8 -0.195565D+00  0.534271D-01  0.531518D+00
      9 -0.159476D+00  0.263756D-01  0.328043D+00  0.250445D+00
     10 -0.123067D-01  0.228968D-05 -0.631307D-04  0.953945D-04  0.135830D+00
     11  0.482750D-02 -0.631368D-04  0.174080D-02 -0.263045D-02  0.957457D-01
     12  0.462508D-02  0.953981D-04 -0.263030D-02  0.397455D-02  0.605513D-01
     13  0.122731D-01 -0.247110D-05  0.681327D-04 -0.102953D-03  0.284430D-01
     14 -0.285735D-02  0.681506D-04 -0.187904D-02  0.283934D-02  0.145241D-01
     15  0.173925D-01 -0.102963D-03  0.283889D-02 -0.428974D-02  0.918329D-02
     16 -0.659932D-02 -0.194258D+00  0.163489D+00  0.112513D+00  0.000000D+00
     17 -0.991929D-02  0.142084D+00 -0.209584D+00 -0.131436D+00  0.000000D+00
     18  0.627668D-02  0.983460D-01 -0.131953D+00 -0.105907D+00  0.000000D+00
               11            12            13            14            15 
     11  0.207851D+00
     12  0.122960D+00  0.985155D-01
     13 -0.124593D-01 -0.867575D-02  0.147787D+00
     14 -0.312790D-02 -0.943229D-02 -0.987686D-01  0.194538D+00
     15 -0.878307D-02  0.456134D-02 -0.684455D-01  0.117972D+00  0.996107D-01
     16  0.000000D+00  0.000000D+00  0.000000D+00  0.000000D+00  0.000000D+00
     17  0.000000D+00  0.000000D+00  0.000000D+00  0.000000D+00  0.000000D+00
     18  0.000000D+00  0.000000D+00  0.000000D+00  0.000000D+00  0.000000D+00
               16            17            18 
     16  0.174519D+00
     17 -0.153850D+00  0.213491D+00
     18 -0.105802D+00  0.138288D+00  0.104265D+00
 Leave Link  716 at Tue Jan  3 09:06:58 2023, MaxMem=   536870912 cpu:               0.1 elap:               0.0
 (Enter /opt/software/gaussian/g16.c01/l103.exe)

 GradGradGradGradGradGradGradGradGradGradGradGradGradGradGradGradGradGrad
 Berny optimization.
 Search for a local minimum.
 Step number   1 out of a maximum of    2
 All quantities printed in internal units (Hartrees-Bohrs-Radians)
 Second derivative matrix not updated -- first step.
 The second derivative matrix:
                          X1        Y1        Z1        X2        Y2
           X1           0.81469
           Y1          -0.01032   0.48989
           Z1          -0.02367   0.24930   0.27917
           X2          -0.47322   0.02852   0.02921   0.66439
           Y2           0.00962  -0.08249  -0.02674   0.17638   0.39678
           Z2           0.01670  -0.02719  -0.06083   0.10178   0.23070
           X3          -0.00098  -0.02003  -0.01286  -0.21090  -0.17548
           Y3           0.00031   0.01433  -0.00073  -0.21723  -0.33613
           Z3           0.00060  -0.00025   0.01525  -0.13948  -0.19657
           X4          -0.16335  -0.09154  -0.05752  -0.00093  -0.01867
           Y4          -0.08361  -0.21491  -0.11637   0.00039   0.00844
           Z4          -0.05228  -0.11618  -0.11168   0.00031   0.00528
           X5          -0.17713   0.09329   0.06495   0.00091   0.01787
           Y5           0.08393  -0.20480  -0.10852   0.00025   0.01527
           Z5           0.05875  -0.10875  -0.11727   0.00061  -0.00328
           X6          -0.00000   0.00007  -0.00011   0.01974  -0.00971
           Y6           0.00007  -0.00203   0.00307   0.01169  -0.00188
           Z6          -0.00011   0.00307  -0.00463   0.00757  -0.00940
                          Z2        X3        Y3        Z3        X4
           Z2           0.19201
           X3          -0.11185   0.40613
           Y3          -0.19556   0.05343   0.53152
           Z3          -0.15948   0.02638   0.32804   0.25045
           X4          -0.01231   0.00000  -0.00006   0.00010   0.13583
           Y4           0.00483  -0.00006   0.00174  -0.00263   0.09575
           Z4           0.00463   0.00010  -0.00263   0.00397   0.06055
           X5           0.01227  -0.00000   0.00007  -0.00010   0.02844
           Y5          -0.00286   0.00007  -0.00188   0.00284   0.01452
           Z5           0.01739  -0.00010   0.00284  -0.00429   0.00918
           X6          -0.00660  -0.19426   0.16349   0.11251   0.00000
           Y6          -0.00992   0.14208  -0.20958  -0.13144   0.00000
           Z6           0.00628   0.09835  -0.13195  -0.10591   0.00000
                          Y4        Z4        X5        Y5        Z5
           Y4           0.20785
           Z4           0.12296   0.09852
           X5          -0.01246  -0.00868   0.14779
           Y5          -0.00313  -0.00943  -0.09877   0.19454
           Z5          -0.00878   0.00456  -0.06845   0.11797   0.09961
           X6           0.00000   0.00000   0.00000   0.00000   0.00000
           Y6           0.00000   0.00000   0.00000   0.00000   0.00000
           Z6           0.00000   0.00000   0.00000   0.00000   0.00000
                          X6        Y6        Z6
           X6           0.17452
           Y6          -0.15385   0.21349
           Z6          -0.10580   0.13829   0.10426
 ITU=  0
     Eigenvalues ---    0.01003   0.01738   0.04698   0.06571   0.11631
     Eigenvalues ---    0.13625   0.18094   0.33456   0.69321   0.85789
     Eigenvalues ---    1.12959   1.46007
 Angle between quadratic step and forces=  68.30 degrees.
 Linear search not attempted -- first point.
 B after Tr=     0.001433    0.000349    0.000184
         Rot=    1.000000   -0.000009    0.000020   -0.000035 Ang=  -0.00 deg.
 Variable       Old X    -DE/DX   Delta X   Delta X   Delta X     New X
                                 (Linear)    (Quad)   (Total)
    X1        1.67863  -0.00878   0.00000  -0.02087  -0.01947   1.65917
    Y1        0.26878  -0.00023   0.00000  -0.00967  -0.00921   0.25957
    Z1        0.20584   0.00006   0.00000  -0.00590  -0.00564   0.20020
    X2        4.73702   0.00376   0.00000   0.00064   0.00205   4.73908
    Y2        0.19685  -0.00807   0.00000   0.00073   0.00141   0.19826
    Z2        0.08483  -0.00544   0.00000   0.00042   0.00080   0.08563
    X3        6.24222   0.00655   0.00000   0.02204   0.02325   6.26547
    Y3        2.32417   0.00695   0.00000   0.00923   0.01000   2.33417
    Z3        1.45653   0.00445   0.00000   0.00565   0.00613   1.46266
    X4        0.70917  -0.00056   0.00000  -0.01663  -0.01507   0.69409
    Y4       -1.25730   0.00001   0.00000  -0.01223  -0.01182  -1.26912
    Z4       -0.78089   0.00002   0.00000  -0.00759  -0.00740  -0.78829
    X5        0.61279  -0.00065   0.00000  -0.03411  -0.03284   0.57995
    Y5        1.72884  -0.00009   0.00000  -0.01576  -0.01539   1.71346
    Z5        1.19782  -0.00004   0.00000  -0.00966  -0.00942   1.18840
    X6        5.12842  -0.00032   0.00000   0.04100   0.04208   5.17050
    Y6        3.62850   0.00143   0.00000   0.02434   0.02501   3.65351
    Z6        2.34676   0.00095   0.00000   0.01508   0.01553   2.36229
         Item               Value     Threshold  Converged?
 Maximum Force            0.008781     0.000450     NO 
 RMS     Force            0.004086     0.000300     NO 
 Maximum Displacement     0.042081     0.001800     NO 
 RMS     Displacement     0.017707     0.001200     NO 
 Predicted change in Energy=-2.410350D-04
 GradGradGradGradGradGradGradGradGradGradGradGradGradGradGradGradGradGrad

 Leave Link  103 at Tue Jan  3 09:06:58 2023, MaxMem=   536870912 cpu:               0.0 elap:               0.0
 (Enter /opt/software/gaussian/g16.c01/l9999.exe)
 Unable to Open any file for archive entry.
 1\1\GINC-GRA1076\Force\UB3LYP\Gen\C1H3N1S1\BHAVUK\03-Jan-2023\0\\#p ub
 3lyp/chkbasis force guess=read geom=check scf=(maxcycle=900,verytightl
 ineq,xqc) integral=grid=ultrafine symmetry=None density=current pop=(c
 m5,hlygat,mbs,npa) output=wfx\\0004_q000_m01_k00_opt_uwb97xd_def2svpd/
 0004_q000_m01_k00_force_ub3lyp_def2svpd stable-force\\0,1\C,0.88829351
 41,0.1422345627,0.1089263123\S,2.5067242222,0.1041696479,0.0448895292\
 N,3.3032398974,1.2298974173,0.7707622237\H,0.3752741579,-0.6653344173,
 -0.4132293362\H,0.3242760911,0.9148647349,0.6338600998\H,2.7138421188,
 1.9201180545,1.2418511706\\Version=ES64L-G16RevC.01\HF=-492.6023035\S2
 =0.\S2-1=0.\S2A=0.\RMSD=1.993e-09\RMSF=4.086e-03\Dipole=-1.0019374,-0.
 0890596,-0.0347913\Quadrupole=-6.8120392,3.9221524,2.8898869,-2.266067
 6,-1.3567249,1.3380207\PG=Unknown\\@
 The archive entry for this job was punched.

 Writing a WFNX file to "0004_q000_m01_k00_force_ub3lyp_def2svpd.wfx"


 FRICTION IS A DRAG,
 AND ENTROPY AIN'T WHAT IT USED TO BE.
 Job cpu time:       0 days  0 hours  0 minutes 13.5 seconds.
 Elapsed time:       0 days  0 hours  0 minutes  6.5 seconds.
 File lengths (MBytes):  RWF=     10 Int=      0 D2E=      0 Chk=      2 Scr=      1
 Normal termination of Gaussian 16 at Tue Jan  3 09:06:58 2023.
