 Entering Gaussian System, Link 0=g16
 Input=0004_q000_m01_k00_force_ub3lyp_def2tzvpd.com
 Output=0004_q000_m01_k00_force_ub3lyp_def2tzvpd.log
 Initial command:
 /opt/software/gaussian/g16.c01/l1.exe "/localscratch/bhavuk.2151397.0/Gau-19948.inp" -scrdir="/localscratch/bhavuk.2151397.0/"
 Entering Link 1 = /opt/software/gaussian/g16.c01/l1.exe PID=     19949.
  
 Copyright (c) 1988-2019, Gaussian, Inc.  All Rights Reserved.
  
 This is part of the Gaussian(R) 16 program.  It is based on
 the Gaussian(R) 09 system (copyright 2009, Gaussian, Inc.),
 the Gaussian(R) 03 system (copyright 2003, Gaussian, Inc.),
 the Gaussian(R) 98 system (copyright 1998, Gaussian, Inc.),
 the Gaussian(R) 94 system (copyright 1995, Gaussian, Inc.),
 the Gaussian 92(TM) system (copyright 1992, Gaussian, Inc.),
 the Gaussian 90(TM) system (copyright 1990, Gaussian, Inc.),
 the Gaussian 88(TM) system (copyright 1988, Gaussian, Inc.),
 the Gaussian 86(TM) system (copyright 1986, Carnegie Mellon
 University), and the Gaussian 82(TM) system (copyright 1983,
 Carnegie Mellon University). Gaussian is a federally registered
 trademark of Gaussian, Inc.
  
 This software contains proprietary and confidential information,
 including trade secrets, belonging to Gaussian, Inc.
  
 This software is provided under written license and may be
 used, copied, transmitted, or stored only in accord with that
 written license.
  
 The following legend is applicable only to US Government
 contracts under FAR:
  
                    RESTRICTED RIGHTS LEGEND
  
 Use, reproduction and disclosure by the US Government is
 subject to restrictions as set forth in subparagraphs (a)
 and (c) of the Commercial Computer Software - Restricted
 Rights clause in FAR 52.227-19.
  
 Gaussian, Inc.
 340 Quinnipiac St., Bldg. 40, Wallingford CT 06492
  
  
 ---------------------------------------------------------------
 Warning -- This program may not be used in any manner that
 competes with the business of Gaussian, Inc. or will provide
 assistance to any competitor of Gaussian, Inc.  The licensee
 of this program is prohibited from giving any competitor of
 Gaussian, Inc. access to this program.  By using this program,
 the user acknowledges that Gaussian, Inc. is engaged in the
 business of creating and licensing software in the field of
 computational chemistry and represents and warrants to the
 licensee that it is not a competitor of Gaussian, Inc. and that
 it will not use this program in any manner prohibited above.
 ---------------------------------------------------------------
  

 Cite this work as:
 Gaussian 16, Revision C.01,
 M. J. Frisch, G. W. Trucks, H. B. Schlegel, G. E. Scuseria, 
 M. A. Robb, J. R. Cheeseman, G. Scalmani, V. Barone, 
 G. A. Petersson, H. Nakatsuji, X. Li, M. Caricato, A. V. Marenich, 
 J. Bloino, B. G. Janesko, R. Gomperts, B. Mennucci, H. P. Hratchian, 
 J. V. Ortiz, A. F. Izmaylov, J. L. Sonnenberg, D. Williams-Young, 
 F. Ding, F. Lipparini, F. Egidi, J. Goings, B. Peng, A. Petrone, 
 T. Henderson, D. Ranasinghe, V. G. Zakrzewski, J. Gao, N. Rega, 
 G. Zheng, W. Liang, M. Hada, M. Ehara, K. Toyota, R. Fukuda, 
 J. Hasegawa, M. Ishida, T. Nakajima, Y. Honda, O. Kitao, H. Nakai, 
 T. Vreven, K. Throssell, J. A. Montgomery, Jr., J. E. Peralta, 
 F. Ogliaro, M. J. Bearpark, J. J. Heyd, E. N. Brothers, K. N. Kudin, 
 V. N. Staroverov, T. A. Keith, R. Kobayashi, J. Normand, 
 K. Raghavachari, A. P. Rendell, J. C. Burant, S. S. Iyengar, 
 J. Tomasi, M. Cossi, J. M. Millam, M. Klene, C. Adamo, R. Cammi, 
 J. W. Ochterski, R. L. Martin, K. Morokuma, O. Farkas, 
 J. B. Foresman, and D. J. Fox, Gaussian, Inc., Wallingford CT, 2019.
 
 ******************************************
 Gaussian 16:  ES64L-G16RevC.01  3-Jul-2019
                 3-Jan-2023 
 ******************************************
 %chk=0004_q000_m01_k00_force_ub3lyp_def2tzvpd.chk
 %nprocshared=2
 Will use up to    2 processors via shared memory.
 %mem=4GB
 ----------------------------------------------------------------------
 #p ub3lyp/gen stable=opt scf=(maxcycle=900,verytightlineq,xqc) integra
 l=grid=ultrafine symmetry=None density=current iop(99/18=-1) output=wf
 n
 ----------------------------------------------------------------------
 1/38=1,172=1/1;
 2/12=2,15=3,17=6,18=5,40=1/2;
 3/5=7,11=2,25=1,30=1,74=-5,75=-5,116=2/1,2,3;
 4//1;
 5/5=2,7=900,8=3,13=1,17=3,38=5/2,8;
 6/7=2,8=2,9=2,10=2,22=-1,28=1/1;
 8/6=1,10=90,11=11/1;
 9/8=-3,42=1,46=1/14;
 5/5=2,7=900,8=3,17=43,38=5/8(-2);
 6/7=2,8=2,9=2,10=2,22=-1,28=1/1;
 99/5=1,6=100,9=1,18=-1/99;
 Leave Link    1 at Tue Jan  3 09:06:16 2023, MaxMem=   536870912 cpu:               0.1 elap:               0.1
 (Enter /opt/software/gaussian/g16.c01/l101.exe)
 ----------------------------------------------------------------------
 0004_q000_m01_k00_opt_uwb97xd_def2svpd/0004_q000_m01_k00_force_ub3lyp_
 def2tzvpd stable-force
 ----------------------------------------------------------------------
 Symbolic Z-matrix:
 Charge =  0 Multiplicity = 1
 C                     0.88829   0.14223   0.10893 
 S                     2.50672   0.10417   0.04489 
 N                     3.30324   1.2299    0.77076 
 H                     0.37527  -0.66533  -0.41323 
 H                     0.32428   0.91486   0.63386 
 H                     2.71384   1.92012   1.24185 
 
 ITRead=  0  0  0  0  0  0
 MicOpt= -1 -1 -1 -1 -1 -1
 NAtoms=      6 NQM=        6 NQMF=       0 NMMI=      0 NMMIF=      0
                NMic=       0 NMicF=      0.
                    Isotopes and Nuclear Properties:
 (Nuclear quadrupole moments (NQMom) in fm**2, nuclear magnetic moments (NMagM)
  in nuclear magnetons)

  Atom         1           2           3           4           5           6
 IAtWgt=          12          32          14           1           1           1
 AtmWgt=  12.0000000  31.9720718  14.0030740   1.0078250   1.0078250   1.0078250
 NucSpn=           0           0           2           1           1           1
 AtZEff=  -0.0000000  -0.0000000  -0.0000000  -0.0000000  -0.0000000  -0.0000000
 NQMom=    0.0000000   0.0000000   2.0440000   0.0000000   0.0000000   0.0000000
 NMagM=    0.0000000   0.0000000   0.4037610   2.7928460   2.7928460   2.7928460
 AtZNuc=   6.0000000  16.0000000   7.0000000   1.0000000   1.0000000   1.0000000
 Leave Link  101 at Tue Jan  3 09:06:17 2023, MaxMem=   536870912 cpu:               0.5 elap:               0.3
 (Enter /opt/software/gaussian/g16.c01/l202.exe)
                          Input orientation:                          
 ---------------------------------------------------------------------
 Center     Atomic      Atomic             Coordinates (Angstroms)
 Number     Number       Type             X           Y           Z
 ---------------------------------------------------------------------
      1          6           0        0.888294    0.142235    0.108926
      2         16           0        2.506724    0.104170    0.044890
      3          7           0        3.303240    1.229897    0.770762
      4          1           0        0.375274   -0.665334   -0.413229
      5          1           0        0.324276    0.914865    0.633860
      6          1           0        2.713842    1.920118    1.241851
 ---------------------------------------------------------------------
                    Distance matrix (angstroms):
                    1          2          3          4          5
     1  C    0.000000
     2  S    1.620144   0.000000
     3  N    2.730019   1.558394   0.000000
     4  H    1.089956   2.311945   3.683303   0.000000
     5  H    1.091159   2.401498   2.998702   1.896319   0.000000
     6  H    2.788730   2.184785   1.022604   3.859113   2.662745
                    6
     6  H    0.000000
 Symmetry turned off by external request.
 Stoichiometry    CH3NS
 Rotational constants (GHZ):          36.3131241           8.8290023           7.1022055
 Leave Link  202 at Tue Jan  3 09:06:17 2023, MaxMem=   536870912 cpu:               0.0 elap:               0.0
 (Enter /opt/software/gaussian/g16.c01/l301.exe)
 General basis read from cards:  (5D, 7F)
 Centers:       4      5      6
 S 3 1.00
     Exponent=  3.4061341000D+01 Coefficients=  6.0251978000D-03
     Exponent=  5.1235746000D+00 Coefficients=  4.5021094000D-02
     Exponent=  1.1646626000D+00 Coefficients=  2.0189726000D-01
 S 1 1.00
     Exponent=  3.2723041000D-01 Coefficients=  1.0000000000D+00
 S 1 1.00
     Exponent=  1.0307241000D-01 Coefficients=  1.0000000000D+00
 P 1 1.00
     Exponent=  8.0000000000D-01 Coefficients=  1.0000000000D+00
 P 1 1.00
     Exponent=  9.5774129632D-02 Coefficients=  1.0000000000D+00
 ****
 Centers:       1
 S 6 1.00
     Exponent=  1.3575349682D+04 Coefficients=  2.2245814352D-04
     Exponent=  2.0352333680D+03 Coefficients=  1.7232738252D-03
     Exponent=  4.6322562359D+02 Coefficients=  8.9255715314D-03
     Exponent=  1.3120019598D+02 Coefficients=  3.5727984502D-02
     Exponent=  4.2853015891D+01 Coefficients=  1.1076259931D-01
     Exponent=  1.5584185766D+01 Coefficients=  2.4295627626D-01
 S 2 1.00
     Exponent=  6.2067138508D+00 Coefficients=  4.1440263448D-01
     Exponent=  2.5764896527D+00 Coefficients=  2.3744968655D-01
 S 1 1.00
     Exponent=  5.7696339419D-01 Coefficients=  1.0000000000D+00
 S 1 1.00
     Exponent=  2.2972831358D-01 Coefficients=  1.0000000000D+00
 S 1 1.00
     Exponent=  9.5164440028D-02 Coefficients=  1.0000000000D+00
 S 1 1.00
     Exponent=  4.8475401370D-02 Coefficients=  1.0000000000D+00
 P 4 1.00
     Exponent=  3.4697232244D+01 Coefficients=  5.3333657805D-03
     Exponent=  7.9582622826D+00 Coefficients=  3.5864109092D-02
     Exponent=  2.3780826883D+00 Coefficients=  1.4215873329D-01
     Exponent=  8.1433208183D-01 Coefficients=  3.4270471845D-01
 P 1 1.00
     Exponent=  2.8887547253D-01 Coefficients=  4.6445822433D-01
 P 1 1.00
     Exponent=  1.0056823671D-01 Coefficients=  2.4955789874D-01
 D 1 1.00
     Exponent=  1.0970000000D+00 Coefficients=  1.0000000000D+00
 D 1 1.00
     Exponent=  3.1800000000D-01 Coefficients=  1.0000000000D+00
 D 1 1.00
     Exponent=  9.0985336424D-02 Coefficients=  1.0000000000D+00
 F 1 1.00
     Exponent=  7.6100000000D-01 Coefficients=  1.0000000000D+00
 ****
 Centers:       3
 S 6 1.00
     Exponent=  1.9730800647D+04 Coefficients=  2.1887984991D-04
     Exponent=  2.9578958745D+03 Coefficients=  1.6960708803D-03
     Exponent=  6.7322133595D+02 Coefficients=  8.7954603538D-03
     Exponent=  1.9068249494D+02 Coefficients=  3.5359382605D-02
     Exponent=  6.2295441898D+01 Coefficients=  1.1095789217D-01
     Exponent=  2.2654161182D+01 Coefficients=  2.4982972552D-01
 S 2 1.00
     Exponent=  8.9791477428D+00 Coefficients=  4.0623896148D-01
     Exponent=  3.6863002370D+00 Coefficients=  2.4338217176D-01
 S 1 1.00
     Exponent=  8.4660076805D-01 Coefficients=  1.0000000000D+00
 S 1 1.00
     Exponent=  3.3647133771D-01 Coefficients=  1.0000000000D+00
 S 1 1.00
     Exponent=  1.3647653675D-01 Coefficients=  1.0000000000D+00
 S 1 1.00
     Exponent=  6.8441605847D-02 Coefficients=  1.0000000000D+00
 P 4 1.00
     Exponent=  4.9200380510D+01 Coefficients=  5.5552416751D-03
     Exponent=  1.1346790537D+01 Coefficients=  3.8052379723D-02
     Exponent=  3.4273972411D+00 Coefficients=  1.4953671029D-01
     Exponent=  1.1785525134D+00 Coefficients=  3.4949305230D-01
 P 1 1.00
     Exponent=  4.1642204972D-01 Coefficients=  4.5843153697D-01
 P 1 1.00
     Exponent=  1.4260826011D-01 Coefficients=  2.4428771672D-01
 D 1 1.00
     Exponent=  1.6540000000D+00 Coefficients=  1.0000000000D+00
 D 1 1.00
     Exponent=  4.6900000000D-01 Coefficients=  1.0000000000D+00
 D 1 1.00
     Exponent=  1.2829642058D-01 Coefficients=  1.0000000000D+00
 F 1 1.00
     Exponent=  1.0930000000D+00 Coefficients=  1.0000000000D+00
 ****
 Centers:       2
 S 7 1.00
     Exponent=  6.0700928104D+04 Coefficients=  5.4695944225D-04
     Exponent=  9.1026106854D+03 Coefficients=  4.2297224557D-03
     Exponent=  2.0714166009D+03 Coefficients=  2.1747824159D-02
     Exponent=  5.8602476821D+02 Coefficients=  8.5100053589D-02
     Exponent=  1.9055395021D+02 Coefficients=  2.4799128459D-01
     Exponent=  6.7630384260D+01 Coefficients=  4.6703640406D-01
     Exponent=  2.5127306905D+01 Coefficients=  3.6434587550D-01
 S 3 1.00
     Exponent=  1.1257463010D+02 Coefficients=  2.1670040240D-02
     Exponent=  3.4795554217D+01 Coefficients=  9.3602301760D-02
     Exponent=  6.5115556215D+00 Coefficients= -2.6068001422D-01
 S 2 1.00
     Exponent=  3.2399032261D+00 Coefficients=  1.2842089435D+00
     Exponent=  1.5477160881D+00 Coefficients=  6.6036416584D-01
 S 1 1.00
     Exponent=  4.0541030112D-01 Coefficients=  1.0000000000D+00
 S 1 1.00
     Exponent=  1.4550651059D-01 Coefficients=  1.0000000000D+00
 S 1 1.00
     Exponent=  5.0178839540D-02 Coefficients=  1.0000000000D+00
 P 5 1.00
     Exponent=  5.6436716027D+02 Coefficients=  2.4796796317D-03
     Exponent=  1.3342624379D+02 Coefficients=  1.9677930250D-02
     Exponent=  4.2468271189D+01 Coefficients=  8.9980008258D-02
     Exponent=  1.5616527580D+01 Coefficients=  2.5705880575D-01
     Exponent=  6.1093988469D+00 Coefficients=  4.3515167292D-01
 P 1 1.00
     Exponent=  2.4404160198D+00 Coefficients=  3.4883240595D-01
 P 1 1.00
     Exponent=  8.3882201296D-01 Coefficients=  1.0000000000D+00
 P 1 1.00
     Exponent=  3.1288746900D-01 Coefficients=  1.0000000000D+00
 P 1 1.00
     Exponent=  1.0770109004D-01 Coefficients=  1.0000000000D+00
 P 1 1.00
     Exponent=  3.0359833649D-02 Coefficients=  1.0000000000D+00
 D 2 1.00
     Exponent=  3.7560000000D+00 Coefficients=  2.0000000000D-01
     Exponent=  8.1200000000D-01 Coefficients=  1.0000000000D+00
 D 1 1.00
     Exponent=  2.7300000000D-01 Coefficients=  1.0000000000D+00
 D 1 1.00
     Exponent=  8.1547024970D-02 Coefficients=  1.0000000000D+00
 F 1 1.00
     Exponent=  5.5700000000D-01 Coefficients=  1.0000000000D+00
 ****
 Ernie: Thresh=  0.10000D-02 Tol=  0.10000D-05 Strict=F.
   147 basis functions,   228 primitive gaussians,   165 cartesian basis functions
    16 alpha electrons       16 beta electrons
       nuclear repulsion energy       102.0311797422 Hartrees.
 IExCor=  402 DFT=T Ex+Corr=B3LYP ExCW=0 ScaHFX=  0.200000
 ScaDFX=  0.800000  0.720000  1.000000  0.810000 ScalE2=  1.000000  1.000000
 IRadAn=      5 IRanWt=     -1 IRanGd=            0 ICorTp=0 IEmpDi=  4
 NAtoms=    6 NActive=    6 NUniq=    6 SFac= 1.00D+00 NAtFMM=   60 NAOKFM=F Big=F
 Integral buffers will be    131072 words long.
 Raffenetti 2 integral format.
 Two-electron integral symmetry is turned off.
 Leave Link  301 at Tue Jan  3 09:06:17 2023, MaxMem=   536870912 cpu:               0.2 elap:               0.1
 (Enter /opt/software/gaussian/g16.c01/l302.exe)
 NPDir=0 NMtPBC=     1 NCelOv=     1 NCel=       1 NClECP=     1 NCelD=      1
         NCelK=      1 NCelE2=     1 NClLst=     1 CellRange=     0.0.
 One-electron integrals computed using PRISM.
 NBasis=   147 RedAO= T EigKep=  5.38D-05  NBF=   147
 NBsUse=   147 1.00D-06 EigRej= -1.00D+00 NBFU=   147
 Precomputing XC quadrature grid using
 IXCGrd= 4 IRadAn=           5 IRanWt=          -1 IRanGd=           0 AccXCQ= 0.00D+00.
 Generated NRdTot=       0 NPtTot=           0 NUsed=           0 NTot=          32
 NSgBfM=   164   164   164   164   164 MxSgAt=     6 MxSgA2=     6.
 Leave Link  302 at Tue Jan  3 09:06:17 2023, MaxMem=   536870912 cpu:               0.4 elap:               0.2
 (Enter /opt/software/gaussian/g16.c01/l303.exe)
 DipDrv:  MaxL=1.
 Leave Link  303 at Tue Jan  3 09:06:17 2023, MaxMem=   536870912 cpu:               0.1 elap:               0.1
 (Enter /opt/software/gaussian/g16.c01/l401.exe)
 ExpMin= 3.04D-02 ExpMax= 6.07D+04 ExpMxC= 2.07D+03 IAcc=3 IRadAn=         5 AccDes= 0.00D+00
 Harris functional with IExCor=  402 and IRadAn=       5 diagonalized for initial guess.
 HarFok:  IExCor=  402 AccDes= 0.00D+00 IRadAn=         5 IDoV= 1 UseB2=F ITyADJ=14
 ICtDFT=  3500011 ScaDFX=  1.000000  1.000000  1.000000  1.000000
 FoFCou: FMM=F IPFlag=           0 FMFlag=      100000 FMFlg1=           0
         NFxFlg=           0 DoJE=T BraDBF=F KetDBF=T FulRan=T
         wScrn=  0.000000 ICntrl=       500 IOpCl=  0 I1Cent=   200000004 NGrid=           0
         NMat0=    1 NMatS0=      1 NMatT0=    0 NMatD0=    1 NMtDS0=    0 NMtDT0=    0
 Symmetry not used in FoFCou.
 Harris En= -492.855064756408    
 JPrj=0 DoOrth=F DoCkMO=F.
 Initial guess <Sx>= 0.0000 <Sy>= 0.0000 <Sz>= 0.0000 <S**2>=-0.0000 S=-0.0000
 Leave Link  401 at Tue Jan  3 09:06:18 2023, MaxMem=   536870912 cpu:               1.5 elap:               0.8
 (Enter /opt/software/gaussian/g16.c01/l502.exe)
 Keep R1 and R2 ints in memory in canonical form, NReq=120629394.
 FoFCou: FMM=F IPFlag=           0 FMFlag=           0 FMFlg1=           0
         NFxFlg=           0 DoJE=F BraDBF=F KetDBF=F FulRan=T
         wScrn=  0.000000 ICntrl=       600 IOpCl=  0 I1Cent=           0 NGrid=           0
         NMat0=    1 NMatS0=  10878 NMatT0=    0 NMatD0=    1 NMtDS0=    0 NMtDT0=    0
 Symmetry not used in FoFCou.
 Two-electron integral symmetry not used.
 UHF open shell SCF:
 Using DIIS extrapolation, IDIIS=  1040.
 NGot=   536870912 LenX=   418472407 LenY=   418444741
 Requested convergence on RMS density matrix=1.00D-08 within 128 cycles.
 Requested convergence on MAX density matrix=1.00D-06.
 Requested convergence on             energy=1.00D-06.
 No special actions if energy rises.

 Cycle   1  Pass 1  IDiag  1:
 E= -492.660158964032    
 DIIS: error= 3.12D-02 at cycle   1 NSaved=   1.
 NSaved= 1 IEnMin= 1 EnMin= -492.660158964032     IErMin= 1 ErrMin= 3.12D-02
 ErrMax= 3.12D-02  0.00D+00 EMaxC= 1.00D-01 BMatC= 9.54D-01 BMatP= 9.54D-01
 IDIUse=3 WtCom= 6.88D-01 WtEn= 3.12D-01
 Coeff-Com:  0.100D+01
 Coeff-En:   0.100D+01
 Coeff:      0.100D+01
 Gap=     0.056 Goal=   None    Shift=    0.000
 Gap=     0.056 Goal=   None    Shift=    0.000
 GapD=    0.056 DampG=0.500 DampE=0.500 DampFc=0.2500 IDamp=-1.
 Damping current iteration by 2.50D-01
 RMSDP=5.04D-03 MaxDP=1.67D-01              OVMax= 4.06D-01

 Cycle   2  Pass 1  IDiag  1:
 E= -492.735831535084     Delta-E=       -0.075672571052 Rises=F Damp=T
 DIIS: error= 1.22D-02 at cycle   2 NSaved=   2.
 NSaved= 2 IEnMin= 2 EnMin= -492.735831535084     IErMin= 2 ErrMin= 1.22D-02
 ErrMax= 1.22D-02  0.00D+00 EMaxC= 1.00D-01 BMatC= 1.47D-01 BMatP= 9.54D-01
 IDIUse=3 WtCom= 8.78D-01 WtEn= 1.22D-01
 Coeff-Com: -0.545D+00 0.155D+01
 Coeff-En:   0.000D+00 0.100D+01
 Coeff:     -0.478D+00 0.148D+01
 Gap=     0.158 Goal=   None    Shift=    0.000
 Gap=     0.158 Goal=   None    Shift=    0.000
 RMSDP=1.24D-03 MaxDP=3.97D-02 DE=-7.57D-02 OVMax= 2.48D-01

 Cycle   3  Pass 1  IDiag  1:
 E= -492.842855446045     Delta-E=       -0.107023910961 Rises=F Damp=F
 DIIS: error= 8.29D-03 at cycle   3 NSaved=   3.
 NSaved= 3 IEnMin= 3 EnMin= -492.842855446045     IErMin= 3 ErrMin= 8.29D-03
 ErrMax= 8.29D-03  0.00D+00 EMaxC= 1.00D-01 BMatC= 4.07D-02 BMatP= 1.47D-01
 IDIUse=3 WtCom= 9.17D-01 WtEn= 8.29D-02
 Coeff-Com: -0.288D+00 0.829D+00 0.458D+00
 Coeff-En:   0.000D+00 0.000D+00 0.100D+01
 Coeff:     -0.264D+00 0.760D+00 0.503D+00
 Gap=     0.164 Goal=   None    Shift=    0.000
 Gap=     0.164 Goal=   None    Shift=    0.000
 RMSDP=8.89D-04 MaxDP=2.26D-02 DE=-1.07D-01 OVMax= 1.25D-01

 Cycle   4  Pass 1  IDiag  1:
 E= -492.843973161653     Delta-E=       -0.001117715609 Rises=F Damp=F
 DIIS: error= 9.11D-03 at cycle   4 NSaved=   4.
 NSaved= 4 IEnMin= 4 EnMin= -492.843973161653     IErMin= 3 ErrMin= 8.29D-03
 ErrMax= 9.11D-03  0.00D+00 EMaxC= 1.00D-01 BMatC= 3.83D-02 BMatP= 4.07D-02
 IDIUse=3 WtCom= 9.09D-01 WtEn= 9.11D-02
 Coeff-Com: -0.504D-01 0.172D+00 0.455D+00 0.424D+00
 Coeff-En:   0.000D+00 0.000D+00 0.482D+00 0.518D+00
 Coeff:     -0.458D-01 0.156D+00 0.457D+00 0.433D+00
 Gap=     0.165 Goal=   None    Shift=    0.000
 Gap=     0.165 Goal=   None    Shift=    0.000
 RMSDP=4.96D-04 MaxDP=1.11D-02 DE=-1.12D-03 OVMax= 6.80D-02

 Cycle   5  Pass 1  IDiag  1:
 E= -492.853989992949     Delta-E=       -0.010016831296 Rises=F Damp=F
 DIIS: error= 1.58D-03 at cycle   5 NSaved=   5.
 NSaved= 5 IEnMin= 5 EnMin= -492.853989992949     IErMin= 5 ErrMin= 1.58D-03
 ErrMax= 1.58D-03  0.00D+00 EMaxC= 1.00D-01 BMatC= 9.39D-04 BMatP= 3.83D-02
 IDIUse=3 WtCom= 9.84D-01 WtEn= 1.58D-02
 Coeff-Com:  0.754D-02-0.260D-02 0.181D+00 0.222D+00 0.592D+00
 Coeff-En:   0.000D+00 0.000D+00 0.000D+00 0.000D+00 0.100D+01
 Coeff:      0.742D-02-0.256D-02 0.178D+00 0.219D+00 0.598D+00
 Gap=     0.167 Goal=   None    Shift=    0.000
 Gap=     0.167 Goal=   None    Shift=    0.000
 RMSDP=1.04D-04 MaxDP=3.90D-03 DE=-1.00D-02 OVMax= 6.22D-03

 Cycle   6  Pass 1  IDiag  1:
 E= -492.854239232589     Delta-E=       -0.000249239640 Rises=F Damp=F
 DIIS: error= 1.41D-04 at cycle   6 NSaved=   6.
 NSaved= 6 IEnMin= 6 EnMin= -492.854239232589     IErMin= 6 ErrMin= 1.41D-04
 ErrMax= 1.41D-04  0.00D+00 EMaxC= 1.00D-01 BMatC= 1.39D-05 BMatP= 9.39D-04
 IDIUse=3 WtCom= 9.99D-01 WtEn= 1.41D-03
 Coeff-Com:  0.510D-02-0.804D-02 0.441D-01 0.560D-01 0.188D+00 0.714D+00
 Coeff-En:   0.000D+00 0.000D+00 0.000D+00 0.000D+00 0.000D+00 0.100D+01
 Coeff:      0.509D-02-0.803D-02 0.440D-01 0.559D-01 0.188D+00 0.715D+00
 Gap=     0.167 Goal=   None    Shift=    0.000
 Gap=     0.167 Goal=   None    Shift=    0.000
 RMSDP=1.32D-05 MaxDP=5.35D-04 DE=-2.49D-04 OVMax= 6.01D-04

 Cycle   7  Pass 1  IDiag  1:
 E= -492.854241970836     Delta-E=       -0.000002738247 Rises=F Damp=F
 DIIS: error= 5.46D-05 at cycle   7 NSaved=   7.
 NSaved= 7 IEnMin= 7 EnMin= -492.854241970836     IErMin= 7 ErrMin= 5.46D-05
 ErrMax= 5.46D-05  0.00D+00 EMaxC= 1.00D-01 BMatC= 1.24D-06 BMatP= 1.39D-05
 IDIUse=1 WtCom= 1.00D+00 WtEn= 0.00D+00
 Coeff-Com:  0.115D-02-0.226D-02 0.235D-02 0.296D-02 0.187D-01 0.259D+00
 Coeff-Com:  0.718D+00
 Coeff:      0.115D-02-0.226D-02 0.235D-02 0.296D-02 0.187D-01 0.259D+00
 Coeff:      0.718D+00
 Gap=     0.167 Goal=   None    Shift=    0.000
 Gap=     0.167 Goal=   None    Shift=    0.000
 RMSDP=3.87D-06 MaxDP=2.08D-04 DE=-2.74D-06 OVMax= 1.72D-04

 Cycle   8  Pass 1  IDiag  1:
 E= -492.854242286735     Delta-E=       -0.000000315899 Rises=F Damp=F
 DIIS: error= 7.08D-06 at cycle   8 NSaved=   8.
 NSaved= 8 IEnMin= 8 EnMin= -492.854242286735     IErMin= 8 ErrMin= 7.08D-06
 ErrMax= 7.08D-06  0.00D+00 EMaxC= 1.00D-01 BMatC= 2.06D-08 BMatP= 1.24D-06
 IDIUse=1 WtCom= 1.00D+00 WtEn= 0.00D+00
 Coeff-Com: -0.251D-04-0.189D-05-0.373D-03-0.822D-03-0.128D-02 0.199D-01
 Coeff-Com:  0.146D+00 0.837D+00
 Coeff:     -0.251D-04-0.189D-05-0.373D-03-0.822D-03-0.128D-02 0.199D-01
 Coeff:      0.146D+00 0.837D+00
 Gap=     0.167 Goal=   None    Shift=    0.000
 Gap=     0.167 Goal=   None    Shift=    0.000
 RMSDP=5.48D-07 MaxDP=2.29D-05 DE=-3.16D-07 OVMax= 3.82D-05

 Cycle   9  Pass 1  IDiag  1:
 E= -492.854242292985     Delta-E=       -0.000000006250 Rises=F Damp=F
 DIIS: error= 9.17D-07 at cycle   9 NSaved=   9.
 NSaved= 9 IEnMin= 9 EnMin= -492.854242292985     IErMin= 9 ErrMin= 9.17D-07
 ErrMax= 9.17D-07  0.00D+00 EMaxC= 1.00D-01 BMatC= 3.80D-10 BMatP= 2.06D-08
 IDIUse=1 WtCom= 1.00D+00 WtEn= 0.00D+00
 Coeff-Com: -0.319D-04 0.506D-04-0.175D-03-0.230D-03-0.832D-03-0.192D-02
 Coeff-Com:  0.131D-01 0.165D+00 0.826D+00
 Coeff:     -0.319D-04 0.506D-04-0.175D-03-0.230D-03-0.832D-03-0.192D-02
 Coeff:      0.131D-01 0.165D+00 0.826D+00
 Gap=     0.167 Goal=   None    Shift=    0.000
 Gap=     0.167 Goal=   None    Shift=    0.000
 RMSDP=8.30D-08 MaxDP=1.61D-06 DE=-6.25D-09 OVMax= 7.64D-06

 Cycle  10  Pass 1  IDiag  1:
 E= -492.854242293104     Delta-E=       -0.000000000119 Rises=F Damp=F
 DIIS: error= 1.72D-07 at cycle  10 NSaved=  10.
 NSaved=10 IEnMin=10 EnMin= -492.854242293104     IErMin=10 ErrMin= 1.72D-07
 ErrMax= 1.72D-07  0.00D+00 EMaxC= 1.00D-01 BMatC= 1.10D-11 BMatP= 3.80D-10
 IDIUse=1 WtCom= 1.00D+00 WtEn= 0.00D+00
 Coeff-Com:  0.100D-05-0.137D-05-0.112D-04-0.837D-05-0.667D-04-0.953D-03
 Coeff-Com: -0.295D-02-0.172D-04 0.126D+00 0.878D+00
 Coeff:      0.100D-05-0.137D-05-0.112D-04-0.837D-05-0.667D-04-0.953D-03
 Coeff:     -0.295D-02-0.172D-04 0.126D+00 0.878D+00
 Gap=     0.167 Goal=   None    Shift=    0.000
 Gap=     0.167 Goal=   None    Shift=    0.000
 RMSDP=1.23D-08 MaxDP=2.71D-07 DE=-1.19D-10 OVMax= 8.50D-07

 Cycle  11  Pass 1  IDiag  1:
 E= -492.854242293108     Delta-E=       -0.000000000004 Rises=F Damp=F
 DIIS: error= 2.80D-08 at cycle  11 NSaved=  11.
 NSaved=11 IEnMin=11 EnMin= -492.854242293108     IErMin=11 ErrMin= 2.80D-08
 ErrMax= 2.80D-08  0.00D+00 EMaxC= 1.00D-01 BMatC= 5.12D-13 BMatP= 1.10D-11
 IDIUse=1 WtCom= 1.00D+00 WtEn= 0.00D+00
 Coeff-Com:  0.952D-06-0.137D-05 0.188D-05 0.183D-05 0.819D-05-0.154D-03
 Coeff-Com: -0.816D-03-0.421D-02 0.330D-02 0.187D+00 0.815D+00
 Coeff:      0.952D-06-0.137D-05 0.188D-05 0.183D-05 0.819D-05-0.154D-03
 Coeff:     -0.816D-03-0.421D-02 0.330D-02 0.187D+00 0.815D+00
 Gap=     0.167 Goal=   None    Shift=    0.000
 Gap=     0.167 Goal=   None    Shift=    0.000
 RMSDP=2.77D-09 MaxDP=4.51D-08 DE=-4.09D-12 OVMax= 1.43D-07

 SCF Done:  E(UB3LYP) =  -492.854242293     A.U. after   11 cycles
            NFock= 11  Conv=0.28D-08     -V/T= 2.0025
 <Sx>= 0.0000 <Sy>= 0.0000 <Sz>= 0.0000 <S**2>=-0.0000 S=-0.0000
 <L.S>=  0.00000000000    
 KE= 4.916218476441D+02 PE=-1.370852812783D+03 EE= 2.843455431036D+02
 Annihilation of the first spin contaminant:
 S**2 before annihilation    -0.0000,   after     0.0000
 Leave Link  502 at Tue Jan  3 09:06:35 2023, MaxMem=   536870912 cpu:              32.3 elap:              17.4
 (Enter /opt/software/gaussian/g16.c01/l508.exe)
 QCSCF skips out because SCF is already converged.
 Leave Link  508 at Tue Jan  3 09:06:35 2023, MaxMem=   536870912 cpu:               0.0 elap:               0.0
 (Enter /opt/software/gaussian/g16.c01/l601.exe)
 Copying SCF densities to generalized density rwf, IOpCl= 1 IROHF=0.

 **********************************************************************

            Population analysis using the SCF Density.

 **********************************************************************

 Alpha  occ. eigenvalues --  -88.94738 -14.31655 -10.20986  -8.01593  -5.97744
 Alpha  occ. eigenvalues --   -5.97688  -5.97289  -0.93109  -0.76873  -0.61183
 Alpha  occ. eigenvalues --   -0.50109  -0.47381  -0.39023  -0.36063  -0.30281
 Alpha  occ. eigenvalues --   -0.24406
 Alpha virt. eigenvalues --   -0.07701   0.00109   0.00878   0.02163   0.03712
 Alpha virt. eigenvalues --    0.04388   0.06393   0.07390   0.09796   0.12339
 Alpha virt. eigenvalues --    0.12643   0.12795   0.16026   0.17254   0.18626
 Alpha virt. eigenvalues --    0.18948   0.19651   0.20609   0.21478   0.23698
 Alpha virt. eigenvalues --    0.24294   0.25356   0.26539   0.29413   0.29772
 Alpha virt. eigenvalues --    0.29861   0.32566   0.32615   0.33696   0.35016
 Alpha virt. eigenvalues --    0.37023   0.37845   0.40635   0.43086   0.43337
 Alpha virt. eigenvalues --    0.45322   0.45832   0.48571   0.48967   0.51311
 Alpha virt. eigenvalues --    0.53820   0.57071   0.58564   0.59180   0.64215
 Alpha virt. eigenvalues --    0.65130   0.66613   0.69174   0.70179   0.71135
 Alpha virt. eigenvalues --    0.73207   0.78849   0.81225   0.84182   0.85830
 Alpha virt. eigenvalues --    0.89447   0.96142   1.03239   1.06509   1.11012
 Alpha virt. eigenvalues --    1.14151   1.28417   1.31426   1.31897   1.46031
 Alpha virt. eigenvalues --    1.52666   1.55772   1.57437   1.58094   1.59443
 Alpha virt. eigenvalues --    1.63566   1.66967   1.68872   1.77153   1.80539
 Alpha virt. eigenvalues --    1.82547   1.84339   1.84604   1.85107   1.92268
 Alpha virt. eigenvalues --    1.95938   1.96511   2.02765   2.06990   2.10592
 Alpha virt. eigenvalues --    2.16985   2.19239   2.21449   2.28420   2.35249
 Alpha virt. eigenvalues --    2.46724   2.47299   2.52382   2.63045   2.63217
 Alpha virt. eigenvalues --    2.66210   2.76036   2.77529   2.88593   3.09290
 Alpha virt. eigenvalues --    3.11924   3.14473   3.15416   3.19691   3.26010
 Alpha virt. eigenvalues --    3.35339   3.44835   3.49073   3.54749   3.67552
 Alpha virt. eigenvalues --    3.76088   3.99024   4.07668   4.19509   4.28569
 Alpha virt. eigenvalues --    4.32299   4.45570   4.53475   4.62507   4.73027
 Alpha virt. eigenvalues --    4.81752   4.91231   5.06191   5.21301   5.55813
 Alpha virt. eigenvalues --    8.86588   9.20000   9.53470  20.82668  22.17731
 Alpha virt. eigenvalues --   32.01227
  Beta  occ. eigenvalues --  -88.94738 -14.31655 -10.20986  -8.01593  -5.97744
  Beta  occ. eigenvalues --   -5.97688  -5.97289  -0.93109  -0.76873  -0.61183
  Beta  occ. eigenvalues --   -0.50109  -0.47381  -0.39023  -0.36063  -0.30281
  Beta  occ. eigenvalues --   -0.24406
  Beta virt. eigenvalues --   -0.07701   0.00109   0.00878   0.02163   0.03712
  Beta virt. eigenvalues --    0.04388   0.06393   0.07390   0.09796   0.12339
  Beta virt. eigenvalues --    0.12643   0.12795   0.16026   0.17254   0.18626
  Beta virt. eigenvalues --    0.18948   0.19651   0.20609   0.21478   0.23698
  Beta virt. eigenvalues --    0.24294   0.25356   0.26539   0.29413   0.29772
  Beta virt. eigenvalues --    0.29861   0.32566   0.32615   0.33696   0.35016
  Beta virt. eigenvalues --    0.37023   0.37845   0.40635   0.43086   0.43337
  Beta virt. eigenvalues --    0.45322   0.45832   0.48571   0.48967   0.51311
  Beta virt. eigenvalues --    0.53820   0.57071   0.58564   0.59180   0.64215
  Beta virt. eigenvalues --    0.65130   0.66613   0.69174   0.70179   0.71135
  Beta virt. eigenvalues --    0.73207   0.78849   0.81225   0.84182   0.85830
  Beta virt. eigenvalues --    0.89447   0.96142   1.03239   1.06509   1.11012
  Beta virt. eigenvalues --    1.14151   1.28417   1.31426   1.31897   1.46031
  Beta virt. eigenvalues --    1.52666   1.55772   1.57437   1.58094   1.59443
  Beta virt. eigenvalues --    1.63566   1.66967   1.68872   1.77153   1.80539
  Beta virt. eigenvalues --    1.82547   1.84339   1.84604   1.85107   1.92268
  Beta virt. eigenvalues --    1.95938   1.96511   2.02765   2.06990   2.10592
  Beta virt. eigenvalues --    2.16985   2.19239   2.21449   2.28420   2.35249
  Beta virt. eigenvalues --    2.46724   2.47299   2.52382   2.63045   2.63217
  Beta virt. eigenvalues --    2.66210   2.76036   2.77529   2.88593   3.09290
  Beta virt. eigenvalues --    3.11924   3.14473   3.15416   3.19691   3.26010
  Beta virt. eigenvalues --    3.35339   3.44835   3.49073   3.54749   3.67552
  Beta virt. eigenvalues --    3.76088   3.99024   4.07668   4.19509   4.28569
  Beta virt. eigenvalues --    4.32299   4.45570   4.53475   4.62507   4.73027
  Beta virt. eigenvalues --    4.81752   4.91231   5.06191   5.21301   5.55813
  Beta virt. eigenvalues --    8.86588   9.20000   9.53470  20.82668  22.17731
  Beta virt. eigenvalues --   32.01227
          Condensed to atoms (all electrons):
               1          2          3          4          5          6
     1  C    5.316665   0.383320  -0.022155   0.387924   0.382933  -0.009400
     2  S    0.383320  15.198262   0.167229  -0.021049  -0.024009   0.041691
     3  N   -0.022155   0.167229   7.145450  -0.001477  -0.001783   0.189220
     4  H    0.387924  -0.021049  -0.001477   0.412771  -0.010352   0.000328
     5  H    0.382933  -0.024009  -0.001783  -0.010352   0.418998   0.007327
     6  H   -0.009400   0.041691   0.189220   0.000328   0.007327   0.568365
          Atomic-Atomic Spin Densities.
               1          2          3          4          5          6
     1  C   -0.000000   0.000000  -0.000000   0.000000   0.000000  -0.000000
     2  S    0.000000  -0.000000  -0.000000   0.000000   0.000000  -0.000000
     3  N   -0.000000  -0.000000   0.000000   0.000000  -0.000000  -0.000000
     4  H    0.000000   0.000000   0.000000   0.000000   0.000000   0.000000
     5  H    0.000000   0.000000  -0.000000   0.000000   0.000000   0.000000
     6  H   -0.000000  -0.000000  -0.000000   0.000000   0.000000   0.000000
 Mulliken charges and spin densities:
               1          2
     1  C   -0.439286  -0.000000
     2  S    0.254556  -0.000000
     3  N   -0.476484   0.000000
     4  H    0.231856   0.000000
     5  H    0.226887   0.000000
     6  H    0.202470   0.000000
 Sum of Mulliken charges =  -0.00000   0.00000
 Mulliken charges and spin densities with hydrogens summed into heavy atoms:
               1          2
     1  C    0.019457  -0.000000
     2  S    0.254556  -0.000000
     3  N   -0.274013   0.000000
 Electronic spatial extent (au):  <R**2>=            821.6654
 Charge=             -0.0000 electrons
 Dipole moment (field-independent basis, Debye):
    X=             -2.5157    Y=             -0.2390    Z=             -0.0976  Tot=              2.5289
 Quadrupole moment (field-independent basis, Debye-Ang):
   XX=            -38.8362   YY=            -24.5443   ZZ=            -25.9557
   XY=             -3.1328   XZ=             -1.8845   YZ=              1.8308
 Traceless Quadrupole moment (field-independent basis, Debye-Ang):
   XX=             -9.0574   YY=              5.2344   ZZ=              3.8230
   XY=             -3.1328   XZ=             -1.8845   YZ=              1.8308
 Octapole moment (field-independent basis, Debye-Ang**2):
  XXX=           -231.8026  YYY=            -28.0666  ZZZ=            -19.4201  XYY=            -58.9836
  XXY=            -28.0161  XXZ=            -17.2320  XZZ=            -58.8760  YZZ=             -8.6039
  YYZ=             -2.9541  XYZ=              0.5907
 Hexadecapole moment (field-independent basis, Debye-Ang**3):
 XXXX=          -1192.8187 YYYY=            -94.5112 ZZZZ=            -61.6530 XXXY=           -174.6780
 XXXZ=           -107.3817 YYYX=            -88.3804 YYYZ=            -13.0971 ZZZX=            -58.3347
 ZZZY=            -19.9530 XXYY=           -190.5874 XXZZ=           -175.4752 YYZZ=            -21.7500
 XXYZ=            -13.8996 YYXZ=            -11.7539 ZZXY=            -27.7371
 N-N= 1.020311797422D+02 E-N=-1.370852815213D+03  KE= 4.916218476441D+02
                          Isotropic Fermi Contact Couplings
        Atom                 a.u.       MegaHertz       Gauss      10(-4) cm-1
     1  C(13)              0.00000       0.00000       0.00000       0.00000
     2  S(33)             -0.00000      -0.00000      -0.00000      -0.00000
     3  N(14)             -0.00000      -0.00000      -0.00000      -0.00000
     4  H(1)               0.00000       0.00000       0.00000       0.00000
     5  H(1)               0.00000       0.00000       0.00000       0.00000
     6  H(1)               0.00000       0.00000       0.00000       0.00000
 --------------------------------------------------------
       Center         ----  Spin Dipole Couplings  ----
                      3XX-RR        3YY-RR        3ZZ-RR
 --------------------------------------------------------
     1   Atom        0.000000     -0.000000     -0.000000
     2   Atom       -0.000000      0.000000     -0.000000
     3   Atom        0.000000      0.000000     -0.000000
     4   Atom        0.000000     -0.000000      0.000000
     5   Atom        0.000000     -0.000000     -0.000000
     6   Atom        0.000000     -0.000000     -0.000000
 --------------------------------------------------------
                        XY            XZ            YZ
 --------------------------------------------------------
     1   Atom        0.000000     -0.000000     -0.000000
     2   Atom       -0.000000     -0.000000      0.000000
     3   Atom       -0.000000     -0.000000     -0.000000
     4   Atom       -0.000000     -0.000000     -0.000000
     5   Atom       -0.000000     -0.000000      0.000000
     6   Atom       -0.000000     -0.000000     -0.000000
 --------------------------------------------------------


 ---------------------------------------------------------------------------------
              Anisotropic Spin Dipole Couplings in Principal Axis System
 ---------------------------------------------------------------------------------

       Atom             a.u.   MegaHertz   Gauss  10(-4) cm-1        Axes

              Baa    -0.0000    -0.000    -0.000    -0.000  0.0222  0.7325  0.6804
     1 C(13)  Bbb     0.0000     0.000     0.000     0.000  0.2702 -0.6596  0.7013
              Bcc     0.0000     0.000     0.000     0.000  0.9626  0.1683 -0.2125
 
              Baa    -0.0000    -0.000    -0.000    -0.000  0.6843  0.6748 -0.2763
     2 S(33)  Bbb    -0.0000    -0.000    -0.000    -0.000  0.3791 -0.0055  0.9254
              Bcc     0.0000     0.000     0.000     0.000 -0.6229  0.7380  0.2596
 
              Baa    -0.0000    -0.000    -0.000    -0.000  0.3122  0.2874  0.9055
     3 N(14)  Bbb     0.0000     0.000     0.000     0.000  0.0435  0.9478 -0.3159
              Bcc     0.0000     0.000     0.000     0.000  0.9490 -0.1380 -0.2834
 
              Baa    -0.0000    -0.000    -0.000    -0.000  0.5468  0.7865  0.2871
     4 H(1)   Bbb     0.0000     0.000     0.000     0.000  0.2085 -0.4600  0.8631
              Bcc     0.0000     0.000     0.000     0.000  0.8109 -0.4121 -0.4155
 
              Baa    -0.0000    -0.000    -0.000    -0.000  0.1244 -0.4873  0.8643
     5 H(1)   Bbb    -0.0000    -0.000    -0.000    -0.000  0.4343  0.8099  0.3942
              Bcc     0.0000     0.000     0.000     0.000  0.8921 -0.3263 -0.3125
 
              Baa    -0.0000    -0.000    -0.000    -0.000  0.3975  0.7155  0.5745
     6 H(1)   Bbb    -0.0000    -0.000    -0.000    -0.000 -0.1731 -0.5564  0.8127
              Bcc     0.0000     0.000     0.000     0.000  0.9011 -0.4225 -0.0973
 

 ---------------------------------------------------------------------------------

 No NMR shielding tensors so no spin-rotation constants.
 Leave Link  601 at Tue Jan  3 09:06:36 2023, MaxMem=   536870912 cpu:               0.5 elap:               0.3
 (Enter /opt/software/gaussian/g16.c01/l801.exe)
 DoSCS=F DFT=T ScalE2(SS,OS)=  1.000000  1.000000
 Range of M.O.s used for correlation:     1   147
 NBasis=   147 NAE=    16 NBE=    16 NFC=     0 NFV=     0
 NROrb=    147 NOA=    16 NOB=    16 NVA=   131 NVB=   131

 **** Warning!!: The largest alpha MO coefficient is  0.38598113D+02


 **** Warning!!: The largest beta MO coefficient is  0.38598113D+02

 Leave Link  801 at Tue Jan  3 09:06:36 2023, MaxMem=   536870912 cpu:               0.1 elap:               0.0
 (Enter /opt/software/gaussian/g16.c01/l914.exe)
 UHF ground state
 Doing stability rather than CIS.
 Keep R1 and R2 ints in memory in canonical form, NReq=124288757.
 FoFCou: FMM=F IPFlag=           0 FMFlag=           0 FMFlg1=           0
         NFxFlg=           0 DoJE=F BraDBF=F KetDBF=F FulRan=T
         wScrn=  0.000000 ICntrl=       600 IOpCl=  0 I1Cent=           0 NGrid=           0
         NMat0=    1 NMatS0=  10878 NMatT0=    0 NMatD0=    1 NMtDS0=    0 NMtDT0=    0
 Symmetry not used in FoFCou.
 Two-electron integral symmetry not used.
 MDV=   536870912 DFT=T DoStab=T Mixed=T DoRPA=F DoScal=F NonHer=F
 Making orbital integer symmetry assigments:
    12 initial guesses have been made.
 Convergence on wavefunction:    0.001000000000000
 Davidson Disk Diagonalization:  ConvIn= 1.00D-03 SkipCon=T Conv= 1.00D-03.
 Max sub-space:  2000 roots to seek:    12 dimension of matrix:         4192
 Iteration     1 Dimension    12 NMult     0 NNew     12
 CISAX will form    12 AO SS matrices at one time.
 NMat=    12 NSing=    12 JSym2X= 0.
 Excitation Energies [eV] at current iteration:
 Root      1 :     1.332012275557182
 Root      2 :     4.005448673834629
 Root      3 :     5.333983896735193
 Root      4 :     5.431036089898753
 Root      5 :     5.680842568661562
 Root      6 :     5.746789351409895
 Root      7 :     6.033565463701616
 Root      8 :     6.248924423394683
 Root      9 :     6.325206538805897
 Root     10 :     6.728980853663225
 Root     11 :     6.758764737063337
 Root     12 :    11.619202785470968
 Iteration     2 Dimension    24 NMult    12 NNew     12
 CISAX will form    12 AO SS matrices at one time.
 NMat=    12 NSing=    12 JSym2X= 0.
 Root      1 not converged, maximum delta is    0.071294868488417
 Excitation Energies [eV] at current iteration:
 Root      1 :     0.904993469930565   Change is   -0.427018805626617
 Root      2 :     3.642946386902805   Change is   -0.362502286931824
 Root      3 :     5.053024193975943   Change is   -0.280959702759250
 Root      4 :     5.053588278564829   Change is   -0.377447811333924
 Root      5 :     5.563951037455158   Change is   -0.182838313954737
 Root      6 :     5.600407603769535   Change is   -0.080434964892027
 Root      7 :     5.949382145867984   Change is   -0.084183317833632
 Root      8 :     6.072605860507049   Change is   -0.176318562887633
 Root      9 :     6.260024860370692   Change is   -0.065181678435205
 Root     10 :     6.315479194116035   Change is   -0.443285542947302
 Root     11 :     6.667596241760928   Change is   -0.061384611902297
 Root     12 :     7.262322717079980
 Iteration     3 Dimension    27 NMult    24 NNew      3
 CISAX will form     3 AO SS matrices at one time.
 NMat=     3 NSing=     3 JSym2X= 0.
 Root      1 not converged, maximum delta is    0.003670750576695
 Excitation Energies [eV] at current iteration:
 Root      1 :     0.900016266262837   Change is   -0.004977203667728
 Root      2 :     3.627353521911805   Change is   -0.015592864991000
 Root      3 :     4.894940182395538   Change is   -0.158084011580405
 Iteration     4 Dimension    30 NMult    27 NNew      3
 CISAX will form     3 AO SS matrices at one time.
 NMat=     3 NSing=     3 JSym2X= 0.
 Root      1 not converged, maximum delta is    0.001156311156897
 Excitation Energies [eV] at current iteration:
 Root      1 :     0.899857722397082   Change is   -0.000158543865755
 Root      2 :     3.626237259059293   Change is   -0.001116262852512
 Root      3 :     4.831047991879654   Change is   -0.063892190515884
 Iteration     5 Dimension    33 NMult    30 NNew      3
 CISAX will form     3 AO SS matrices at one time.
 NMat=     3 NSing=     3 JSym2X= 0.
 Root      1 has converged.
 Excitation Energies [eV] at current iteration:
 Root      1 :     0.899853922395445   Change is   -0.000003800001638
 Root      2 :     3.626223507074173   Change is   -0.000013751985120
 Root      3 :     4.829651479012766   Change is   -0.001396512866887
 Convergence achieved on expansion vectors.
 ***********************************************************************
 Stability analysis using <AA,BB:AA,BB> singles matrix:
 ***********************************************************************
 1PDM for each excited state written to RWF  633
 Ground to excited state transition densities written to RWF  633

 Eigenvectors of the stability matrix:
 
 Excited state symmetry could not be determined.
 Eigenvector   1:  3.000-?Sym  Eigenvalue= 0.0330690  <S**2>=2.000
     16A -> 17A        0.69274
     16B -> 17B       -0.69274
 The wavefunction is stable under the perturbations considered.
 Leave Link  914 at Tue Jan  3 09:07:59 2023, MaxMem=   536870912 cpu:             165.9 elap:              83.0
 (Enter /opt/software/gaussian/g16.c01/l508.exe)
 The wavefunction is already stable.
 Leave Link  508 at Tue Jan  3 09:07:59 2023, MaxMem=   536870912 cpu:               0.0 elap:               0.0
 (Enter /opt/software/gaussian/g16.c01/l601.exe)
 Copying SCF densities to generalized density rwf, IOpCl= 1 IROHF=0.

 **********************************************************************

            Population analysis using the SCF Density.

 **********************************************************************

 Alpha  occ. eigenvalues --  -88.94738 -14.31655 -10.20986  -8.01593  -5.97744
 Alpha  occ. eigenvalues --   -5.97688  -5.97289  -0.93109  -0.76873  -0.61183
 Alpha  occ. eigenvalues --   -0.50109  -0.47381  -0.39023  -0.36063  -0.30281
 Alpha  occ. eigenvalues --   -0.24406
 Alpha virt. eigenvalues --   -0.07701   0.00109   0.00878   0.02163   0.03712
 Alpha virt. eigenvalues --    0.04388   0.06393   0.07390   0.09796   0.12339
 Alpha virt. eigenvalues --    0.12643   0.12795   0.16026   0.17254   0.18626
 Alpha virt. eigenvalues --    0.18948   0.19651   0.20609   0.21478   0.23698
 Alpha virt. eigenvalues --    0.24294   0.25356   0.26539   0.29413   0.29772
 Alpha virt. eigenvalues --    0.29861   0.32566   0.32615   0.33696   0.35016
 Alpha virt. eigenvalues --    0.37023   0.37845   0.40635   0.43086   0.43337
 Alpha virt. eigenvalues --    0.45322   0.45832   0.48571   0.48967   0.51311
 Alpha virt. eigenvalues --    0.53820   0.57071   0.58564   0.59180   0.64215
 Alpha virt. eigenvalues --    0.65130   0.66613   0.69174   0.70179   0.71135
 Alpha virt. eigenvalues --    0.73207   0.78849   0.81225   0.84182   0.85830
 Alpha virt. eigenvalues --    0.89447   0.96142   1.03239   1.06509   1.11012
 Alpha virt. eigenvalues --    1.14151   1.28417   1.31426   1.31897   1.46031
 Alpha virt. eigenvalues --    1.52666   1.55772   1.57437   1.58094   1.59443
 Alpha virt. eigenvalues --    1.63566   1.66967   1.68872   1.77153   1.80539
 Alpha virt. eigenvalues --    1.82547   1.84339   1.84604   1.85107   1.92268
 Alpha virt. eigenvalues --    1.95938   1.96511   2.02765   2.06990   2.10592
 Alpha virt. eigenvalues --    2.16985   2.19239   2.21449   2.28420   2.35249
 Alpha virt. eigenvalues --    2.46724   2.47299   2.52382   2.63045   2.63217
 Alpha virt. eigenvalues --    2.66210   2.76036   2.77529   2.88593   3.09290
 Alpha virt. eigenvalues --    3.11924   3.14473   3.15416   3.19691   3.26010
 Alpha virt. eigenvalues --    3.35339   3.44835   3.49073   3.54749   3.67552
 Alpha virt. eigenvalues --    3.76088   3.99024   4.07668   4.19509   4.28569
 Alpha virt. eigenvalues --    4.32299   4.45570   4.53475   4.62507   4.73027
 Alpha virt. eigenvalues --    4.81752   4.91231   5.06191   5.21301   5.55813
 Alpha virt. eigenvalues --    8.86588   9.20000   9.53470  20.82668  22.17731
 Alpha virt. eigenvalues --   32.01227
  Beta  occ. eigenvalues --  -88.94738 -14.31655 -10.20986  -8.01593  -5.97744
  Beta  occ. eigenvalues --   -5.97688  -5.97289  -0.93109  -0.76873  -0.61183
  Beta  occ. eigenvalues --   -0.50109  -0.47381  -0.39023  -0.36063  -0.30281
  Beta  occ. eigenvalues --   -0.24406
  Beta virt. eigenvalues --   -0.07701   0.00109   0.00878   0.02163   0.03712
  Beta virt. eigenvalues --    0.04388   0.06393   0.07390   0.09796   0.12339
  Beta virt. eigenvalues --    0.12643   0.12795   0.16026   0.17254   0.18626
  Beta virt. eigenvalues --    0.18948   0.19651   0.20609   0.21478   0.23698
  Beta virt. eigenvalues --    0.24294   0.25356   0.26539   0.29413   0.29772
  Beta virt. eigenvalues --    0.29861   0.32566   0.32615   0.33696   0.35016
  Beta virt. eigenvalues --    0.37023   0.37845   0.40635   0.43086   0.43337
  Beta virt. eigenvalues --    0.45322   0.45832   0.48571   0.48967   0.51311
  Beta virt. eigenvalues --    0.53820   0.57071   0.58564   0.59180   0.64215
  Beta virt. eigenvalues --    0.65130   0.66613   0.69174   0.70179   0.71135
  Beta virt. eigenvalues --    0.73207   0.78849   0.81225   0.84182   0.85830
  Beta virt. eigenvalues --    0.89447   0.96142   1.03239   1.06509   1.11012
  Beta virt. eigenvalues --    1.14151   1.28417   1.31426   1.31897   1.46031
  Beta virt. eigenvalues --    1.52666   1.55772   1.57437   1.58094   1.59443
  Beta virt. eigenvalues --    1.63566   1.66967   1.68872   1.77153   1.80539
  Beta virt. eigenvalues --    1.82547   1.84339   1.84604   1.85107   1.92268
  Beta virt. eigenvalues --    1.95938   1.96511   2.02765   2.06990   2.10592
  Beta virt. eigenvalues --    2.16985   2.19239   2.21449   2.28420   2.35249
  Beta virt. eigenvalues --    2.46724   2.47299   2.52382   2.63045   2.63217
  Beta virt. eigenvalues --    2.66210   2.76036   2.77529   2.88593   3.09290
  Beta virt. eigenvalues --    3.11924   3.14473   3.15416   3.19691   3.26010
  Beta virt. eigenvalues --    3.35339   3.44835   3.49073   3.54749   3.67552
  Beta virt. eigenvalues --    3.76088   3.99024   4.07668   4.19509   4.28569
  Beta virt. eigenvalues --    4.32299   4.45570   4.53475   4.62507   4.73027
  Beta virt. eigenvalues --    4.81752   4.91231   5.06191   5.21301   5.55813
  Beta virt. eigenvalues --    8.86588   9.20000   9.53470  20.82668  22.17731
  Beta virt. eigenvalues --   32.01227
          Condensed to atoms (all electrons):
               1          2          3          4          5          6
     1  C    5.316665   0.383320  -0.022155   0.387924   0.382933  -0.009400
     2  S    0.383320  15.198262   0.167229  -0.021049  -0.024009   0.041691
     3  N   -0.022155   0.167229   7.145450  -0.001477  -0.001783   0.189220
     4  H    0.387924  -0.021049  -0.001477   0.412771  -0.010352   0.000328
     5  H    0.382933  -0.024009  -0.001783  -0.010352   0.418998   0.007327
     6  H   -0.009400   0.041691   0.189220   0.000328   0.007327   0.568365
          Atomic-Atomic Spin Densities.
               1          2          3          4          5          6
     1  C   -0.000000   0.000000  -0.000000   0.000000   0.000000  -0.000000
     2  S    0.000000  -0.000000  -0.000000   0.000000   0.000000  -0.000000
     3  N   -0.000000  -0.000000   0.000000   0.000000  -0.000000  -0.000000
     4  H    0.000000   0.000000   0.000000   0.000000   0.000000   0.000000
     5  H    0.000000   0.000000  -0.000000   0.000000   0.000000   0.000000
     6  H   -0.000000  -0.000000  -0.000000   0.000000   0.000000   0.000000
 Mulliken charges and spin densities:
               1          2
     1  C   -0.439286  -0.000000
     2  S    0.254556  -0.000000
     3  N   -0.476484   0.000000
     4  H    0.231856   0.000000
     5  H    0.226887   0.000000
     6  H    0.202470   0.000000
 Sum of Mulliken charges =  -0.00000   0.00000
 Mulliken charges and spin densities with hydrogens summed into heavy atoms:
               1          2
     1  C    0.019457  -0.000000
     2  S    0.254556  -0.000000
     3  N   -0.274013   0.000000
 Electronic spatial extent (au):  <R**2>=            821.6654
 Charge=             -0.0000 electrons
 Dipole moment (field-independent basis, Debye):
    X=             -2.5157    Y=             -0.2390    Z=             -0.0976  Tot=              2.5289
 Quadrupole moment (field-independent basis, Debye-Ang):
   XX=            -38.8362   YY=            -24.5443   ZZ=            -25.9557
   XY=             -3.1328   XZ=             -1.8845   YZ=              1.8308
 Traceless Quadrupole moment (field-independent basis, Debye-Ang):
   XX=             -9.0574   YY=              5.2344   ZZ=              3.8230
   XY=             -3.1328   XZ=             -1.8845   YZ=              1.8308
 Octapole moment (field-independent basis, Debye-Ang**2):
  XXX=           -231.8026  YYY=            -28.0666  ZZZ=            -19.4201  XYY=            -58.9836
  XXY=            -28.0161  XXZ=            -17.2320  XZZ=            -58.8760  YZZ=             -8.6039
  YYZ=             -2.9541  XYZ=              0.5907
 Hexadecapole moment (field-independent basis, Debye-Ang**3):
 XXXX=          -1192.8187 YYYY=            -94.5112 ZZZZ=            -61.6530 XXXY=           -174.6780
 XXXZ=           -107.3817 YYYX=            -88.3804 YYYZ=            -13.0971 ZZZX=            -58.3347
 ZZZY=            -19.9530 XXYY=           -190.5874 XXZZ=           -175.4752 YYZZ=            -21.7500
 XXYZ=            -13.8996 YYXZ=            -11.7539 ZZXY=            -27.7371
 N-N= 1.020311797422D+02 E-N=-1.370852815213D+03  KE= 4.916218476441D+02
                          Isotropic Fermi Contact Couplings
        Atom                 a.u.       MegaHertz       Gauss      10(-4) cm-1
     1  C(13)              0.00000       0.00000       0.00000       0.00000
     2  S(33)             -0.00000      -0.00000      -0.00000      -0.00000
     3  N(14)             -0.00000      -0.00000      -0.00000      -0.00000
     4  H(1)               0.00000       0.00000       0.00000       0.00000
     5  H(1)               0.00000       0.00000       0.00000       0.00000
     6  H(1)               0.00000       0.00000       0.00000       0.00000
 --------------------------------------------------------
       Center         ----  Spin Dipole Couplings  ----
                      3XX-RR        3YY-RR        3ZZ-RR
 --------------------------------------------------------
     1   Atom        0.000000     -0.000000     -0.000000
     2   Atom       -0.000000      0.000000     -0.000000
     3   Atom        0.000000      0.000000     -0.000000
     4   Atom        0.000000     -0.000000      0.000000
     5   Atom        0.000000     -0.000000     -0.000000
     6   Atom        0.000000     -0.000000     -0.000000
 --------------------------------------------------------
                        XY            XZ            YZ
 --------------------------------------------------------
     1   Atom        0.000000     -0.000000     -0.000000
     2   Atom       -0.000000     -0.000000      0.000000
     3   Atom       -0.000000     -0.000000     -0.000000
     4   Atom       -0.000000     -0.000000     -0.000000
     5   Atom       -0.000000     -0.000000      0.000000
     6   Atom       -0.000000     -0.000000     -0.000000
 --------------------------------------------------------


 ---------------------------------------------------------------------------------
              Anisotropic Spin Dipole Couplings in Principal Axis System
 ---------------------------------------------------------------------------------

       Atom             a.u.   MegaHertz   Gauss  10(-4) cm-1        Axes

              Baa    -0.0000    -0.000    -0.000    -0.000  0.0222  0.7325  0.6804
     1 C(13)  Bbb     0.0000     0.000     0.000     0.000  0.2702 -0.6596  0.7013
              Bcc     0.0000     0.000     0.000     0.000  0.9626  0.1683 -0.2125
 
              Baa    -0.0000    -0.000    -0.000    -0.000  0.6843  0.6748 -0.2763
     2 S(33)  Bbb    -0.0000    -0.000    -0.000    -0.000  0.3791 -0.0055  0.9254
              Bcc     0.0000     0.000     0.000     0.000 -0.6229  0.7380  0.2596
 
              Baa    -0.0000    -0.000    -0.000    -0.000  0.3122  0.2874  0.9055
     3 N(14)  Bbb     0.0000     0.000     0.000     0.000  0.0435  0.9478 -0.3159
              Bcc     0.0000     0.000     0.000     0.000  0.9490 -0.1380 -0.2834
 
              Baa    -0.0000    -0.000    -0.000    -0.000  0.5468  0.7865  0.2871
     4 H(1)   Bbb     0.0000     0.000     0.000     0.000  0.2085 -0.4600  0.8631
              Bcc     0.0000     0.000     0.000     0.000  0.8109 -0.4121 -0.4155
 
              Baa    -0.0000    -0.000    -0.000    -0.000  0.1244 -0.4873  0.8643
     5 H(1)   Bbb    -0.0000    -0.000    -0.000    -0.000  0.4343  0.8099  0.3942
              Bcc     0.0000     0.000     0.000     0.000  0.8921 -0.3263 -0.3125
 
              Baa    -0.0000    -0.000    -0.000    -0.000  0.3975  0.7155  0.5745
     6 H(1)   Bbb    -0.0000    -0.000    -0.000    -0.000 -0.1731 -0.5564  0.8127
              Bcc     0.0000     0.000     0.000     0.000  0.9011 -0.4225 -0.0973
 

 ---------------------------------------------------------------------------------

 No NMR shielding tensors so no spin-rotation constants.
 Leave Link  601 at Tue Jan  3 09:07:59 2023, MaxMem=   536870912 cpu:               0.5 elap:               0.2
 (Enter /opt/software/gaussian/g16.c01/l9999.exe)

 Test job not archived.
 1\1\GINC-GRA1076\Stability\UB3LYP\Gen\C1H3N1S1\BHAVUK\03-Jan-2023\0\\#
 p ub3lyp/gen stable=opt scf=(maxcycle=900,verytightlineq,xqc) integral
 =grid=ultrafine symmetry=None density=current iop(99/18=-1) output=wfn
 \\0004_q000_m01_k00_opt_uwb97xd_def2svpd/0004_q000_m01_k00_force_ub3ly
 p_def2tzvpd stable-force\\0,1\C,0,0.8882935141,0.1422345627,0.10892631
 23\S,0,2.5067242222,0.1041696479,0.0448895292\N,0,3.3032398974,1.22989
 74173,0.7707622237\H,0,0.3752741579,-0.6653344173,-0.4132293362\H,0,0.
 3242760911,0.9148647349,0.6338600998\H,0,2.7138421188,1.9201180545,1.2
 418511706\\Version=ES64L-G16RevC.01\HF=-492.8542423\S2=0.\S2-1=0.\S2A=
 0.\RMSD=2.769e-09\Dipole=-0.9897416,-0.0940398,-0.038382\Quadrupole=-6
 .7339867,3.89165,2.8423366,-2.3291954,-1.4010874,1.361164\PG=Unknown\\
 @

 Writing a WFN file to "0004_q000_m01_k00_force_ub3lyp_def2tzvpd.wfn"


 DO YOU KNOW THAT THE LETTERS IN "EPISCOPAL", WHEN
 REARRANGED, SPELL "PEPSI COLA"?
 Job cpu time:       0 days  0 hours  3 minutes 22.8 seconds.
 Elapsed time:       0 days  0 hours  1 minutes 42.5 seconds.
 File lengths (MBytes):  RWF=    115 Int=      0 D2E=      0 Chk=      4 Scr=      1
 Normal termination of Gaussian 16 at Tue Jan  3 09:07:59 2023.
 Initial command:
 /opt/software/gaussian/g16.c01/l1.exe "/localscratch/bhavuk.2151397.0/Gau-19948.inp" -scrdir="/localscratch/bhavuk.2151397.0/"
 Entering Link 1 = /opt/software/gaussian/g16.c01/l1.exe PID=     21715.
  
 Copyright (c) 1988-2019, Gaussian, Inc.  All Rights Reserved.
  
 This is part of the Gaussian(R) 16 program.  It is based on
 the Gaussian(R) 09 system (copyright 2009, Gaussian, Inc.),
 the Gaussian(R) 03 system (copyright 2003, Gaussian, Inc.),
 the Gaussian(R) 98 system (copyright 1998, Gaussian, Inc.),
 the Gaussian(R) 94 system (copyright 1995, Gaussian, Inc.),
 the Gaussian 92(TM) system (copyright 1992, Gaussian, Inc.),
 the Gaussian 90(TM) system (copyright 1990, Gaussian, Inc.),
 the Gaussian 88(TM) system (copyright 1988, Gaussian, Inc.),
 the Gaussian 86(TM) system (copyright 1986, Carnegie Mellon
 University), and the Gaussian 82(TM) system (copyright 1983,
 Carnegie Mellon University). Gaussian is a federally registered
 trademark of Gaussian, Inc.
  
 This software contains proprietary and confidential information,
 including trade secrets, belonging to Gaussian, Inc.
  
 This software is provided under written license and may be
 used, copied, transmitted, or stored only in accord with that
 written license.
  
 The following legend is applicable only to US Government
 contracts under FAR:
  
                    RESTRICTED RIGHTS LEGEND
  
 Use, reproduction and disclosure by the US Government is
 subject to restrictions as set forth in subparagraphs (a)
 and (c) of the Commercial Computer Software - Restricted
 Rights clause in FAR 52.227-19.
  
 Gaussian, Inc.
 340 Quinnipiac St., Bldg. 40, Wallingford CT 06492
  
  
 ---------------------------------------------------------------
 Warning -- This program may not be used in any manner that
 competes with the business of Gaussian, Inc. or will provide
 assistance to any competitor of Gaussian, Inc.  The licensee
 of this program is prohibited from giving any competitor of
 Gaussian, Inc. access to this program.  By using this program,
 the user acknowledges that Gaussian, Inc. is engaged in the
 business of creating and licensing software in the field of
 computational chemistry and represents and warrants to the
 licensee that it is not a competitor of Gaussian, Inc. and that
 it will not use this program in any manner prohibited above.
 ---------------------------------------------------------------
  

 Cite this work as:
 Gaussian 16, Revision C.01,
 M. J. Frisch, G. W. Trucks, H. B. Schlegel, G. E. Scuseria, 
 M. A. Robb, J. R. Cheeseman, G. Scalmani, V. Barone, 
 G. A. Petersson, H. Nakatsuji, X. Li, M. Caricato, A. V. Marenich, 
 J. Bloino, B. G. Janesko, R. Gomperts, B. Mennucci, H. P. Hratchian, 
 J. V. Ortiz, A. F. Izmaylov, J. L. Sonnenberg, D. Williams-Young, 
 F. Ding, F. Lipparini, F. Egidi, J. Goings, B. Peng, A. Petrone, 
 T. Henderson, D. Ranasinghe, V. G. Zakrzewski, J. Gao, N. Rega, 
 G. Zheng, W. Liang, M. Hada, M. Ehara, K. Toyota, R. Fukuda, 
 J. Hasegawa, M. Ishida, T. Nakajima, Y. Honda, O. Kitao, H. Nakai, 
 T. Vreven, K. Throssell, J. A. Montgomery, Jr., J. E. Peralta, 
 F. Ogliaro, M. J. Bearpark, J. J. Heyd, E. N. Brothers, K. N. Kudin, 
 V. N. Staroverov, T. A. Keith, R. Kobayashi, J. Normand, 
 K. Raghavachari, A. P. Rendell, J. C. Burant, S. S. Iyengar, 
 J. Tomasi, M. Cossi, J. M. Millam, M. Klene, C. Adamo, R. Cammi, 
 J. W. Ochterski, R. L. Martin, K. Morokuma, O. Farkas, 
 J. B. Foresman, and D. J. Fox, Gaussian, Inc., Wallingford CT, 2019.
 
 ******************************************
 Gaussian 16:  ES64L-G16RevC.01  3-Jul-2019
                 3-Jan-2023 
 ******************************************
 %chk=0004_q000_m01_k00_force_ub3lyp_def2tzvpd.chk
 %nprocshared=2
 Will use up to    2 processors via shared memory.
 %mem=4GB
 ----------------------------------------------------------------------
 #p ub3lyp/chkbasis force guess=read geom=check scf=(maxcycle=900,veryt
 ightlineq,xqc) integral=grid=ultrafine symmetry=None density=current p
 op=(cm5,hlygat,mbs,npa) output=wfx
 ----------------------------------------------------------------------
 1/10=7,29=2,30=1,38=1/1,3;
 2/12=2,15=3,40=1/2;
 3/5=7,6=2,11=2,14=-4,25=1,30=1,67=1,71=1,74=-5,75=-5,116=2/1,2,3;
 4/5=1/1;
 5/5=2,7=900,8=3,13=1,17=3,38=6/2,8;
 6/7=2,8=2,9=2,10=2,15=8,20=15,22=-1,27=100,28=1,40=-1,79=1/1,2,7;
 7/29=1,30=1/1,2,3,16;
 1/10=7,30=1/3;
 99/6=200/99;
 Leave Link    1 at Tue Jan  3 09:07:59 2023, MaxMem=   536870912 cpu:               0.2 elap:               0.1
 (Enter /opt/software/gaussian/g16.c01/l101.exe)
 ----------------------------------------------------------------------
 0004_q000_m01_k00_opt_uwb97xd_def2svpd/0004_q000_m01_k00_force_ub3lyp_
 def2tzvpd stable-force
 ----------------------------------------------------------------------
 Structure from the checkpoint file:  "0004_q000_m01_k00_force_ub3lyp_def2tzvpd.chk"
 Charge =  0 Multiplicity = 1
 Z-Matrix found in chk file.
 C,0,0.8882935141,0.1422345627,0.1089263123
 S,0,2.5067242222,0.1041696479,0.0448895292
 N,0,3.3032398974,1.2298974173,0.7707622237
 H,0,0.3752741579,-0.6653344173,-0.4132293362
 H,0,0.3242760911,0.9148647349,0.6338600998
 H,0,2.7138421188,1.9201180545,1.2418511706
 Recover connectivity data from disk.
 ITRead=  0  0  0  0  0  0
 MicOpt= -1 -1 -1 -1 -1 -1
 NAtoms=      6 NQM=        6 NQMF=       0 NMMI=      0 NMMIF=      0
                NMic=       0 NMicF=      0.
                    Isotopes and Nuclear Properties:
 (Nuclear quadrupole moments (NQMom) in fm**2, nuclear magnetic moments (NMagM)
  in nuclear magnetons)

  Atom         1           2           3           4           5           6
 IAtWgt=          12          32          14           1           1           1
 AtmWgt=  12.0000000  31.9720718  14.0030740   1.0078250   1.0078250   1.0078250
 NucSpn=           0           0           2           1           1           1
 AtZEff=   3.6000000  13.6000000   4.5500000   1.0000000   1.0000000   1.0000000
 NQMom=    0.0000000   0.0000000   2.0440000   0.0000000   0.0000000   0.0000000
 NMagM=    0.0000000   0.0000000   0.4037610   2.7928460   2.7928460   2.7928460
 AtZNuc=   6.0000000  16.0000000   7.0000000   1.0000000   1.0000000   1.0000000
 Leave Link  101 at Tue Jan  3 09:08:00 2023, MaxMem=   536870912 cpu:               0.4 elap:               0.2
 (Enter /opt/software/gaussian/g16.c01/l103.exe)

 GradGradGradGradGradGradGradGradGradGradGradGradGradGradGradGradGradGrad
 Berny optimization.
 Initialization pass.
 Trust Radius=3.00D-01 FncErr=1.00D-07 GrdErr=1.00D-07 EigMax=2.50D+02 EigMin=1.00D-04
 Number of steps in this run=      2 maximum allowed number of steps=      2.
 GradGradGradGradGradGradGradGradGradGradGradGradGradGradGradGradGradGrad

 Leave Link  103 at Tue Jan  3 09:08:00 2023, MaxMem=   536870912 cpu:               0.0 elap:               0.0
 (Enter /opt/software/gaussian/g16.c01/l202.exe)
                          Input orientation:                          
 ---------------------------------------------------------------------
 Center     Atomic      Atomic             Coordinates (Angstroms)
 Number     Number       Type             X           Y           Z
 ---------------------------------------------------------------------
      1          6           0        0.888294    0.142235    0.108926
      2         16           0        2.506724    0.104170    0.044890
      3          7           0        3.303240    1.229897    0.770762
      4          1           0        0.375274   -0.665334   -0.413229
      5          1           0        0.324276    0.914865    0.633860
      6          1           0        2.713842    1.920118    1.241851
 ---------------------------------------------------------------------
                    Distance matrix (angstroms):
                    1          2          3          4          5
     1  C    0.000000
     2  S    1.620144   0.000000
     3  N    2.730019   1.558394   0.000000
     4  H    1.089956   2.311945   3.683303   0.000000
     5  H    1.091159   2.401498   2.998702   1.896319   0.000000
     6  H    2.788730   2.184785   1.022604   3.859113   2.662745
                    6
     6  H    0.000000
 Symmetry turned off by external request.
 Stoichiometry    CH3NS
 Rotational constants (GHZ):          36.3131241           8.8290023           7.1022055
 Leave Link  202 at Tue Jan  3 09:08:00 2023, MaxMem=   536870912 cpu:               0.0 elap:               0.0
 (Enter /opt/software/gaussian/g16.c01/l301.exe)
 Basis read from chk: "0004_q000_m01_k00_force_ub3lyp_def2tzvpd.chk" (5D, 7F)
 No pseudopotential information found on chk file.
   147 basis functions,   228 primitive gaussians,   165 cartesian basis functions
    16 alpha electrons       16 beta electrons
       nuclear repulsion energy       102.0311797422 Hartrees.
 IExCor=  402 DFT=T Ex+Corr=B3LYP ExCW=0 ScaHFX=  0.200000
 ScaDFX=  0.800000  0.720000  1.000000  0.810000 ScalE2=  1.000000  1.000000
 IRadAn=      5 IRanWt=     -1 IRanGd=            0 ICorTp=0 IEmpDi=  4
 NAtoms=    6 NActive=    6 NUniq=    6 SFac= 1.00D+00 NAtFMM=   60 NAOKFM=F Big=F
 Integral buffers will be    131072 words long.
 Raffenetti 2 integral format.
 Two-electron integral symmetry is turned off.
 No density basis found on file  20724.
 Leave Link  301 at Tue Jan  3 09:08:00 2023, MaxMem=   536870912 cpu:               0.1 elap:               0.1
 (Enter /opt/software/gaussian/g16.c01/l302.exe)
 NPDir=0 NMtPBC=     1 NCelOv=     1 NCel=       1 NClECP=     1 NCelD=      1
         NCelK=      1 NCelE2=     1 NClLst=     1 CellRange=     0.0.
 One-electron integrals computed using PRISM.
 NBasis=   147 RedAO= T EigKep=  5.38D-05  NBF=   147
 NBsUse=   147 1.00D-06 EigRej= -1.00D+00 NBFU=   147
 Precomputing XC quadrature grid using
 IXCGrd= 4 IRadAn=           5 IRanWt=          -1 IRanGd=           0 AccXCQ= 0.00D+00.
 Generated NRdTot=       0 NPtTot=           0 NUsed=           0 NTot=          32
 NSgBfM=   164   164   164   164   164 MxSgAt=     6 MxSgA2=     6.
 Leave Link  302 at Tue Jan  3 09:08:00 2023, MaxMem=   536870912 cpu:               0.4 elap:               0.2
 (Enter /opt/software/gaussian/g16.c01/l303.exe)
 DipDrv:  MaxL=1.
 Leave Link  303 at Tue Jan  3 09:08:00 2023, MaxMem=   536870912 cpu:               0.1 elap:               0.0
 (Enter /opt/software/gaussian/g16.c01/l401.exe)
 Initial guess from the checkpoint file:  "0004_q000_m01_k00_force_ub3lyp_def2tzvpd.chk"
 B after Tr=     0.000000    0.000000    0.000000
         Rot=    1.000000    0.000000    0.000000    0.000000 Ang=   0.00 deg.
 Guess basis will be translated and rotated to current coordinates.
 JPrj=2 DoOrth=T DoCkMO=T.
 Initial guess <Sx>= 0.0000 <Sy>= 0.0000 <Sz>= 0.0000 <S**2>=-0.0000 S=-0.0000
 Leave Link  401 at Tue Jan  3 09:08:00 2023, MaxMem=   536870912 cpu:               0.2 elap:               0.1
 (Enter /opt/software/gaussian/g16.c01/l502.exe)
 Keep R1 and R2 ints in memory in canonical form, NReq=120629394.
 FoFCou: FMM=F IPFlag=           0 FMFlag=           0 FMFlg1=           0
         NFxFlg=           0 DoJE=F BraDBF=F KetDBF=F FulRan=T
         wScrn=  0.000000 ICntrl=       600 IOpCl=  0 I1Cent=           0 NGrid=           0
         NMat0=    1 NMatS0=  10878 NMatT0=    0 NMatD0=    1 NMtDS0=    0 NMtDT0=    0
 Symmetry not used in FoFCou.
 Two-electron integral symmetry not used.
 UHF open shell SCF:
 Using DIIS extrapolation, IDIIS=  1040.
 NGot=   536870912 LenX=   418472407 LenY=   418444741
 Requested convergence on RMS density matrix=1.00D-08 within 128 cycles.
 Requested convergence on MAX density matrix=1.00D-06.
 Requested convergence on             energy=1.00D-06.
 No special actions if energy rises.

 Cycle   1  Pass 1  IDiag  1:
 E= -492.854242293108    
 DIIS: error= 7.49D-09 at cycle   1 NSaved=   1.
 NSaved= 1 IEnMin= 1 EnMin= -492.854242293108     IErMin= 1 ErrMin= 7.49D-09
 ErrMax= 7.49D-09  0.00D+00 EMaxC= 1.00D-01 BMatC= 3.33D-14 BMatP= 3.33D-14
 IDIUse=1 WtCom= 1.00D+00 WtEn= 0.00D+00
 Coeff-Com:  0.100D+01
 Coeff:      0.100D+01
 Gap=     0.167 Goal=   None    Shift=    0.000
 Gap=     0.167 Goal=   None    Shift=    0.000
 RMSDP=1.03D-09 MaxDP=1.86D-08              OVMax= 5.74D-08

 SCF Done:  E(UB3LYP) =  -492.854242293     A.U. after    1 cycles
            NFock=  1  Conv=0.10D-08     -V/T= 2.0025
 <Sx>= 0.0000 <Sy>= 0.0000 <Sz>= 0.0000 <S**2>=-0.0000 S=-0.0000
 <L.S>=  0.00000000000    
 KE= 4.916218478381D+02 PE=-1.370852815407D+03 EE= 2.843455455340D+02
 Annihilation of the first spin contaminant:
 S**2 before annihilation    -0.0000,   after    -0.0000
 Leave Link  502 at Tue Jan  3 09:08:04 2023, MaxMem=   536870912 cpu:               7.4 elap:               3.8
 (Enter /opt/software/gaussian/g16.c01/l508.exe)
 QCSCF skips out because SCF is already converged.
 Leave Link  508 at Tue Jan  3 09:08:04 2023, MaxMem=   536870912 cpu:               0.0 elap:               0.0
 (Enter /opt/software/gaussian/g16.c01/l601.exe)
 Copying SCF densities to generalized density rwf, IOpCl= 1 IROHF=0.

 **********************************************************************

            Population analysis using the SCF Density.

 **********************************************************************

 Alpha  occ. eigenvalues --  -88.94738 -14.31655 -10.20986  -8.01593  -5.97744
 Alpha  occ. eigenvalues --   -5.97688  -5.97289  -0.93109  -0.76873  -0.61183
 Alpha  occ. eigenvalues --   -0.50109  -0.47381  -0.39023  -0.36063  -0.30281
 Alpha  occ. eigenvalues --   -0.24406
 Alpha virt. eigenvalues --   -0.07701   0.00109   0.00878   0.02163   0.03712
 Alpha virt. eigenvalues --    0.04388   0.06393   0.07390   0.09796   0.12339
 Alpha virt. eigenvalues --    0.12643   0.12795   0.16026   0.17254   0.18626
 Alpha virt. eigenvalues --    0.18948   0.19651   0.20609   0.21478   0.23698
 Alpha virt. eigenvalues --    0.24294   0.25356   0.26539   0.29413   0.29772
 Alpha virt. eigenvalues --    0.29861   0.32566   0.32615   0.33696   0.35016
 Alpha virt. eigenvalues --    0.37023   0.37845   0.40635   0.43086   0.43337
 Alpha virt. eigenvalues --    0.45322   0.45832   0.48571   0.48967   0.51311
 Alpha virt. eigenvalues --    0.53820   0.57071   0.58564   0.59180   0.64215
 Alpha virt. eigenvalues --    0.65130   0.66613   0.69174   0.70179   0.71135
 Alpha virt. eigenvalues --    0.73207   0.78849   0.81225   0.84182   0.85830
 Alpha virt. eigenvalues --    0.89447   0.96142   1.03239   1.06509   1.11012
 Alpha virt. eigenvalues --    1.14151   1.28417   1.31426   1.31897   1.46031
 Alpha virt. eigenvalues --    1.52666   1.55772   1.57437   1.58094   1.59443
 Alpha virt. eigenvalues --    1.63566   1.66967   1.68872   1.77153   1.80539
 Alpha virt. eigenvalues --    1.82547   1.84339   1.84604   1.85107   1.92268
 Alpha virt. eigenvalues --    1.95938   1.96511   2.02765   2.06990   2.10592
 Alpha virt. eigenvalues --    2.16985   2.19239   2.21449   2.28420   2.35249
 Alpha virt. eigenvalues --    2.46724   2.47299   2.52382   2.63045   2.63217
 Alpha virt. eigenvalues --    2.66210   2.76036   2.77529   2.88593   3.09290
 Alpha virt. eigenvalues --    3.11924   3.14473   3.15416   3.19691   3.26010
 Alpha virt. eigenvalues --    3.35339   3.44835   3.49073   3.54749   3.67552
 Alpha virt. eigenvalues --    3.76088   3.99024   4.07668   4.19509   4.28569
 Alpha virt. eigenvalues --    4.32299   4.45570   4.53475   4.62507   4.73027
 Alpha virt. eigenvalues --    4.81752   4.91231   5.06191   5.21300   5.55813
 Alpha virt. eigenvalues --    8.86588   9.20000   9.53470  20.82668  22.17731
 Alpha virt. eigenvalues --   32.01227
  Beta  occ. eigenvalues --  -88.94738 -14.31655 -10.20986  -8.01593  -5.97744
  Beta  occ. eigenvalues --   -5.97688  -5.97289  -0.93109  -0.76873  -0.61183
  Beta  occ. eigenvalues --   -0.50109  -0.47381  -0.39023  -0.36063  -0.30281
  Beta  occ. eigenvalues --   -0.24406
  Beta virt. eigenvalues --   -0.07701   0.00109   0.00878   0.02163   0.03712
  Beta virt. eigenvalues --    0.04388   0.06393   0.07390   0.09796   0.12339
  Beta virt. eigenvalues --    0.12643   0.12795   0.16026   0.17254   0.18626
  Beta virt. eigenvalues --    0.18948   0.19651   0.20609   0.21478   0.23698
  Beta virt. eigenvalues --    0.24294   0.25356   0.26539   0.29413   0.29772
  Beta virt. eigenvalues --    0.29861   0.32566   0.32615   0.33696   0.35016
  Beta virt. eigenvalues --    0.37023   0.37845   0.40635   0.43086   0.43337
  Beta virt. eigenvalues --    0.45322   0.45832   0.48571   0.48967   0.51311
  Beta virt. eigenvalues --    0.53820   0.57071   0.58564   0.59180   0.64215
  Beta virt. eigenvalues --    0.65130   0.66613   0.69174   0.70179   0.71135
  Beta virt. eigenvalues --    0.73207   0.78849   0.81225   0.84182   0.85830
  Beta virt. eigenvalues --    0.89447   0.96142   1.03239   1.06509   1.11012
  Beta virt. eigenvalues --    1.14151   1.28417   1.31426   1.31897   1.46031
  Beta virt. eigenvalues --    1.52666   1.55772   1.57437   1.58094   1.59443
  Beta virt. eigenvalues --    1.63566   1.66967   1.68872   1.77153   1.80539
  Beta virt. eigenvalues --    1.82547   1.84339   1.84604   1.85107   1.92268
  Beta virt. eigenvalues --    1.95938   1.96511   2.02765   2.06990   2.10592
  Beta virt. eigenvalues --    2.16985   2.19239   2.21449   2.28420   2.35249
  Beta virt. eigenvalues --    2.46724   2.47299   2.52382   2.63045   2.63217
  Beta virt. eigenvalues --    2.66210   2.76036   2.77529   2.88593   3.09290
  Beta virt. eigenvalues --    3.11924   3.14473   3.15416   3.19691   3.26010
  Beta virt. eigenvalues --    3.35339   3.44835   3.49073   3.54749   3.67552
  Beta virt. eigenvalues --    3.76088   3.99024   4.07668   4.19509   4.28569
  Beta virt. eigenvalues --    4.32299   4.45570   4.53475   4.62507   4.73027
  Beta virt. eigenvalues --    4.81752   4.91231   5.06191   5.21300   5.55813
  Beta virt. eigenvalues --    8.86588   9.20000   9.53470  20.82668  22.17731
  Beta virt. eigenvalues --   32.01227
          Condensed to atoms (all electrons):
               1          2          3          4          5          6
     1  C    5.316664   0.383320  -0.022155   0.387924   0.382933  -0.009400
     2  S    0.383320  15.198262   0.167229  -0.021049  -0.024009   0.041691
     3  N   -0.022155   0.167229   7.145450  -0.001477  -0.001783   0.189220
     4  H    0.387924  -0.021049  -0.001477   0.412771  -0.010352   0.000328
     5  H    0.382933  -0.024009  -0.001783  -0.010352   0.418998   0.007327
     6  H   -0.009400   0.041691   0.189220   0.000328   0.007327   0.568365
          Atomic-Atomic Spin Densities.
               1          2          3          4          5          6
     1  C    0.000000   0.000000  -0.000000  -0.000000   0.000000  -0.000000
     2  S    0.000000   0.000000  -0.000000  -0.000000  -0.000000   0.000000
     3  N   -0.000000  -0.000000   0.000000  -0.000000  -0.000000  -0.000000
     4  H   -0.000000  -0.000000  -0.000000   0.000000  -0.000000   0.000000
     5  H    0.000000  -0.000000  -0.000000  -0.000000  -0.000000   0.000000
     6  H   -0.000000   0.000000  -0.000000   0.000000   0.000000   0.000000
 Mulliken charges and spin densities:
               1          2
     1  C   -0.439286   0.000000
     2  S    0.254556  -0.000000
     3  N   -0.476484   0.000000
     4  H    0.231856  -0.000000
     5  H    0.226887  -0.000000
     6  H    0.202471  -0.000000
 Sum of Mulliken charges =  -0.00000   0.00000
 Mulliken charges and spin densities with hydrogens summed into heavy atoms:
               1          2
     1  C    0.019457  -0.000000
     2  S    0.254556  -0.000000
     3  N   -0.274014   0.000000
 Electronic spatial extent (au):  <R**2>=            821.6654
 Charge=             -0.0000 electrons
 Dipole moment (field-independent basis, Debye):
    X=             -2.5157    Y=             -0.2390    Z=             -0.0976  Tot=              2.5289
 Quadrupole moment (field-independent basis, Debye-Ang):
   XX=            -38.8362   YY=            -24.5443   ZZ=            -25.9557
   XY=             -3.1328   XZ=             -1.8845   YZ=              1.8308
 Traceless Quadrupole moment (field-independent basis, Debye-Ang):
   XX=             -9.0574   YY=              5.2344   ZZ=              3.8230
   XY=             -3.1328   XZ=             -1.8845   YZ=              1.8308
 Octapole moment (field-independent basis, Debye-Ang**2):
  XXX=           -231.8027  YYY=            -28.0666  ZZZ=            -19.4201  XYY=            -58.9836
  XXY=            -28.0161  XXZ=            -17.2320  XZZ=            -58.8760  YZZ=             -8.6039
  YYZ=             -2.9541  XYZ=              0.5907
 Hexadecapole moment (field-independent basis, Debye-Ang**3):
 XXXX=          -1192.8188 YYYY=            -94.5112 ZZZZ=            -61.6530 XXXY=           -174.6780
 XXXZ=           -107.3817 YYYX=            -88.3804 YYYZ=            -13.0970 ZZZX=            -58.3347
 ZZZY=            -19.9530 XXYY=           -190.5874 XXZZ=           -175.4752 YYZZ=            -21.7500
 XXYZ=            -13.8996 YYXZ=            -11.7539 ZZXY=            -27.7371
 N-N= 1.020311797422D+02 E-N=-1.370852816080D+03  KE= 4.916218478381D+02
 There are a total of      136914 grid points.
 ElSum from          density=       32.0000001698
 ElSum from atomic densities=       32.0000004807

 Hirshfeld populations at iteration   1 (CX, CA, CB, DipXYZ):
               1          2          3          4          5          6
     1  C    0.000000   3.064271   3.064271  -0.086137   0.021297   0.016164
     2  S    0.000004   7.889237   7.889237   0.014609   0.019693   0.012690
     3  N    0.000008   3.641895   3.641895  -0.224609   0.028999   0.024600
     4  H    0.000001   0.475746   0.475746  -0.090008  -0.121518  -0.078266
     5  H    0.000000   0.474241   0.474241  -0.090869   0.115081   0.078352
     6  H    0.000001   0.454610   0.454610  -0.106379   0.135450   0.092225
       Tot   0.000013  16.000000  16.000000  -0.583394   0.199001   0.145764

 Dip from Atomic Chgs             -0.406349  -0.293042  -0.184145
         Total Dipole             -0.989743  -0.094041  -0.038381

 Hirshfeld charges, spin densities, dipoles, and CM5 charges using IRadAn=      5:
              Q-H        S-H        Dx         Dy         Dz        Q-CM5   
     1  C   -0.128542  -0.000000  -0.086137   0.021297   0.016164  -0.204161
     2  S    0.221526   0.000000   0.014609   0.019693   0.012690   0.266174
     3  N   -0.283790   0.000000  -0.224609   0.028999   0.024600  -0.547151
     4  H    0.048507   0.000000  -0.090008  -0.121518  -0.078266   0.102427
     5  H    0.051518  -0.000000  -0.090869   0.115081   0.078352   0.105219
     6  H    0.090781   0.000000  -0.106379   0.135450   0.092225   0.277492
       Tot  -0.000000   0.000000  -0.583394   0.199001   0.145764  -0.000000
 Hirshfeld charges and spin densities with hydrogens summed into heavy atoms:
              Q-H        S-H       Q-CM5   
     1  C   -0.028517  -0.000000   0.003485
     2  S    0.221526   0.000000   0.266174
     3  N   -0.193009   0.000000  -0.269659
 
 EQQ= 0.352065275909E-29 EQD=-0.283321831250E-15 EDD= 0.619843641044E-02
[...]
    64    S    2  dxy    Ryd( 5d)     0.00003       1.74815
    65    S    2  dxz    Ryd( 4d)     0.01033       0.69805
    66    S    2  dxz    Ryd( 3d)     0.00012       0.55679
    67    S    2  dxz    Ryd( 5d)     0.00003       1.60511
    68    S    2  dyz    Ryd( 4d)     0.00399       0.65574
    69    S    2  dyz    Ryd( 3d)     0.00019       0.61856
    70    S    2  dyz    Ryd( 5d)     0.00003       1.68898
    71    S    2  dx2y2  Ryd( 4d)     0.01070       0.92923
    72    S    2  dx2y2  Ryd( 3d)     0.00013       0.68902
    73    S    2  dx2y2  Ryd( 5d)     0.00003       1.86805
    74    S    2  dz2    Ryd( 4d)     0.00675       0.65961
    75    S    2  dz2    Ryd( 3d)     0.00011       0.53194
    76    S    2  dz2    Ryd( 5d)     0.00001       1.61261
    77    S    2  f(0)   Ryd( 4f)     0.00007       2.08389
    78    S    2  f(C1)  Ryd( 4f)     0.00014       2.18296
    79    S    2  f(S1)  Ryd( 4f)     0.00007       2.00796
    80    S    2  f(C2)  Ryd( 4f)     0.00009       2.25955
    81    S    2  f(S2)  Ryd( 4f)     0.00010       2.20751
    82    S    2  f(C3)  Ryd( 4f)     0.00020       2.42464
    83    S    2  f(S3)  Ryd( 4f)     0.00010       2.46691
 
    84    N    3  S      Cor( 1S)     0.99985     -14.17130
    85    N    3  S      Val( 2S)     0.79963      -0.66651
    86    N    3  S      Ryd( 3S)     0.00101       0.95775
    87    N    3  S      Ryd( 4S)     0.00007       1.04012
    88    N    3  S      Ryd( 5S)     0.00001       4.93008
    89    N    3  S      Ryd( 6S)     0.00000      29.35008
    90    N    3  px     Val( 2p)     0.80261      -0.23805
    91    N    3  px     Ryd( 3p)     0.00141       0.61903
    92    N    3  px     Ryd( 4p)     0.00008       2.60655
    93    N    3  py     Val( 2p)     0.65115      -0.21945
    94    N    3  py     Ryd( 3p)     0.00150       0.65373
    95    N    3  py     Ryd( 4p)     0.00005       2.81535
    96    N    3  pz     Val( 2p)     0.71317      -0.22321
    97    N    3  pz     Ryd( 3p)     0.00137       0.55656
    98    N    3  pz     Ryd( 4p)     0.00002       2.52461
    99    N    3  dxy    Ryd( 3d)     0.00590       1.35028
   100    N    3  dxy    Ryd( 4d)     0.00013       1.59176
   101    N    3  dxy    Ryd( 5d)     0.00001       4.25676
   102    N    3  dxz    Ryd( 3d)     0.00450       1.12664
   103    N    3  dxz    Ryd( 4d)     0.00006       1.52653
   104    N    3  dxz    Ryd( 5d)     0.00001       4.09509
   105    N    3  dyz    Ryd( 3d)     0.00231       1.20368
   106    N    3  dyz    Ryd( 4d)     0.00007       1.69034
   107    N    3  dyz    Ryd( 5d)     0.00002       4.14632
   108    N    3  dx2y2  Ryd( 3d)     0.00396       1.09067
   109    N    3  dx2y2  Ryd( 4d)     0.00003       1.63242
   110    N    3  dx2y2  Ryd( 5d)     0.00003       4.00761
   111    N    3  dz2    Ryd( 3d)     0.00241       1.04161
   112    N    3  dz2    Ryd( 4d)     0.00003       1.56742
   113    N    3  dz2    Ryd( 5d)     0.00001       3.99538
   114    N    3  f(0)   Ryd( 4f)     0.00008       4.31843
   115    N    3  f(C1)  Ryd( 4f)     0.00001       4.12474
   116    N    3  f(S1)  Ryd( 4f)     0.00011       4.21090
   117    N    3  f(C2)  Ryd( 4f)     0.00004       4.17677
   118    N    3  f(S2)  Ryd( 4f)     0.00011       4.62317
   119    N    3  f(C3)  Ryd( 4f)     0.00003       4.40826
   120    N    3  f(S3)  Ryd( 4f)     0.00001       4.30692
 
   121    H    4  S      Val( 1S)     0.38178      -0.00737
   122    H    4  S      Ryd( 2S)     0.00035       1.23092
   123    H    4  S      Ryd( 3S)     0.00003       1.34616
   124    H    4  px     Ryd( 2p)     0.00024       0.50924
   125    H    4  px     Ryd( 3p)     0.00003       2.35021
   126    H    4  py     Ryd( 2p)     0.00078       0.46702
   127    H    4  py     Ryd( 3p)     0.00006       2.51103
   128    H    4  pz     Ryd( 2p)     0.00104       0.40112
   129    H    4  pz     Ryd( 3p)     0.00004       2.22053
 
   130    H    5  S      Val( 1S)     0.38811      -0.01087
   131    H    5  S      Ryd( 3S)     0.00056       1.37271
   132    H    5  S      Ryd( 2S)     0.00004       1.18264
   133    H    5  px     Ryd( 2p)     0.00015       0.51736
   134    H    5  px     Ryd( 3p)     0.00003       2.38385
   135    H    5  py     Ryd( 2p)     0.00066       0.48791
   136    H    5  py     Ryd( 3p)     0.00006       2.48848
   137    H    5  pz     Ryd( 2p)     0.00047       0.41400
   138    H    5  pz     Ryd( 3p)     0.00005       2.24611
 
   139    H    6  S      Val( 1S)     0.32516       0.05425
   140    H    6  S      Ryd( 3S)     0.00047       1.78765
   141    H    6  S      Ryd( 2S)     0.00008       1.09978
   142    H    6  px     Ryd( 2p)     0.00031       0.77462
   143    H    6  px     Ryd( 3p)     0.00003       2.25488
   144    H    6  py     Ryd( 2p)     0.00036       0.65207
   145    H    6  py     Ryd( 3p)     0.00006       2.30686
   146    H    6  pz     Ryd( 2p)     0.00045       0.59436
   147    H    6  pz     Ryd( 3p)     0.00004       2.07395

 WARNING:  Population inversion found on atom  C    1
           Population inversion found on atom  S    2
           Population inversion found on atom  H    5
           Population inversion found on atom  H    6


 Summary of Natural Population Analysis:                  
                                                          
                                       Natural Population 
                Natural  -----------------------------------------------
    Atom  No    Charge         Core      Valence    Rydberg      Total
 -----------------------------------------------------------------------
      C    1   -0.39650      0.99977     2.38271    0.01402     3.39650
      S    2    0.48979      4.99927     2.44986    0.06108     7.51021
      N    3   -0.49181      0.99985     2.96656    0.02540     3.99181
      H    4    0.11562      0.00000     0.38178    0.00259     0.38438
      H    5    0.10986      0.00000     0.38811    0.00203     0.39014
      H    6    0.17304      0.00000     0.32516    0.00180     0.32696
 =======================================================================
   * Total *    0.00000      6.99890     8.89418    0.10692    16.00000

                                 Natural Population      
 --------------------------------------------------------
   Core                       6.99890 ( 99.9843% of   7)
   Valence                    8.89418 ( 98.8242% of   9)
   Natural Minimal Basis     15.89308 ( 99.3318% of  16)
   Natural Rydberg Basis      0.10692 (  0.6682% of  16)
 --------------------------------------------------------

    Atom  No          Natural Electron Configuration
 ----------------------------------------------------------------------------
      C    1      [core]2S( 0.60)2p( 1.78)4d( 0.01)
      S    2      [core]3S( 0.77)3p( 1.68)5S( 0.01)4d( 0.04)5p( 0.01)
      N    3      [core]2S( 0.80)2p( 2.17)3d( 0.02)
      H    4            1S( 0.38)
      H    5            1S( 0.39)
      H    6            1S( 0.33)


 NBO analysis skipped by request.
 Leave Link  607 at Tue Jan  3 09:08:07 2023, MaxMem=   536870912 cpu:               3.6 elap:               1.8
 (Enter /opt/software/gaussian/g16.c01/l701.exe)
 ... and contract with generalized density number  0.
 Compute integral first derivatives.
 Leave Link  701 at Tue Jan  3 09:08:07 2023, MaxMem=   536870912 cpu:               0.3 elap:               0.2
 (Enter /opt/software/gaussian/g16.c01/l702.exe)
 L702 exits ... SP integral derivatives will be done elsewhere.
 Leave Link  702 at Tue Jan  3 09:08:07 2023, MaxMem=   536870912 cpu:               0.1 elap:               0.0
 (Enter /opt/software/gaussian/g16.c01/l703.exe)
 Integral derivatives from FoFJK, PRISM(SPDF).
 Compute integral first derivatives, UseDBF=F ICtDFT=           0.
 Calling FoFJK, ICntrl=      2127 FMM=F ISym2X=0 I1Cent= 0 IOpClX= 1 NMat=1 NMatS=1 NMatT=0.
 FoFJK:  IHMeth= 1 ICntrl=    2127 DoSepK=F KAlg= 0 I1Cent=           0 FoldK=F
 IRaf=         0 NMat=       1 IRICut=       1 DoRegI=T DoRafI=F ISym2E= 0 IDoP0=0 IntGTp=1.
 FoFCou: FMM=F IPFlag=           0 FMFlag=      100000 FMFlg1=         800
         NFxFlg=           0 DoJE=F BraDBF=F KetDBF=F FulRan=T
         wScrn=  0.000000 ICntrl=      2127 IOpCl=  1 I1Cent=           0 NGrid=           0
         NMat0=    1 NMatS0=      1 NMatT0=    0 NMatD0=    1 NMtDS0=    0 NMtDT0=    0
 Symmetry not used in FoFCou.
 Leave Link  703 at Tue Jan  3 09:08:15 2023, MaxMem=   536870912 cpu:              15.2 elap:               7.6
 (Enter /opt/software/gaussian/g16.c01/l716.exe)
 Dipole        =-9.89742399D-01-9.40400696D-02-3.83821239D-02
 -------------------------------------------------------------------
 Center     Atomic                   Forces (Hartrees/Bohr)
 Number     Number              X              Y              Z
 -------------------------------------------------------------------
      1        6          -0.002724801   -0.001150991   -0.000693243
      2       16          -0.000384262    0.006593226    0.004366479
      3        7          -0.002532908   -0.003970990   -0.002562440
      4        1           0.002115600    0.004674280    0.003043739
      5        1           0.002570247   -0.004926551   -0.003323034
      6        1           0.000956124   -0.001218974   -0.000831501
 -------------------------------------------------------------------
 Cartesian Forces:  Max     0.006593226 RMS     0.003173369
 Z-matrix is all fixed cartesians, so copy forces.
 Force constants in Cartesian coordinates: 
                1             2             3             4             5 
      1  0.814685D+00
      2 -0.103178D-01  0.489891D+00
      3 -0.236660D-01  0.249297D+00  0.279166D+00
      4 -0.473219D+00  0.285194D-01  0.292131D-01  0.664394D+00
      5  0.961866D-02 -0.824860D-01 -0.267353D-01  0.176381D+00  0.396780D+00
      6  0.167037D-01 -0.271885D-01 -0.608333D-01  0.101780D+00  0.230703D+00
      7 -0.980132D-03 -0.200337D-01 -0.128629D-01 -0.210895D+00 -0.175482D+00
      8  0.308076D-03  0.143332D-01 -0.733807D-03 -0.217229D+00 -0.336130D+00
      9  0.597737D-03 -0.245367D-03  0.152527D-01 -0.139479D+00 -0.196571D+00
     10 -0.163349D+00 -0.915366D-01 -0.575233D-01 -0.926052D-03 -0.186700D-01
     11 -0.836129D-01 -0.214907D+00 -0.116374D+00  0.389598D-03  0.844345D-02
     12 -0.522783D-01 -0.116182D+00 -0.111677D+00  0.307294D-03  0.528464D-02
     13 -0.177134D+00  0.932947D-01  0.649511D-01  0.905791D-03  0.178651D-01
     14  0.839304D-01 -0.204801D+00 -0.108521D+00  0.246077D-03  0.152696D-01
     15  0.587541D-01 -0.108748D+00 -0.117275D+00  0.611040D-03 -0.327945D-02
     16 -0.268673D-05  0.740782D-04 -0.111937D-03  0.197412D-01 -0.971277D-02
     17  0.736242D-04 -0.202996D-02  0.306739D-02  0.116927D-01 -0.187726D-02
     18 -0.111233D-03  0.306689D-02 -0.463426D-02  0.756733D-02 -0.940153D-02
                6             7             8             9            10 
      6  0.192015D+00
      7 -0.111851D+00  0.406134D+00
      8 -0.195565D+00  0.534271D-01  0.531518D+00
      9 -0.159476D+00  0.263756D-01  0.328043D+00  0.250445D+00
     10 -0.123067D-01  0.228968D-05 -0.631307D-04  0.953945D-04  0.135830D+00
     11  0.482750D-02 -0.631368D-04  0.174080D-02 -0.263045D-02  0.957457D-01
     12  0.462508D-02  0.953981D-04 -0.263030D-02  0.397455D-02  0.605513D-01
     13  0.122731D-01 -0.247110D-05  0.681327D-04 -0.102953D-03  0.284430D-01
     14 -0.285735D-02  0.681506D-04 -0.187904D-02  0.283934D-02  0.145241D-01
     15  0.173925D-01 -0.102963D-03  0.283889D-02 -0.428974D-02  0.918329D-02
     16 -0.659932D-02 -0.194258D+00  0.163489D+00  0.112513D+00  0.000000D+00
     17 -0.991929D-02  0.142084D+00 -0.209584D+00 -0.131436D+00  0.000000D+00
     18  0.627668D-02  0.983460D-01 -0.131953D+00 -0.105907D+00  0.000000D+00
               11            12            13            14            15 
     11  0.207851D+00
     12  0.122960D+00  0.985155D-01
     13 -0.124593D-01 -0.867575D-02  0.147787D+00
     14 -0.312790D-02 -0.943229D-02 -0.987686D-01  0.194538D+00
     15 -0.878307D-02  0.456134D-02 -0.684455D-01  0.117972D+00  0.996107D-01
     16  0.000000D+00  0.000000D+00  0.000000D+00  0.000000D+00  0.000000D+00
     17  0.000000D+00  0.000000D+00  0.000000D+00  0.000000D+00  0.000000D+00
     18  0.000000D+00  0.000000D+00  0.000000D+00  0.000000D+00  0.000000D+00
               16            17            18 
     16  0.174519D+00
     17 -0.153850D+00  0.213491D+00
     18 -0.105802D+00  0.138288D+00  0.104265D+00
 Leave Link  716 at Tue Jan  3 09:08:15 2023, MaxMem=   536870912 cpu:               0.1 elap:               0.0
 (Enter /opt/software/gaussian/g16.c01/l103.exe)

 GradGradGradGradGradGradGradGradGradGradGradGradGradGradGradGradGradGrad
 Berny optimization.
 Search for a local minimum.
 Step number   1 out of a maximum of    2
 All quantities printed in internal units (Hartrees-Bohrs-Radians)
 Second derivative matrix not updated -- first step.
 The second derivative matrix:
                          X1        Y1        Z1        X2        Y2
           X1           0.81469
           Y1          -0.01032   0.48989
           Z1          -0.02367   0.24930   0.27917
           X2          -0.47322   0.02852   0.02921   0.66439
           Y2           0.00962  -0.08249  -0.02674   0.17638   0.39678
           Z2           0.01670  -0.02719  -0.06083   0.10178   0.23070
           X3          -0.00098  -0.02003  -0.01286  -0.21090  -0.17548
           Y3           0.00031   0.01433  -0.00073  -0.21723  -0.33613
           Z3           0.00060  -0.00025   0.01525  -0.13948  -0.19657
           X4          -0.16335  -0.09154  -0.05752  -0.00093  -0.01867
           Y4          -0.08361  -0.21491  -0.11637   0.00039   0.00844
           Z4          -0.05228  -0.11618  -0.11168   0.00031   0.00528
           X5          -0.17713   0.09329   0.06495   0.00091   0.01787
           Y5           0.08393  -0.20480  -0.10852   0.00025   0.01527
           Z5           0.05875  -0.10875  -0.11727   0.00061  -0.00328
           X6          -0.00000   0.00007  -0.00011   0.01974  -0.00971
           Y6           0.00007  -0.00203   0.00307   0.01169  -0.00188
           Z6          -0.00011   0.00307  -0.00463   0.00757  -0.00940
                          Z2        X3        Y3        Z3        X4
           Z2           0.19201
           X3          -0.11185   0.40613
           Y3          -0.19556   0.05343   0.53152
           Z3          -0.15948   0.02638   0.32804   0.25045
           X4          -0.01231   0.00000  -0.00006   0.00010   0.13583
           Y4           0.00483  -0.00006   0.00174  -0.00263   0.09575
           Z4           0.00463   0.00010  -0.00263   0.00397   0.06055
           X5           0.01227  -0.00000   0.00007  -0.00010   0.02844
           Y5          -0.00286   0.00007  -0.00188   0.00284   0.01452
           Z5           0.01739  -0.00010   0.00284  -0.00429   0.00918
           X6          -0.00660  -0.19426   0.16349   0.11251   0.00000
           Y6          -0.00992   0.14208  -0.20958  -0.13144   0.00000
           Z6           0.00628   0.09835  -0.13195  -0.10591   0.00000
                          Y4        Z4        X5        Y5        Z5
           Y4           0.20785
           Z4           0.12296   0.09852
           X5          -0.01246  -0.00868   0.14779
           Y5          -0.00313  -0.00943  -0.09877   0.19454
           Z5          -0.00878   0.00456  -0.06845   0.11797   0.09961
           X6           0.00000   0.00000   0.00000   0.00000   0.00000
           Y6           0.00000   0.00000   0.00000   0.00000   0.00000
           Z6           0.00000   0.00000   0.00000   0.00000   0.00000
                          X6        Y6        Z6
           X6           0.17452
           Y6          -0.15385   0.21349
           Z6          -0.10580   0.13829   0.10426
 ITU=  0
     Eigenvalues ---    0.01003   0.01738   0.04698   0.06571   0.11631
     Eigenvalues ---    0.13625   0.18094   0.33456   0.69321   0.85789
     Eigenvalues ---    1.12959   1.46007
 Angle between quadratic step and forces=  60.82 degrees.
 Linear search not attempted -- first point.
 B after Tr=    -0.003831    0.005303    0.003593
         Rot=    1.000000   -0.000003   -0.000092    0.000137 Ang=  -0.02 deg.
 Variable       Old X    -DE/DX   Delta X   Delta X   Delta X     New X
                                 (Linear)    (Quad)   (Total)
    X1        1.67863  -0.00272   0.00000  -0.00778  -0.01150   1.66713
    Y1        0.26878  -0.00115   0.00000  -0.00671  -0.00187   0.26692
    Z1        0.20584  -0.00069   0.00000  -0.00425  -0.00096   0.20488
    X2        4.73702  -0.00038   0.00000  -0.01094  -0.01470   4.72232
    Y2        0.19685   0.00659   0.00000   0.01570   0.01971   0.21656
    Z2        0.08483   0.00437   0.00000   0.01061   0.01333   0.09816
    X3        6.24222  -0.00253   0.00000   0.01447   0.01155   6.25376
    Y3        2.32417  -0.00397   0.00000  -0.00657  -0.00298   2.32119
    Z3        1.45653  -0.00256   0.00000  -0.00464  -0.00219   1.45434
    X4        0.70917   0.00212   0.00000   0.01106   0.00674   0.71590
    Y4       -1.25730   0.00467   0.00000   0.00115   0.00626  -1.25104
    Z4       -0.78089   0.00304   0.00000   0.00056   0.00401  -0.77688
    X5        0.61279   0.00257   0.00000  -0.02110  -0.02425   0.58855
    Y5        1.72884  -0.00493   0.00000  -0.03158  -0.02644   1.70240
    Z5        1.19782  -0.00332   0.00000  -0.02042  -0.01693   1.18090
    X6        5.12842   0.00096   0.00000   0.03456   0.03216   5.16058
    Y6        3.62850  -0.00122   0.00000   0.00145   0.00533   3.63382
    Z6        2.34676  -0.00083   0.00000   0.00008   0.00273   2.34949
         Item               Value     Threshold  Converged?
 Maximum Force            0.006593     0.000450     NO 
 RMS     Force            0.003173     0.000300     NO 
 Maximum Displacement     0.032161     0.001800     NO 
 RMS     Displacement     0.014549     0.001200     NO 
 Predicted change in Energy=-2.090421D-04
 GradGradGradGradGradGradGradGradGradGradGradGradGradGradGradGradGradGrad

 Leave Link  103 at Tue Jan  3 09:08:15 2023, MaxMem=   536870912 cpu:               0.0 elap:               0.0
 (Enter /opt/software/gaussian/g16.c01/l9999.exe)
 Unable to Open any file for archive entry.
 1\1\GINC-GRA1076\Force\UB3LYP\Gen\C1H3N1S1\BHAVUK\03-Jan-2023\0\\#p ub
 3lyp/chkbasis force guess=read geom=check scf=(maxcycle=900,verytightl
 ineq,xqc) integral=grid=ultrafine symmetry=None density=current pop=(c
 m5,hlygat,mbs,npa) output=wfx\\0004_q000_m01_k00_opt_uwb97xd_def2svpd/
 0004_q000_m01_k00_force_ub3lyp_def2tzvpd stable-force\\0,1\C,0.8882935
 141,0.1422345627,0.1089263123\S,2.5067242222,0.1041696479,0.0448895292
 \N,3.3032398974,1.2298974173,0.7707622237\H,0.3752741579,-0.6653344173
 ,-0.4132293362\H,0.3242760911,0.9148647349,0.6338600998\H,2.7138421188
 ,1.9201180545,1.2418511706\\Version=ES64L-G16RevC.01\HF=-492.8542423\S
 2=0.\S2-1=0.\S2A=0.\RMSD=1.032e-09\RMSF=3.173e-03\Dipole=-0.9897424,-0
 .0940401,-0.0383821\Quadrupole=-6.7339913,3.8916524,2.8423389,-2.32919
 67,-1.4010881,1.3611642\PG=Unknown\\@
 The archive entry for this job was punched.

 Writing a WFNX file to "0004_q000_m01_k00_force_ub3lyp_def2tzvpd.wfx"


 The earth never tires,
 The earth is rude, silent, incomprehensible at first,
 Nature is rude and incomprehensible at first,
 Be not discouraged, keep on,
 There are divine things well envelop'd,
 I swear to you there are divine things more beautiful than words can tell.
                                 -- Walt Whitman
 Job cpu time:       0 days  0 hours  0 minutes 30.7 seconds.
 Elapsed time:       0 days  0 hours  0 minutes 15.2 seconds.
 File lengths (MBytes):  RWF=     20 Int=      0 D2E=      0 Chk=      4 Scr=      1
 Normal termination of Gaussian 16 at Tue Jan  3 09:08:15 2023.
