 Entering Gaussian System, Link 0=g16
 Input=0004_q000_m01_k00_force_uwb97xd_def2tzvpd.com
 Output=0004_q000_m01_k00_force_uwb97xd_def2tzvpd.log
 Initial command:
 /opt/software/gaussian/g16.c01/l1.exe "/localscratch/bhavuk.2151409.0/Gau-7359.inp" -scrdir="/localscratch/bhavuk.2151409.0/"
 Entering Link 1 = /opt/software/gaussian/g16.c01/l1.exe PID=      7360.
  
 Copyright (c) 1988-2019, Gaussian, Inc.  All Rights Reserved.
  
 This is part of the Gaussian(R) 16 program.  It is based on
 the Gaussian(R) 09 system (copyright 2009, Gaussian, Inc.),
 the Gaussian(R) 03 system (copyright 2003, Gaussian, Inc.),
 the Gaussian(R) 98 system (copyright 1998, Gaussian, Inc.),
 the Gaussian(R) 94 system (copyright 1995, Gaussian, Inc.),
 the Gaussian 92(TM) system (copyright 1992, Gaussian, Inc.),
 the Gaussian 90(TM) system (copyright 1990, Gaussian, Inc.),
 the Gaussian 88(TM) system (copyright 1988, Gaussian, Inc.),
 the Gaussian 86(TM) system (copyright 1986, Carnegie Mellon
 University), and the Gaussian 82(TM) system (copyright 1983,
 Carnegie Mellon University). Gaussian is a federally registered
 trademark of Gaussian, Inc.
  
 This software contains proprietary and confidential information,
 including trade secrets, belonging to Gaussian, Inc.
  
 This software is provided under written license and may be
 used, copied, transmitted, or stored only in accord with that
 written license.
  
 The following legend is applicable only to US Government
 contracts under FAR:
  
                    RESTRICTED RIGHTS LEGEND
  
 Use, reproduction and disclosure by the US Government is
 subject to restrictions as set forth in subparagraphs (a)
 and (c) of the Commercial Computer Software - Restricted
 Rights clause in FAR 52.227-19.
  
 Gaussian, Inc.
 340 Quinnipiac St., Bldg. 40, Wallingford CT 06492
  
  
 ---------------------------------------------------------------
 Warning -- This program may not be used in any manner that
 competes with the business of Gaussian, Inc. or will provide
 assistance to any competitor of Gaussian, Inc.  The licensee
 of this program is prohibited from giving any competitor of
 Gaussian, Inc. access to this program.  By using this program,
 the user acknowledges that Gaussian, Inc. is engaged in the
 business of creating and licensing software in the field of
 computational chemistry and represents and warrants to the
 licensee that it is not a competitor of Gaussian, Inc. and that
 it will not use this program in any manner prohibited above.
 ---------------------------------------------------------------
  

 Cite this work as:
 Gaussian 16, Revision C.01,
 M. J. Frisch, G. W. Trucks, H. B. Schlegel, G. E. Scuseria, 
 M. A. Robb, J. R. Cheeseman, G. Scalmani, V. Barone, 
 G. A. Petersson, H. Nakatsuji, X. Li, M. Caricato, A. V. Marenich, 
 J. Bloino, B. G. Janesko, R. Gomperts, B. Mennucci, H. P. Hratchian, 
 J. V. Ortiz, A. F. Izmaylov, J. L. Sonnenberg, D. Williams-Young, 
 F. Ding, F. Lipparini, F. Egidi, J. Goings, B. Peng, A. Petrone, 
 T. Henderson, D. Ranasinghe, V. G. Zakrzewski, J. Gao, N. Rega, 
 G. Zheng, W. Liang, M. Hada, M. Ehara, K. Toyota, R. Fukuda, 
 J. Hasegawa, M. Ishida, T. Nakajima, Y. Honda, O. Kitao, H. Nakai, 
 T. Vreven, K. Throssell, J. A. Montgomery, Jr., J. E. Peralta, 
 F. Ogliaro, M. J. Bearpark, J. J. Heyd, E. N. Brothers, K. N. Kudin, 
 V. N. Staroverov, T. A. Keith, R. Kobayashi, J. Normand, 
 K. Raghavachari, A. P. Rendell, J. C. Burant, S. S. Iyengar, 
 J. Tomasi, M. Cossi, J. M. Millam, M. Klene, C. Adamo, R. Cammi, 
 J. W. Ochterski, R. L. Martin, K. Morokuma, O. Farkas, 
 J. B. Foresman, and D. J. Fox, Gaussian, Inc., Wallingford CT, 2019.
 
 ******************************************
 Gaussian 16:  ES64L-G16RevC.01  3-Jul-2019
                 3-Jan-2023 
 ******************************************
 %chk=0004_q000_m01_k00_force_uwb97xd_def2tzvpd.chk
 %nprocshared=2
 Will use up to    2 processors via shared memory.
 %mem=4GB
 ----------------------------------------------------------------------
 #p uwb97xd/gen stable=opt scf=(maxcycle=900,verytightlineq,xqc) integr
 al=grid=ultrafine symmetry=None density=current iop(99/18=-1) output=w
 fn
 ----------------------------------------------------------------------
 1/38=1,172=1/1;
 2/12=2,15=3,17=6,18=5,40=1/2;
 3/5=7,11=2,25=1,30=1,74=-58,75=-5,116=2/1,2,3;
 4//1;
 5/5=2,7=900,8=3,13=1,17=3,38=5/2,8;
 6/7=2,8=2,9=2,10=2,22=-1,28=1/1;
 8/6=1,10=90,11=11/1;
 9/8=-3,42=1,46=1/14;
 5/5=2,7=900,8=3,17=43,38=5/8(-2);
 6/7=2,8=2,9=2,10=2,22=-1,28=1/1;
 99/5=1,6=100,9=1,18=-1/99;
 Leave Link    1 at Tue Jan  3 09:06:57 2023, MaxMem=   536870912 cpu:               0.1 elap:               0.1
 (Enter /opt/software/gaussian/g16.c01/l101.exe)
 ----------------------------------------------------------------------
 0004_q000_m01_k00_opt_uwb97xd_def2svpd/0004_q000_m01_k00_force_uwb97xd
 _def2tzvpd stable-force
 ----------------------------------------------------------------------
 Symbolic Z-matrix:
 Charge =  0 Multiplicity = 1
 C                     0.88829   0.14223   0.10893 
 S                     2.50672   0.10417   0.04489 
 N                     3.30324   1.2299    0.77076 
 H                     0.37527  -0.66533  -0.41323 
 H                     0.32428   0.91486   0.63386 
 H                     2.71384   1.92012   1.24185 
 
 ITRead=  0  0  0  0  0  0
 MicOpt= -1 -1 -1 -1 -1 -1
 NAtoms=      6 NQM=        6 NQMF=       0 NMMI=      0 NMMIF=      0
                NMic=       0 NMicF=      0.
                    Isotopes and Nuclear Properties:
 (Nuclear quadrupole moments (NQMom) in fm**2, nuclear magnetic moments (NMagM)
  in nuclear magnetons)

  Atom         1           2           3           4           5           6
 IAtWgt=          12          32          14           1           1           1
 AtmWgt=  12.0000000  31.9720718  14.0030740   1.0078250   1.0078250   1.0078250
 NucSpn=           0           0           2           1           1           1
 AtZEff=  -0.0000000  -0.0000000  -0.0000000  -0.0000000  -0.0000000  -0.0000000
 NQMom=    0.0000000   0.0000000   2.0440000   0.0000000   0.0000000   0.0000000
 NMagM=    0.0000000   0.0000000   0.4037610   2.7928460   2.7928460   2.7928460
 AtZNuc=   6.0000000  16.0000000   7.0000000   1.0000000   1.0000000   1.0000000
 Leave Link  101 at Tue Jan  3 09:06:57 2023, MaxMem=   536870912 cpu:               0.4 elap:               0.2
 (Enter /opt/software/gaussian/g16.c01/l202.exe)
                          Input orientation:                          
 ---------------------------------------------------------------------
 Center     Atomic      Atomic             Coordinates (Angstroms)
 Number     Number       Type             X           Y           Z
 ---------------------------------------------------------------------
      1          6           0        0.888294    0.142235    0.108926
      2         16           0        2.506724    0.104170    0.044890
      3          7           0        3.303240    1.229897    0.770762
      4          1           0        0.375274   -0.665334   -0.413229
      5          1           0        0.324276    0.914865    0.633860
      6          1           0        2.713842    1.920118    1.241851
 ---------------------------------------------------------------------
                    Distance matrix (angstroms):
                    1          2          3          4          5
     1  C    0.000000
     2  S    1.620144   0.000000
     3  N    2.730019   1.558394   0.000000
     4  H    1.089956   2.311945   3.683303   0.000000
     5  H    1.091159   2.401498   2.998702   1.896319   0.000000
     6  H    2.788730   2.184785   1.022604   3.859113   2.662745
                    6
     6  H    0.000000
 Symmetry turned off by external request.
 Stoichiometry    CH3NS
 Rotational constants (GHZ):          36.3131241           8.8290023           7.1022055
 Leave Link  202 at Tue Jan  3 09:06:58 2023, MaxMem=   536870912 cpu:               0.0 elap:               0.0
 (Enter /opt/software/gaussian/g16.c01/l301.exe)
 General basis read from cards:  (5D, 7F)
 Centers:       4      5      6
 S 3 1.00
     Exponent=  3.4061341000D+01 Coefficients=  6.0251978000D-03
     Exponent=  5.1235746000D+00 Coefficients=  4.5021094000D-02
     Exponent=  1.1646626000D+00 Coefficients=  2.0189726000D-01
 S 1 1.00
     Exponent=  3.2723041000D-01 Coefficients=  1.0000000000D+00
 S 1 1.00
     Exponent=  1.0307241000D-01 Coefficients=  1.0000000000D+00
 P 1 1.00
     Exponent=  8.0000000000D-01 Coefficients=  1.0000000000D+00
 P 1 1.00
     Exponent=  9.5774129632D-02 Coefficients=  1.0000000000D+00
 ****
 Centers:       1
 S 6 1.00
     Exponent=  1.3575349682D+04 Coefficients=  2.2245814352D-04
     Exponent=  2.0352333680D+03 Coefficients=  1.7232738252D-03
     Exponent=  4.6322562359D+02 Coefficients=  8.9255715314D-03
     Exponent=  1.3120019598D+02 Coefficients=  3.5727984502D-02
     Exponent=  4.2853015891D+01 Coefficients=  1.1076259931D-01
     Exponent=  1.5584185766D+01 Coefficients=  2.4295627626D-01
 S 2 1.00
     Exponent=  6.2067138508D+00 Coefficients=  4.1440263448D-01
     Exponent=  2.5764896527D+00 Coefficients=  2.3744968655D-01
 S 1 1.00
     Exponent=  5.7696339419D-01 Coefficients=  1.0000000000D+00
 S 1 1.00
     Exponent=  2.2972831358D-01 Coefficients=  1.0000000000D+00
 S 1 1.00
     Exponent=  9.5164440028D-02 Coefficients=  1.0000000000D+00
 S 1 1.00
     Exponent=  4.8475401370D-02 Coefficients=  1.0000000000D+00
 P 4 1.00
     Exponent=  3.4697232244D+01 Coefficients=  5.3333657805D-03
     Exponent=  7.9582622826D+00 Coefficients=  3.5864109092D-02
     Exponent=  2.3780826883D+00 Coefficients=  1.4215873329D-01
     Exponent=  8.1433208183D-01 Coefficients=  3.4270471845D-01
 P 1 1.00
     Exponent=  2.8887547253D-01 Coefficients=  4.6445822433D-01
 P 1 1.00
     Exponent=  1.0056823671D-01 Coefficients=  2.4955789874D-01
 D 1 1.00
     Exponent=  1.0970000000D+00 Coefficients=  1.0000000000D+00
 D 1 1.00
     Exponent=  3.1800000000D-01 Coefficients=  1.0000000000D+00
 D 1 1.00
     Exponent=  9.0985336424D-02 Coefficients=  1.0000000000D+00
 F 1 1.00
     Exponent=  7.6100000000D-01 Coefficients=  1.0000000000D+00
 ****
 Centers:       3
 S 6 1.00
     Exponent=  1.9730800647D+04 Coefficients=  2.1887984991D-04
     Exponent=  2.9578958745D+03 Coefficients=  1.6960708803D-03
     Exponent=  6.7322133595D+02 Coefficients=  8.7954603538D-03
     Exponent=  1.9068249494D+02 Coefficients=  3.5359382605D-02
     Exponent=  6.2295441898D+01 Coefficients=  1.1095789217D-01
     Exponent=  2.2654161182D+01 Coefficients=  2.4982972552D-01
 S 2 1.00
     Exponent=  8.9791477428D+00 Coefficients=  4.0623896148D-01
     Exponent=  3.6863002370D+00 Coefficients=  2.4338217176D-01
 S 1 1.00
     Exponent=  8.4660076805D-01 Coefficients=  1.0000000000D+00
 S 1 1.00
     Exponent=  3.3647133771D-01 Coefficients=  1.0000000000D+00
 S 1 1.00
     Exponent=  1.3647653675D-01 Coefficients=  1.0000000000D+00
 S 1 1.00
     Exponent=  6.8441605847D-02 Coefficients=  1.0000000000D+00
 P 4 1.00
     Exponent=  4.9200380510D+01 Coefficients=  5.5552416751D-03
     Exponent=  1.1346790537D+01 Coefficients=  3.8052379723D-02
     Exponent=  3.4273972411D+00 Coefficients=  1.4953671029D-01
     Exponent=  1.1785525134D+00 Coefficients=  3.4949305230D-01
 P 1 1.00
     Exponent=  4.1642204972D-01 Coefficients=  4.5843153697D-01
 P 1 1.00
     Exponent=  1.4260826011D-01 Coefficients=  2.4428771672D-01
 D 1 1.00
     Exponent=  1.6540000000D+00 Coefficients=  1.0000000000D+00
 D 1 1.00
     Exponent=  4.6900000000D-01 Coefficients=  1.0000000000D+00
 D 1 1.00
     Exponent=  1.2829642058D-01 Coefficients=  1.0000000000D+00
 F 1 1.00
     Exponent=  1.0930000000D+00 Coefficients=  1.0000000000D+00
 ****
 Centers:       2
 S 7 1.00
     Exponent=  6.0700928104D+04 Coefficients=  5.4695944225D-04
     Exponent=  9.1026106854D+03 Coefficients=  4.2297224557D-03
     Exponent=  2.0714166009D+03 Coefficients=  2.1747824159D-02
     Exponent=  5.8602476821D+02 Coefficients=  8.5100053589D-02
     Exponent=  1.9055395021D+02 Coefficients=  2.4799128459D-01
     Exponent=  6.7630384260D+01 Coefficients=  4.6703640406D-01
     Exponent=  2.5127306905D+01 Coefficients=  3.6434587550D-01
 S 3 1.00
     Exponent=  1.1257463010D+02 Coefficients=  2.1670040240D-02
     Exponent=  3.4795554217D+01 Coefficients=  9.3602301760D-02
     Exponent=  6.5115556215D+00 Coefficients= -2.6068001422D-01
 S 2 1.00
     Exponent=  3.2399032261D+00 Coefficients=  1.2842089435D+00
     Exponent=  1.5477160881D+00 Coefficients=  6.6036416584D-01
 S 1 1.00
     Exponent=  4.0541030112D-01 Coefficients=  1.0000000000D+00
 S 1 1.00
     Exponent=  1.4550651059D-01 Coefficients=  1.0000000000D+00
 S 1 1.00
     Exponent=  5.0178839540D-02 Coefficients=  1.0000000000D+00
 P 5 1.00
     Exponent=  5.6436716027D+02 Coefficients=  2.4796796317D-03
     Exponent=  1.3342624379D+02 Coefficients=  1.9677930250D-02
     Exponent=  4.2468271189D+01 Coefficients=  8.9980008258D-02
     Exponent=  1.5616527580D+01 Coefficients=  2.5705880575D-01
     Exponent=  6.1093988469D+00 Coefficients=  4.3515167292D-01
 P 1 1.00
     Exponent=  2.4404160198D+00 Coefficients=  3.4883240595D-01
 P 1 1.00
     Exponent=  8.3882201296D-01 Coefficients=  1.0000000000D+00
 P 1 1.00
     Exponent=  3.1288746900D-01 Coefficients=  1.0000000000D+00
 P 1 1.00
     Exponent=  1.0770109004D-01 Coefficients=  1.0000000000D+00
 P 1 1.00
     Exponent=  3.0359833649D-02 Coefficients=  1.0000000000D+00
 D 2 1.00
     Exponent=  3.7560000000D+00 Coefficients=  2.0000000000D-01
     Exponent=  8.1200000000D-01 Coefficients=  1.0000000000D+00
 D 1 1.00
     Exponent=  2.7300000000D-01 Coefficients=  1.0000000000D+00
 D 1 1.00
     Exponent=  8.1547024970D-02 Coefficients=  1.0000000000D+00
 F 1 1.00
     Exponent=  5.5700000000D-01 Coefficients=  1.0000000000D+00
 ****
 Ernie: Thresh=  0.10000D-02 Tol=  0.10000D-05 Strict=F.
   147 basis functions,   228 primitive gaussians,   165 cartesian basis functions
    16 alpha electrons       16 beta electrons
       nuclear repulsion energy       102.0311797422 Hartrees.
 IExCor= 4639 DFT=T Ex+Corr=wB97XD ExCW=0 ScaHFX=  1.000000
 ScaDFX=  1.000000  1.000000  1.000000  1.000000 ScalE2=  1.000000  1.000000
 IRadAn=      5 IRanWt=     -1 IRanGd=            0 ICorTp=0 IEmpDi=121
 HFx  wShort=  0.000000 wLong=  0.200000 cFull=  0.222036 cShort=  0.000000 cLong=  0.777964
 DFx  wShort=  0.000000 wLong=  0.200000 cFull=  0.000000 cShort=  0.000000 cLong=  1.000000
 NAtoms=    6 NActive=    6 NUniq=    6 SFac= 1.00D+00 NAtFMM=   60 NAOKFM=F Big=F
 Integral buffers will be    131072 words long.
 Raffenetti 2 integral format.
 Two-electron integral symmetry is turned off.
 R6Disp:  Grimme-D2 Dispersion energy=       -0.0009326667 Hartrees.
 Nuclear repulsion after empirical dispersion term =      102.0302470755 Hartrees.
 Leave Link  301 at Tue Jan  3 09:06:58 2023, MaxMem=   536870912 cpu:               0.2 elap:               0.1
 (Enter /opt/software/gaussian/g16.c01/l302.exe)
 NPDir=0 NMtPBC=     1 NCelOv=     1 NCel=       1 NClECP=     1 NCelD=      1
         NCelK=      1 NCelE2=     1 NClLst=     1 CellRange=     0.0.
 One-electron integrals computed using PRISM.
 NBasis=   147 RedAO= T EigKep=  5.38D-05  NBF=   147
 NBsUse=   147 1.00D-06 EigRej= -1.00D+00 NBFU=   147
 Precomputing XC quadrature grid using
 IXCGrd= 4 IRadAn=           5 IRanWt=          -1 IRanGd=           0 AccXCQ= 0.00D+00.
 Generated NRdTot=       0 NPtTot=           0 NUsed=           0 NTot=          32
 NSgBfM=   164   164   164   164   164 MxSgAt=     6 MxSgA2=     6.
 Leave Link  302 at Tue Jan  3 09:06:58 2023, MaxMem=   536870912 cpu:               0.4 elap:               0.2
 (Enter /opt/software/gaussian/g16.c01/l303.exe)
 DipDrv:  MaxL=1.
 Leave Link  303 at Tue Jan  3 09:06:58 2023, MaxMem=   536870912 cpu:               0.1 elap:               0.0
 (Enter /opt/software/gaussian/g16.c01/l401.exe)
 ExpMin= 3.04D-02 ExpMax= 6.07D+04 ExpMxC= 2.07D+03 IAcc=3 IRadAn=         5 AccDes= 0.00D+00
 Harris functional with IExCor= 4639 and IRadAn=       5 diagonalized for initial guess.
 HarFok:  IExCor= 4639 AccDes= 0.00D+00 IRadAn=         5 IDoV= 1 UseB2=F ITyADJ=14
 ICtDFT=  3500011 ScaDFX=  1.000000  1.000000  1.000000  1.000000
 FoFCou: FMM=F IPFlag=           0 FMFlag=      100000 FMFlg1=           0
         NFxFlg=           0 DoJE=T BraDBF=F KetDBF=T FulRan=T
         wScrn=  0.000000 ICntrl=       500 IOpCl=  0 I1Cent=   200000004 NGrid=           0
         NMat0=    1 NMatS0=      1 NMatT0=    0 NMatD0=    1 NMtDS0=    0 NMtDT0=    0
 Symmetry not used in FoFCou.
 Harris En= -481.766509411430    
 JPrj=0 DoOrth=F DoCkMO=F.
 Initial guess <Sx>= 0.0000 <Sy>= 0.0000 <Sz>= 0.0000 <S**2>=-0.0000 S=-0.0000
 Leave Link  401 at Tue Jan  3 09:06:59 2023, MaxMem=   536870912 cpu:               1.7 elap:               0.9
 (Enter /opt/software/gaussian/g16.c01/l502.exe)
 Keep R1 and R2 ints in memory in canonical form, NReq=240591978.
 FoFCou: FMM=F IPFlag=           0 FMFlag=           0 FMFlg1=           0
         NFxFlg=           0 DoJE=F BraDBF=F KetDBF=F FulRan=T
         wScrn=  0.000000 ICntrl=       600 IOpCl=  0 I1Cent=           0 NGrid=           0
         NMat0=    1 NMatS0=  10878 NMatT0=    0 NMatD0=    1 NMtDS0=    0 NMtDT0=    0
 Symmetry not used in FoFCou.
 Two-electron integral symmetry not used.
 UHF open shell SCF:
 Using DIIS extrapolation, IDIIS=  1040.
 NGot=   536870912 LenX=   300130645 LenY=   300102979
 Requested convergence on RMS density matrix=1.00D-08 within 128 cycles.
 Requested convergence on MAX density matrix=1.00D-06.
 Requested convergence on             energy=1.00D-06.
 No special actions if energy rises.

 Cycle   1  Pass 1  IDiag  1:
 E= -492.590300931071    
 DIIS: error= 5.62D-02 at cycle   1 NSaved=   1.
 NSaved= 1 IEnMin= 1 EnMin= -492.590300931071     IErMin= 1 ErrMin= 5.62D-02
 ErrMax= 5.62D-02  0.00D+00 EMaxC= 1.00D-01 BMatC= 3.11D+00 BMatP= 3.11D+00
 IDIUse=3 WtCom= 4.38D-01 WtEn= 5.62D-01
 Coeff-Com:  0.100D+01
 Coeff-En:   0.100D+01
 Coeff:      0.100D+01
 Gap=     0.243 Goal=   None    Shift=    0.000
 Gap=     0.243 Goal=   None    Shift=    0.000
 GapD=    0.243 DampG=1.000 DampE=0.500 DampFc=0.5000 IDamp=-1.
 Damping current iteration by 5.00D-01
 RMSDP=6.39D-03 MaxDP=3.14D-01              OVMax= 2.58D-01

 Cycle   2  Pass 1  IDiag  1:
 E= -492.689830498526     Delta-E=       -0.099529567455 Rises=F Damp=T
 DIIS: error= 2.31D-02 at cycle   2 NSaved=   2.
 NSaved= 2 IEnMin= 2 EnMin= -492.689830498526     IErMin= 2 ErrMin= 2.31D-02
 ErrMax= 2.31D-02  0.00D+00 EMaxC= 1.00D-01 BMatC= 3.44D-01 BMatP= 3.11D+00
 IDIUse=3 WtCom= 7.69D-01 WtEn= 2.31D-01
 Coeff-Com: -0.315D+00 0.132D+01
 Coeff-En:   0.000D+00 0.100D+01
 Coeff:     -0.242D+00 0.124D+01
 Gap=     0.306 Goal=   None    Shift=    0.000
 Gap=     0.306 Goal=   None    Shift=    0.000
 RMSDP=1.82D-03 MaxDP=4.31D-02 DE=-9.95D-02 OVMax= 1.69D-01

 Cycle   3  Pass 1  IDiag  1:
 E= -492.775578454014     Delta-E=       -0.085747955488 Rises=F Damp=F
 DIIS: error= 1.03D-02 at cycle   3 NSaved=   3.
 NSaved= 3 IEnMin= 3 EnMin= -492.775578454014     IErMin= 3 ErrMin= 1.03D-02
 ErrMax= 1.03D-02  0.00D+00 EMaxC= 1.00D-01 BMatC= 7.07D-02 BMatP= 3.44D-01
 IDIUse=3 WtCom= 8.97D-01 WtEn= 1.03D-01
 Coeff-Com: -0.172D+00 0.514D+00 0.657D+00
 Coeff-En:   0.000D+00 0.000D+00 0.100D+01
 Coeff:     -0.154D+00 0.461D+00 0.693D+00
 Gap=     0.309 Goal=   None    Shift=    0.000
 Gap=     0.309 Goal=   None    Shift=    0.000
 RMSDP=8.59D-04 MaxDP=2.59D-02 DE=-8.57D-02 OVMax= 8.22D-02

 Cycle   4  Pass 1  IDiag  1:
 E= -492.790564101601     Delta-E=       -0.014985647587 Rises=F Damp=F
 DIIS: error= 4.52D-03 at cycle   4 NSaved=   4.
 NSaved= 4 IEnMin= 4 EnMin= -492.790564101601     IErMin= 4 ErrMin= 4.52D-03
 ErrMax= 4.52D-03  0.00D+00 EMaxC= 1.00D-01 BMatC= 1.31D-02 BMatP= 7.07D-02
 IDIUse=3 WtCom= 9.55D-01 WtEn= 4.52D-02
 Coeff-Com: -0.588D-01 0.165D+00 0.366D+00 0.528D+00
 Coeff-En:   0.000D+00 0.000D+00 0.103D+00 0.897D+00
 Coeff:     -0.562D-01 0.157D+00 0.355D+00 0.544D+00
 Gap=     0.308 Goal=   None    Shift=    0.000
 Gap=     0.308 Goal=   None    Shift=    0.000
 RMSDP=2.99D-04 MaxDP=6.58D-03 DE=-1.50D-02 OVMax= 3.21D-02

 Cycle   5  Pass 1  IDiag  1:
 E= -492.793452394890     Delta-E=       -0.002888293289 Rises=F Damp=F
 DIIS: error= 1.56D-03 at cycle   5 NSaved=   5.
 NSaved= 5 IEnMin= 5 EnMin= -492.793452394890     IErMin= 5 ErrMin= 1.56D-03
 ErrMax= 1.56D-03  0.00D+00 EMaxC= 1.00D-01 BMatC= 1.47D-03 BMatP= 1.31D-02
 IDIUse=3 WtCom= 9.84D-01 WtEn= 1.56D-02
 Coeff-Com: -0.593D-02 0.130D-01 0.118D+00 0.314D+00 0.561D+00
 Coeff-En:   0.000D+00 0.000D+00 0.000D+00 0.485D-02 0.995D+00
 Coeff:     -0.583D-02 0.128D-01 0.117D+00 0.309D+00 0.568D+00
 Gap=     0.311 Goal=   None    Shift=    0.000
 Gap=     0.311 Goal=   None    Shift=    0.000
 RMSDP=9.31D-05 MaxDP=2.35D-03 DE=-2.89D-03 OVMax= 7.60D-03

 Cycle   6  Pass 1  IDiag  1:
 E= -492.793774259036     Delta-E=       -0.000321864146 Rises=F Damp=F
 DIIS: error= 1.92D-04 at cycle   6 NSaved=   6.
 NSaved= 6 IEnMin= 6 EnMin= -492.793774259036     IErMin= 6 ErrMin= 1.92D-04
 ErrMax= 1.92D-04  0.00D+00 EMaxC= 1.00D-01 BMatC= 3.33D-05 BMatP= 1.47D-03
 IDIUse=3 WtCom= 9.98D-01 WtEn= 1.92D-03
 Coeff-Com:  0.393D-02-0.102D-01-0.429D-02 0.107D-01 0.128D+00 0.872D+00
 Coeff-En:   0.000D+00 0.000D+00 0.000D+00 0.000D+00 0.000D+00 0.100D+01
 Coeff:      0.392D-02-0.101D-01-0.429D-02 0.107D-01 0.128D+00 0.872D+00
 Gap=     0.311 Goal=   None    Shift=    0.000
 Gap=     0.311 Goal=   None    Shift=    0.000
 RMSDP=3.43D-05 MaxDP=1.10D-03 DE=-3.22D-04 OVMax= 1.03D-03

 Cycle   7  Pass 1  IDiag  1:
 E= -492.793784381807     Delta-E=       -0.000010122771 Rises=F Damp=F
 DIIS: error= 6.29D-05 at cycle   7 NSaved=   7.
 NSaved= 7 IEnMin= 7 EnMin= -492.793784381807     IErMin= 7 ErrMin= 6.29D-05
 ErrMax= 6.29D-05  0.00D+00 EMaxC= 1.00D-01 BMatC= 2.38D-06 BMatP= 3.33D-05
 IDIUse=1 WtCom= 1.00D+00 WtEn= 0.00D+00
 Coeff-Com:  0.133D-02-0.331D-02-0.140D-01-0.386D-01-0.370D-01 0.173D+00
 Coeff-Com:  0.919D+00
 Coeff:      0.133D-02-0.331D-02-0.140D-01-0.386D-01-0.370D-01 0.173D+00
 Coeff:      0.919D+00
 Gap=     0.311 Goal=   None    Shift=    0.000
 Gap=     0.311 Goal=   None    Shift=    0.000
 RMSDP=1.27D-05 MaxDP=2.75D-04 DE=-1.01D-05 OVMax= 4.44D-04

 Cycle   8  Pass 1  IDiag  1:
 E= -492.793785395457     Delta-E=       -0.000001013649 Rises=F Damp=F
 DIIS: error= 1.23D-05 at cycle   8 NSaved=   8.
 NSaved= 8 IEnMin= 8 EnMin= -492.793785395457     IErMin= 8 ErrMin= 1.23D-05
 ErrMax= 1.23D-05  0.00D+00 EMaxC= 1.00D-01 BMatC= 6.30D-08 BMatP= 2.38D-06
 IDIUse=1 WtCom= 1.00D+00 WtEn= 0.00D+00
 Coeff-Com: -0.209D-03 0.564D-03 0.218D-02 0.348D-02-0.140D-02-0.360D-01
 Coeff-Com: -0.121D+00 0.115D+01
 Coeff:     -0.209D-03 0.564D-03 0.218D-02 0.348D-02-0.140D-02-0.360D-01
 Coeff:     -0.121D+00 0.115D+01
 Gap=     0.311 Goal=   None    Shift=    0.000
 Gap=     0.311 Goal=   None    Shift=    0.000
 RMSDP=2.13D-06 MaxDP=5.05D-05 DE=-1.01D-06 OVMax= 8.90D-05

 Cycle   9  Pass 1  IDiag  1:
 E= -492.793785431401     Delta-E=       -0.000000035944 Rises=F Damp=F
 DIIS: error= 2.27D-06 at cycle   9 NSaved=   9.
 NSaved= 9 IEnMin= 9 EnMin= -492.793785431401     IErMin= 9 ErrMin= 2.27D-06
 ErrMax= 2.27D-06  0.00D+00 EMaxC= 1.00D-01 BMatC= 3.23D-09 BMatP= 6.30D-08
 IDIUse=1 WtCom= 1.00D+00 WtEn= 0.00D+00
 Coeff-Com: -0.177D-04 0.500D-04 0.338D-03 0.807D-03 0.122D-02-0.425D-02
 Coeff-Com: -0.241D-01-0.793D-01 0.111D+01
 Coeff:     -0.177D-04 0.500D-04 0.338D-03 0.807D-03 0.122D-02-0.425D-02
 Coeff:     -0.241D-01-0.793D-01 0.111D+01
 Gap=     0.311 Goal=   None    Shift=    0.000
 Gap=     0.311 Goal=   None    Shift=    0.000
 RMSDP=4.86D-07 MaxDP=9.83D-06 DE=-3.59D-08 OVMax= 2.79D-05

 Cycle  10  Pass 1  IDiag  1:
 E= -492.793785433639     Delta-E=       -0.000000002238 Rises=F Damp=F
 DIIS: error= 9.81D-07 at cycle  10 NSaved=  10.
 NSaved=10 IEnMin=10 EnMin= -492.793785433639     IErMin=10 ErrMin= 9.81D-07
 ErrMax= 9.81D-07  0.00D+00 EMaxC= 1.00D-01 BMatC= 4.02D-10 BMatP= 3.23D-09
 IDIUse=1 WtCom= 1.00D+00 WtEn= 0.00D+00
 Coeff-Com:  0.139D-04-0.374D-04-0.109D-03-0.206D-03 0.465D-03 0.231D-02
 Coeff-Com:  0.659D-02-0.993D-01 0.116D+00 0.974D+00
 Coeff:      0.139D-04-0.374D-04-0.109D-03-0.206D-03 0.465D-03 0.231D-02
 Coeff:      0.659D-02-0.993D-01 0.116D+00 0.974D+00
 Gap=     0.311 Goal=   None    Shift=    0.000
 Gap=     0.311 Goal=   None    Shift=    0.000
 RMSDP=1.45D-07 MaxDP=2.08D-06 DE=-2.24D-09 OVMax= 1.08D-05

 Cycle  11  Pass 1  IDiag  1:
 E= -492.793785433906     Delta-E=       -0.000000000266 Rises=F Damp=F
 DIIS: error= 2.87D-07 at cycle  11 NSaved=  11.
 NSaved=11 IEnMin=11 EnMin= -492.793785433906     IErMin=11 ErrMin= 2.87D-07
 ErrMax= 2.87D-07  0.00D+00 EMaxC= 1.00D-01 BMatC= 4.89D-11 BMatP= 4.02D-10
 IDIUse=1 WtCom= 1.00D+00 WtEn= 0.00D+00
 Coeff-Com: -0.992D-07 0.256D-06-0.765D-05-0.628D-04-0.109D-03-0.178D-04
 Coeff-Com:  0.122D-02 0.241D-01-0.139D+00-0.155D+00 0.127D+01
 Coeff:     -0.992D-07 0.256D-06-0.765D-05-0.628D-04-0.109D-03-0.178D-04
 Coeff:      0.122D-02 0.241D-01-0.139D+00-0.155D+00 0.127D+01
 Gap=     0.311 Goal=   None    Shift=    0.000
 Gap=     0.311 Goal=   None    Shift=    0.000
 RMSDP=6.60D-08 MaxDP=9.44D-07 DE=-2.66D-10 OVMax= 5.51D-06

 Cycle  12  Pass 1  IDiag  1:
 E= -492.793785433944     Delta-E=       -0.000000000039 Rises=F Damp=F
 DIIS: error= 7.39D-08 at cycle  12 NSaved=  12.
 NSaved=12 IEnMin=12 EnMin= -492.793785433944     IErMin=12 ErrMin= 7.39D-08
 ErrMax= 7.39D-08  0.00D+00 EMaxC= 1.00D-01 BMatC= 2.23D-12 BMatP= 4.89D-11
 IDIUse=1 WtCom= 1.00D+00 WtEn= 0.00D+00
 Coeff-Com: -0.533D-06 0.130D-05 0.428D-05 0.697D-05-0.504D-05-0.141D-03
 Coeff-Com: -0.213D-03 0.343D-02 0.197D-02-0.489D-01-0.860D-01 0.113D+01
 Coeff:     -0.533D-06 0.130D-05 0.428D-05 0.697D-05-0.504D-05-0.141D-03
 Coeff:     -0.213D-03 0.343D-02 0.197D-02-0.489D-01-0.860D-01 0.113D+01
 Gap=     0.311 Goal=   None    Shift=    0.000
 Gap=     0.311 Goal=   None    Shift=    0.000
 RMSDP=1.47D-08 MaxDP=2.95D-07 DE=-3.87D-11 OVMax= 1.13D-06

 Cycle  13  Pass 1  IDiag  1:
 E= -492.793785433947     Delta-E=       -0.000000000003 Rises=F Damp=F
 DIIS: error= 1.60D-08 at cycle  13 NSaved=  13.
 NSaved=13 IEnMin=13 EnMin= -492.793785433947     IErMin=13 ErrMin= 1.60D-08
 ErrMax= 1.60D-08  0.00D+00 EMaxC= 1.00D-01 BMatC= 1.09D-13 BMatP= 2.23D-12
 IDIUse=1 WtCom= 1.00D+00 WtEn= 0.00D+00
 Coeff-Com: -0.850D-07 0.215D-06 0.106D-05 0.416D-05 0.765D-05-0.277D-04
 Coeff-Com: -0.107D-03-0.105D-02 0.946D-02 0.679D-02-0.931D-01 0.976D-01
 Coeff-Com:  0.980D+00
 Coeff:     -0.850D-07 0.215D-06 0.106D-05 0.416D-05 0.765D-05-0.277D-04
 Coeff:     -0.107D-03-0.105D-02 0.946D-02 0.679D-02-0.931D-01 0.976D-01
 Coeff:      0.980D+00
 Gap=     0.311 Goal=   None    Shift=    0.000
 Gap=     0.311 Goal=   None    Shift=    0.000
 RMSDP=3.80D-09 MaxDP=8.30D-08 DE=-2.61D-12 OVMax= 2.07D-07

 SCF Done:  E(UwB97XD) =  -492.793785434     A.U. after   13 cycles
            NFock= 13  Conv=0.38D-08     -V/T= 2.0025
 <Sx>= 0.0000 <Sy>= 0.0000 <Sz>= 0.0000 <S**2>=-0.0000 S=-0.0000
 <L.S>=  0.00000000000    
 KE= 4.915759103272D+02 PE=-1.370860927359D+03 EE= 2.844609845229D+02
 Annihilation of the first spin contaminant:
 S**2 before annihilation    -0.0000,   after     0.0000
 Leave Link  502 at Tue Jan  3 09:07:20 2023, MaxMem=   536870912 cpu:              41.6 elap:              21.7
 (Enter /opt/software/gaussian/g16.c01/l508.exe)
 QCSCF skips out because SCF is already converged.
 Leave Link  508 at Tue Jan  3 09:07:21 2023, MaxMem=   536870912 cpu:               0.0 elap:               0.0
 (Enter /opt/software/gaussian/g16.c01/l601.exe)
 Copying SCF densities to generalized density rwf, IOpCl= 1 IROHF=0.

 **********************************************************************

            Population analysis using the SCF Density.

 **********************************************************************

 Alpha  occ. eigenvalues --  -89.11409 -14.43145 -10.32195  -8.13872  -6.08555
 Alpha  occ. eigenvalues --   -6.08498  -6.08082  -1.02836  -0.86402  -0.70152
 Alpha  occ. eigenvalues --   -0.58388  -0.55855  -0.47473  -0.44027  -0.38100
 Alpha  occ. eigenvalues --   -0.31605
 Alpha virt. eigenvalues --   -0.00490   0.06256   0.06510   0.07478   0.08385
 Alpha virt. eigenvalues --    0.11117   0.12533   0.13889   0.16243   0.18976
 Alpha virt. eigenvalues --    0.19698   0.19701   0.23293   0.23829   0.25536
 Alpha virt. eigenvalues --    0.26379   0.26416   0.27698   0.28503   0.31063
 Alpha virt. eigenvalues --    0.31274   0.32177   0.33662   0.36203   0.36530
 Alpha virt. eigenvalues --    0.37104   0.39597   0.39945   0.40628   0.42524
 Alpha virt. eigenvalues --    0.44341   0.45053   0.47972   0.50578   0.50803
 Alpha virt. eigenvalues --    0.52931   0.53213   0.56149   0.56899   0.58909
 Alpha virt. eigenvalues --    0.61903   0.64659   0.66769   0.66863   0.72131
 Alpha virt. eigenvalues --    0.73334   0.74786   0.77261   0.78522   0.79684
 Alpha virt. eigenvalues --    0.81285   0.87292   0.89840   0.92366   0.93862
 Alpha virt. eigenvalues --    0.97626   1.04450   1.11717   1.14871   1.19707
 Alpha virt. eigenvalues --    1.22623   1.37408   1.40210   1.40912   1.54889
 Alpha virt. eigenvalues --    1.62567   1.65520   1.66624   1.67247   1.68371
 Alpha virt. eigenvalues --    1.73078   1.76227   1.78323   1.86163   1.89881
 Alpha virt. eigenvalues --    1.91885   1.93508   1.93725   1.94366   2.01353
 Alpha virt. eigenvalues --    2.05125   2.05533   2.12236   2.16287   2.19861
 Alpha virt. eigenvalues --    2.26239   2.28275   2.31027   2.38080   2.45077
 Alpha virt. eigenvalues --    2.56653   2.57064   2.61505   2.72380   2.72715
 Alpha virt. eigenvalues --    2.75762   2.85162   2.87045   2.97811   3.18312
 Alpha virt. eigenvalues --    3.21336   3.23115   3.24915   3.28314   3.35668
 Alpha virt. eigenvalues --    3.44539   3.53477   3.58180   3.63900   3.76665
 Alpha virt. eigenvalues --    3.85376   4.08163   4.16989   4.29085   4.37937
 Alpha virt. eigenvalues --    4.42111   4.55528   4.63235   4.72129   4.83054
 Alpha virt. eigenvalues --    4.91702   5.00810   5.16211   5.30765   5.65778
 Alpha virt. eigenvalues --    8.98106   9.31822   9.65193  20.93402  22.30534
 Alpha virt. eigenvalues --   32.14605
  Beta  occ. eigenvalues --  -89.11409 -14.43145 -10.32195  -8.13872  -6.08555
  Beta  occ. eigenvalues --   -6.08498  -6.08082  -1.02836  -0.86402  -0.70152
  Beta  occ. eigenvalues --   -0.58388  -0.55855  -0.47473  -0.44027  -0.38100
  Beta  occ. eigenvalues --   -0.31605
  Beta virt. eigenvalues --   -0.00490   0.06256   0.06510   0.07478   0.08385
  Beta virt. eigenvalues --    0.11117   0.12533   0.13889   0.16243   0.18976
  Beta virt. eigenvalues --    0.19698   0.19701   0.23293   0.23829   0.25536
  Beta virt. eigenvalues --    0.26379   0.26416   0.27698   0.28503   0.31063
  Beta virt. eigenvalues --    0.31274   0.32177   0.33662   0.36203   0.36530
  Beta virt. eigenvalues --    0.37104   0.39597   0.39945   0.40628   0.42524
  Beta virt. eigenvalues --    0.44341   0.45053   0.47972   0.50578   0.50803
  Beta virt. eigenvalues --    0.52931   0.53213   0.56149   0.56899   0.58909
  Beta virt. eigenvalues --    0.61903   0.64659   0.66769   0.66863   0.72131
  Beta virt. eigenvalues --    0.73334   0.74786   0.77261   0.78522   0.79684
  Beta virt. eigenvalues --    0.81285   0.87292   0.89840   0.92366   0.93862
  Beta virt. eigenvalues --    0.97626   1.04450   1.11717   1.14871   1.19707
  Beta virt. eigenvalues --    1.22623   1.37408   1.40210   1.40912   1.54889
  Beta virt. eigenvalues --    1.62567   1.65520   1.66624   1.67247   1.68371
  Beta virt. eigenvalues --    1.73078   1.76227   1.78323   1.86163   1.89881
  Beta virt. eigenvalues --    1.91885   1.93508   1.93725   1.94366   2.01353
  Beta virt. eigenvalues --    2.05125   2.05533   2.12236   2.16287   2.19861
  Beta virt. eigenvalues --    2.26239   2.28275   2.31027   2.38080   2.45077
  Beta virt. eigenvalues --    2.56653   2.57064   2.61505   2.72380   2.72715
  Beta virt. eigenvalues --    2.75762   2.85162   2.87045   2.97811   3.18312
  Beta virt. eigenvalues --    3.21336   3.23115   3.24915   3.28314   3.35668
  Beta virt. eigenvalues --    3.44539   3.53477   3.58180   3.63900   3.76665
  Beta virt. eigenvalues --    3.85376   4.08163   4.16989   4.29085   4.37937
  Beta virt. eigenvalues --    4.42111   4.55528   4.63235   4.72129   4.83054
  Beta virt. eigenvalues --    4.91702   5.00810   5.16211   5.30765   5.65778
  Beta virt. eigenvalues --    8.98106   9.31822   9.65193  20.93402  22.30534
  Beta virt. eigenvalues --   32.14605
          Condensed to atoms (all electrons):
               1          2          3          4          5          6
     1  C    5.557182   0.334118  -0.019115   0.356061   0.366724  -0.004236
     2  S    0.334118  15.246796   0.155747  -0.021918  -0.016690   0.047485
     3  N   -0.019115   0.155747   7.175933   0.000735   0.001268   0.206839
     4  H    0.356061  -0.021918   0.000735   0.336822   0.000687  -0.000731
     5  H    0.366724  -0.016690   0.001268   0.000687   0.342804   0.004782
     6  H   -0.004236   0.047485   0.206839  -0.000731   0.004782   0.516951
          Atomic-Atomic Spin Densities.
               1          2          3          4          5          6
     1  C    0.000000   0.000000   0.000000   0.000000   0.000000   0.000000
     2  S    0.000000   0.000000   0.000000   0.000000   0.000000   0.000000
     3  N    0.000000   0.000000   0.000000   0.000000   0.000000   0.000000
     4  H    0.000000   0.000000   0.000000   0.000000   0.000000   0.000000
     5  H    0.000000   0.000000   0.000000   0.000000   0.000000   0.000000
     6  H    0.000000   0.000000   0.000000   0.000000   0.000000   0.000000
 Mulliken charges and spin densities:
               1          2
     1  C   -0.590734   0.000000
     2  S    0.254463   0.000000
     3  N   -0.521408   0.000000
     4  H    0.328344   0.000000
     5  H    0.300425   0.000000
     6  H    0.228910   0.000000
 Sum of Mulliken charges =  -0.00000   0.00000
 Mulliken charges and spin densities with hydrogens summed into heavy atoms:
               1          2
     1  C    0.038035   0.000000
     2  S    0.254463   0.000000
     3  N   -0.292498   0.000000
 Electronic spatial extent (au):  <R**2>=            821.2686
 Charge=             -0.0000 electrons
 Dipole moment (field-independent basis, Debye):
    X=             -2.6011    Y=             -0.2468    Z=             -0.1007  Tot=              2.6147
 Quadrupole moment (field-independent basis, Debye-Ang):
   XX=            -38.8354   YY=            -24.2419   ZZ=            -25.7252
   XY=             -3.1835   XZ=             -1.9170   YZ=              1.9181
 Traceless Quadrupole moment (field-independent basis, Debye-Ang):
   XX=             -9.2346   YY=              5.3590   ZZ=              3.8756
   XY=             -3.1835   XZ=             -1.9170   YZ=              1.9181
 Octapole moment (field-independent basis, Debye-Ang**2):
  XXX=           -231.2146  YYY=            -27.5722  ZZZ=            -19.2269  XYY=            -58.4400
  XXY=            -28.1056  XXZ=            -17.2891  XZZ=            -58.4464  YZZ=             -8.4033
  YYZ=             -2.6952  XYZ=              0.7288
 Hexadecapole moment (field-independent basis, Debye-Ang**3):
 XXXX=          -1187.5024 YYYY=            -91.9020 ZZZZ=            -60.1809 XXXY=           -174.5025
 XXXZ=           -107.2755 YYYX=            -87.0537 YYYZ=            -12.3201 ZZZX=            -57.8106
 ZZZY=            -19.4491 XXYY=           -188.5768 XXZZ=           -173.8427 YYZZ=            -20.9039
 XXYZ=            -13.4533 YYXZ=            -11.1104 ZZXY=            -27.2141
 N-N= 1.020302470755D+02 E-N=-1.370860927286D+03  KE= 4.915759103272D+02
                          Isotropic Fermi Contact Couplings
        Atom                 a.u.       MegaHertz       Gauss      10(-4) cm-1
     1  C(13)              0.00000       0.00000       0.00000       0.00000
     2  S(33)              0.00000       0.00000       0.00000       0.00000
     3  N(14)              0.00000       0.00000       0.00000       0.00000
     4  H(1)               0.00000       0.00000       0.00000       0.00000
     5  H(1)               0.00000       0.00000       0.00000       0.00000
     6  H(1)               0.00000       0.00000       0.00000       0.00000
 --------------------------------------------------------
       Center         ----  Spin Dipole Couplings  ----
                      3XX-RR        3YY-RR        3ZZ-RR
 --------------------------------------------------------
     1   Atom        0.000000      0.000000      0.000000
     2   Atom        0.000000      0.000000      0.000000
     3   Atom        0.000000      0.000000      0.000000
     4   Atom        0.000000      0.000000      0.000000
     5   Atom        0.000000      0.000000      0.000000
     6   Atom        0.000000      0.000000      0.000000
 --------------------------------------------------------
                        XY            XZ            YZ
 --------------------------------------------------------
     1   Atom        0.000000      0.000000      0.000000
     2   Atom        0.000000      0.000000      0.000000
     3   Atom        0.000000      0.000000      0.000000
     4   Atom        0.000000      0.000000      0.000000
     5   Atom        0.000000      0.000000      0.000000
     6   Atom        0.000000      0.000000      0.000000
 --------------------------------------------------------


 ---------------------------------------------------------------------------------
              Anisotropic Spin Dipole Couplings in Principal Axis System
 ---------------------------------------------------------------------------------

       Atom             a.u.   MegaHertz   Gauss  10(-4) cm-1        Axes

              Baa     0.0000     0.000     0.000     0.000  1.0000  0.0000  0.0000
     1 C(13)  Bbb     0.0000     0.000     0.000     0.000 -0.0000  1.0000  0.0000
              Bcc     0.0000     0.000     0.000     0.000  0.0000  0.0000  1.0000
 
              Baa     0.0000     0.000     0.000     0.000  1.0000  0.0000  0.0000
     2 S(33)  Bbb     0.0000     0.000     0.000     0.000 -0.0000  1.0000  0.0000
              Bcc     0.0000     0.000     0.000     0.000  0.0000  0.0000  1.0000
 
              Baa     0.0000     0.000     0.000     0.000  1.0000  0.0000  0.0000
     3 N(14)  Bbb     0.0000     0.000     0.000     0.000 -0.0000  1.0000  0.0000
              Bcc     0.0000     0.000     0.000     0.000  0.0000  0.0000  1.0000
 
              Baa     0.0000     0.000     0.000     0.000  1.0000  0.0000  0.0000
     4 H(1)   Bbb     0.0000     0.000     0.000     0.000 -0.0000  1.0000  0.0000
              Bcc     0.0000     0.000     0.000     0.000  0.0000  0.0000  1.0000
 
              Baa     0.0000     0.000     0.000     0.000  1.0000  0.0000  0.0000
     5 H(1)   Bbb     0.0000     0.000     0.000     0.000 -0.0000  1.0000  0.0000
              Bcc     0.0000     0.000     0.000     0.000  0.0000  0.0000  1.0000
 
              Baa     0.0000     0.000     0.000     0.000  1.0000  0.0000  0.0000
     6 H(1)   Bbb     0.0000     0.000     0.000     0.000 -0.0000  1.0000  0.0000
              Bcc     0.0000     0.000     0.000     0.000  0.0000  0.0000  1.0000
 

 ---------------------------------------------------------------------------------

 No NMR shielding tensors so no spin-rotation constants.
 Leave Link  601 at Tue Jan  3 09:07:21 2023, MaxMem=   536870912 cpu:               0.3 elap:               0.2
 (Enter /opt/software/gaussian/g16.c01/l801.exe)
 DoSCS=F DFT=T ScalE2(SS,OS)=  1.000000  1.000000
 Range of M.O.s used for correlation:     1   147
 NBasis=   147 NAE=    16 NBE=    16 NFC=     0 NFV=     0
 NROrb=    147 NOA=    16 NOB=    16 NVA=   131 NVB=   131

 **** Warning!!: The largest alpha MO coefficient is  0.38012868D+02


 **** Warning!!: The largest beta MO coefficient is  0.38012868D+02

 Leave Link  801 at Tue Jan  3 09:07:21 2023, MaxMem=   536870912 cpu:               0.1 elap:               0.0
 (Enter /opt/software/gaussian/g16.c01/l914.exe)
 UHF ground state
 Doing stability rather than CIS.
 Keep R1 and R2 ints in memory in canonical form, NReq=244251341.
 FoFCou: FMM=F IPFlag=           0 FMFlag=           0 FMFlg1=           0
         NFxFlg=           0 DoJE=F BraDBF=F KetDBF=F FulRan=T
         wScrn=  0.000000 ICntrl=       600 IOpCl=  0 I1Cent=           0 NGrid=           0
         NMat0=    1 NMatS0=  10878 NMatT0=    0 NMatD0=    1 NMtDS0=    0 NMtDT0=    0
 Symmetry not used in FoFCou.
 Two-electron integral symmetry not used.
 MDV=   536870912 DFT=T DoStab=T Mixed=T DoRPA=F DoScal=F NonHer=F
 Making orbital integer symmetry assigments:
    12 initial guesses have been made.
 Convergence on wavefunction:    0.001000000000000
 Davidson Disk Diagonalization:  ConvIn= 1.00D-03 SkipCon=T Conv= 1.00D-03.
 Max sub-space:  2000 roots to seek:    12 dimension of matrix:         4192
 Iteration     1 Dimension    12 NMult     0 NNew     12
 CISAX will form    12 AO SS matrices at one time.
 NMat=    12 NSing=    12 JSym2X= 0.
 Excitation Energies [eV] at current iteration:
 Root      1 :     1.240989631251132
 Root      2 :     4.273357075286606
 Root      3 :     5.639453295261379
 Root      4 :     6.084830891040206
 Root      5 :     6.217252583605868
 Root      6 :     6.630398720200165
 Root      7 :     6.761396643044525
 Root      8 :     7.028934261060403
 Root      9 :     7.091724390593324
 Root     10 :     7.095303427200826
 Root     11 :     7.117958039113269
 Root     12 :    10.972567713248846
 Iteration     2 Dimension    24 NMult    12 NNew     12
 CISAX will form    12 AO SS matrices at one time.
 NMat=    12 NSing=    12 JSym2X= 0.
 Root      1 not converged, maximum delta is    0.071666446925678
 Excitation Energies [eV] at current iteration:
 Root      1 :     0.718324969680986   Change is   -0.522664661570146
 Root      2 :     3.826572530588353   Change is   -0.446784544698253
 Root      3 :     5.219285927046994   Change is   -0.420167368214386
 Root      4 :     5.454264591032397   Change is   -0.630566300007809
 Root      5 :     5.517312827587900   Change is   -5.455254885660946
 Root      6 :     5.912608560384599   Change is   -0.304644023221269
 Root      7 :     6.167212743813342   Change is   -0.463185976386824
 Root      8 :     6.464274069045164   Change is   -0.297122573999361
 Root      9 :     6.723489718676277   Change is   -0.305444542384126
 Root     10 :     6.809518465880163   Change is   -0.285784961320664
 Root     11 :     7.020203035580297   Change is   -0.097755003532972
 Root     12 :     7.180904324828393   Change is    0.089179934235069
 Iteration     3 Dimension    27 NMult    24 NNew      3
 CISAX will form     3 AO SS matrices at one time.
 NMat=     3 NSing=     3 JSym2X= 0.
 Root      1 not converged, maximum delta is    0.007563721843050
 Excitation Energies [eV] at current iteration:
 Root      1 :     0.708091483048382   Change is   -0.010233486632604
 Root      2 :     3.778635589413494   Change is   -0.047936941174859
 Root      3 :     5.172077704902883   Change is   -0.047208222144110
 Iteration     4 Dimension    30 NMult    27 NNew      3
 CISAX will form     3 AO SS matrices at one time.
 NMat=     3 NSing=     3 JSym2X= 0.
 Root      1 not converged, maximum delta is    0.003174227143180
 Excitation Energies [eV] at current iteration:
 Root      1 :     0.707507340863991   Change is   -0.000584142184391
 Root      2 :     3.770052412899247   Change is   -0.008583176514247
 Root      3 :     5.160154735867259   Change is   -0.011922969035624
 Iteration     5 Dimension    33 NMult    30 NNew      3
 CISAX will form     3 AO SS matrices at one time.
 NMat=     3 NSing=     3 JSym2X= 0.
 Root      1 not converged, maximum delta is    0.001355282579543
 Excitation Energies [eV] at current iteration:
 Root      1 :     0.707455979357381   Change is   -0.000051361506610
 Root      2 :     3.768460331518230   Change is   -0.001592081381017
 Root      3 :     5.156313336717700   Change is   -0.003841399149559
 Iteration     6 Dimension    36 NMult    33 NNew      3
 CISAX will form     3 AO SS matrices at one time.
 NMat=     3 NSing=     3 JSym2X= 0.
 Root      1 has converged.
 Excitation Energies [eV] at current iteration:
 Root      1 :     0.707451230498306   Change is   -0.000004748859075
 Root      2 :     3.767912476497191   Change is   -0.000547855021039
 Root      3 :     5.033481957298347
 Convergence achieved on expansion vectors.
 ***********************************************************************
 Stability analysis using <AA,BB:AA,BB> singles matrix:
 ***********************************************************************
 1PDM for each excited state written to RWF  633
 Ground to excited state transition densities written to RWF  633

 Eigenvectors of the stability matrix:
 
 Excited state symmetry could not be determined.
 Eigenvector   1:  3.000-?Sym  Eigenvalue= 0.0259984  <S**2>=2.000
     16A -> 17A        0.68949
     16B -> 17B       -0.68949
 The wavefunction is stable under the perturbations considered.
 Leave Link  914 at Tue Jan  3 09:09:06 2023, MaxMem=   536870912 cpu:             209.9 elap:             105.0
 (Enter /opt/software/gaussian/g16.c01/l508.exe)
 The wavefunction is already stable.
 Leave Link  508 at Tue Jan  3 09:09:06 2023, MaxMem=   536870912 cpu:               0.0 elap:               0.0
 (Enter /opt/software/gaussian/g16.c01/l601.exe)
 Copying SCF densities to generalized density rwf, IOpCl= 1 IROHF=0.

 **********************************************************************

            Population analysis using the SCF Density.

 **********************************************************************

 Alpha  occ. eigenvalues --  -89.11409 -14.43145 -10.32195  -8.13872  -6.08555
 Alpha  occ. eigenvalues --   -6.08498  -6.08082  -1.02836  -0.86402  -0.70152
 Alpha  occ. eigenvalues --   -0.58388  -0.55855  -0.47473  -0.44027  -0.38100
 Alpha  occ. eigenvalues --   -0.31605
 Alpha virt. eigenvalues --   -0.00490   0.06256   0.06510   0.07478   0.08385
 Alpha virt. eigenvalues --    0.11117   0.12533   0.13889   0.16243   0.18976
 Alpha virt. eigenvalues --    0.19698   0.19701   0.23293   0.23829   0.25536
 Alpha virt. eigenvalues --    0.26379   0.26416   0.27698   0.28503   0.31063
 Alpha virt. eigenvalues --    0.31274   0.32177   0.33662   0.36203   0.36530
 Alpha virt. eigenvalues --    0.37104   0.39597   0.39945   0.40628   0.42524
 Alpha virt. eigenvalues --    0.44341   0.45053   0.47972   0.50578   0.50803
 Alpha virt. eigenvalues --    0.52931   0.53213   0.56149   0.56899   0.58909
 Alpha virt. eigenvalues --    0.61903   0.64659   0.66769   0.66863   0.72131
 Alpha virt. eigenvalues --    0.73334   0.74786   0.77261   0.78522   0.79684
 Alpha virt. eigenvalues --    0.81285   0.87292   0.89840   0.92366   0.93862
 Alpha virt. eigenvalues --    0.97626   1.04450   1.11717   1.14871   1.19707
 Alpha virt. eigenvalues --    1.22623   1.37408   1.40210   1.40912   1.54889
 Alpha virt. eigenvalues --    1.62567   1.65520   1.66624   1.67247   1.68371
 Alpha virt. eigenvalues --    1.73078   1.76227   1.78323   1.86163   1.89881
 Alpha virt. eigenvalues --    1.91885   1.93508   1.93725   1.94366   2.01353
 Alpha virt. eigenvalues --    2.05125   2.05533   2.12236   2.16287   2.19861
 Alpha virt. eigenvalues --    2.26239   2.28275   2.31027   2.38080   2.45077
 Alpha virt. eigenvalues --    2.56653   2.57064   2.61505   2.72380   2.72715
 Alpha virt. eigenvalues --    2.75762   2.85162   2.87045   2.97811   3.18312
 Alpha virt. eigenvalues --    3.21336   3.23115   3.24915   3.28314   3.35668
 Alpha virt. eigenvalues --    3.44539   3.53477   3.58180   3.63900   3.76665
 Alpha virt. eigenvalues --    3.85376   4.08163   4.16989   4.29085   4.37937
 Alpha virt. eigenvalues --    4.42111   4.55528   4.63235   4.72129   4.83054
 Alpha virt. eigenvalues --    4.91702   5.00810   5.16211   5.30765   5.65778
 Alpha virt. eigenvalues --    8.98106   9.31822   9.65193  20.93402  22.30534
 Alpha virt. eigenvalues --   32.14605
  Beta  occ. eigenvalues --  -89.11409 -14.43145 -10.32195  -8.13872  -6.08555
  Beta  occ. eigenvalues --   -6.08498  -6.08082  -1.02836  -0.86402  -0.70152
  Beta  occ. eigenvalues --   -0.58388  -0.55855  -0.47473  -0.44027  -0.38100
  Beta  occ. eigenvalues --   -0.31605
  Beta virt. eigenvalues --   -0.00490   0.06256   0.06510   0.07478   0.08385
  Beta virt. eigenvalues --    0.11117   0.12533   0.13889   0.16243   0.18976
  Beta virt. eigenvalues --    0.19698   0.19701   0.23293   0.23829   0.25536
  Beta virt. eigenvalues --    0.26379   0.26416   0.27698   0.28503   0.31063
  Beta virt. eigenvalues --    0.31274   0.32177   0.33662   0.36203   0.36530
  Beta virt. eigenvalues --    0.37104   0.39597   0.39945   0.40628   0.42524
  Beta virt. eigenvalues --    0.44341   0.45053   0.47972   0.50578   0.50803
  Beta virt. eigenvalues --    0.52931   0.53213   0.56149   0.56899   0.58909
  Beta virt. eigenvalues --    0.61903   0.64659   0.66769   0.66863   0.72131
  Beta virt. eigenvalues --    0.73334   0.74786   0.77261   0.78522   0.79684
  Beta virt. eigenvalues --    0.81285   0.87292   0.89840   0.92366   0.93862
  Beta virt. eigenvalues --    0.97626   1.04450   1.11717   1.14871   1.19707
  Beta virt. eigenvalues --    1.22623   1.37408   1.40210   1.40912   1.54889
  Beta virt. eigenvalues --    1.62567   1.65520   1.66624   1.67247   1.68371
  Beta virt. eigenvalues --    1.73078   1.76227   1.78323   1.86163   1.89881
  Beta virt. eigenvalues --    1.91885   1.93508   1.93725   1.94366   2.01353
  Beta virt. eigenvalues --    2.05125   2.05533   2.12236   2.16287   2.19861
  Beta virt. eigenvalues --    2.26239   2.28275   2.31027   2.38080   2.45077
  Beta virt. eigenvalues --    2.56653   2.57064   2.61505   2.72380   2.72715
  Beta virt. eigenvalues --    2.75762   2.85162   2.87045   2.97811   3.18312
  Beta virt. eigenvalues --    3.21336   3.23115   3.24915   3.28314   3.35668
  Beta virt. eigenvalues --    3.44539   3.53477   3.58180   3.63900   3.76665
  Beta virt. eigenvalues --    3.85376   4.08163   4.16989   4.29085   4.37937
  Beta virt. eigenvalues --    4.42111   4.55528   4.63235   4.72129   4.83054
  Beta virt. eigenvalues --    4.91702   5.00810   5.16211   5.30765   5.65778
  Beta virt. eigenvalues --    8.98106   9.31822   9.65193  20.93402  22.30534
  Beta virt. eigenvalues --   32.14605
          Condensed to atoms (all electrons):
               1          2          3          4          5          6
     1  C    5.557182   0.334118  -0.019115   0.356061   0.366724  -0.004236
     2  S    0.334118  15.246796   0.155747  -0.021918  -0.016690   0.047485
     3  N   -0.019115   0.155747   7.175933   0.000735   0.001268   0.206839
     4  H    0.356061  -0.021918   0.000735   0.336822   0.000687  -0.000731
     5  H    0.366724  -0.016690   0.001268   0.000687   0.342804   0.004782
     6  H   -0.004236   0.047485   0.206839  -0.000731   0.004782   0.516951
          Atomic-Atomic Spin Densities.
               1          2          3          4          5          6
     1  C    0.000000   0.000000   0.000000   0.000000   0.000000   0.000000
     2  S    0.000000   0.000000   0.000000   0.000000   0.000000   0.000000
     3  N    0.000000   0.000000   0.000000   0.000000   0.000000   0.000000
     4  H    0.000000   0.000000   0.000000   0.000000   0.000000   0.000000
     5  H    0.000000   0.000000   0.000000   0.000000   0.000000   0.000000
     6  H    0.000000   0.000000   0.000000   0.000000   0.000000   0.000000
 Mulliken charges and spin densities:
               1          2
     1  C   -0.590734   0.000000
     2  S    0.254463   0.000000
     3  N   -0.521408   0.000000
     4  H    0.328344   0.000000
     5  H    0.300425   0.000000
     6  H    0.228910   0.000000
 Sum of Mulliken charges =  -0.00000   0.00000
 Mulliken charges and spin densities with hydrogens summed into heavy atoms:
               1          2
     1  C    0.038035   0.000000
     2  S    0.254463   0.000000
     3  N   -0.292498   0.000000
 Electronic spatial extent (au):  <R**2>=            821.2686
 Charge=             -0.0000 electrons
 Dipole moment (field-independent basis, Debye):
    X=             -2.6011    Y=             -0.2468    Z=             -0.1007  Tot=              2.6147
 Quadrupole moment (field-independent basis, Debye-Ang):
   XX=            -38.8354   YY=            -24.2419   ZZ=            -25.7252
   XY=             -3.1835   XZ=             -1.9170   YZ=              1.9181
 Traceless Quadrupole moment (field-independent basis, Debye-Ang):
   XX=             -9.2346   YY=              5.3590   ZZ=              3.8756
   XY=             -3.1835   XZ=             -1.9170   YZ=              1.9181
 Octapole moment (field-independent basis, Debye-Ang**2):
  XXX=           -231.2146  YYY=            -27.5722  ZZZ=            -19.2269  XYY=            -58.4400
  XXY=            -28.1056  XXZ=            -17.2891  XZZ=            -58.4464  YZZ=             -8.4033
  YYZ=             -2.6952  XYZ=              0.7288
 Hexadecapole moment (field-independent basis, Debye-Ang**3):
 XXXX=          -1187.5024 YYYY=            -91.9020 ZZZZ=            -60.1809 XXXY=           -174.5025
 XXXZ=           -107.2755 YYYX=            -87.0537 YYYZ=            -12.3201 ZZZX=            -57.8106
 ZZZY=            -19.4491 XXYY=           -188.5768 XXZZ=           -173.8427 YYZZ=            -20.9039
 XXYZ=            -13.4533 YYXZ=            -11.1104 ZZXY=            -27.2141
 N-N= 1.020302470755D+02 E-N=-1.370860927286D+03  KE= 4.915759103272D+02
                          Isotropic Fermi Contact Couplings
        Atom                 a.u.       MegaHertz       Gauss      10(-4) cm-1
     1  C(13)              0.00000       0.00000       0.00000       0.00000
     2  S(33)              0.00000       0.00000       0.00000       0.00000
     3  N(14)              0.00000       0.00000       0.00000       0.00000
     4  H(1)               0.00000       0.00000       0.00000       0.00000
     5  H(1)               0.00000       0.00000       0.00000       0.00000
     6  H(1)               0.00000       0.00000       0.00000       0.00000
 --------------------------------------------------------
       Center         ----  Spin Dipole Couplings  ----
                      3XX-RR        3YY-RR        3ZZ-RR
 --------------------------------------------------------
     1   Atom        0.000000      0.000000      0.000000
     2   Atom        0.000000      0.000000      0.000000
     3   Atom        0.000000      0.000000      0.000000
     4   Atom        0.000000      0.000000      0.000000
     5   Atom        0.000000      0.000000      0.000000
     6   Atom        0.000000      0.000000      0.000000
 --------------------------------------------------------
                        XY            XZ            YZ
 --------------------------------------------------------
     1   Atom        0.000000      0.000000      0.000000
     2   Atom        0.000000      0.000000      0.000000
     3   Atom        0.000000      0.000000      0.000000
     4   Atom        0.000000      0.000000      0.000000
     5   Atom        0.000000      0.000000      0.000000
     6   Atom        0.000000      0.000000      0.000000
 --------------------------------------------------------


 ---------------------------------------------------------------------------------
              Anisotropic Spin Dipole Couplings in Principal Axis System
 ---------------------------------------------------------------------------------

       Atom             a.u.   MegaHertz   Gauss  10(-4) cm-1        Axes

              Baa     0.0000     0.000     0.000     0.000  1.0000  0.0000  0.0000
     1 C(13)  Bbb     0.0000     0.000     0.000     0.000 -0.0000  1.0000  0.0000
              Bcc     0.0000     0.000     0.000     0.000  0.0000  0.0000  1.0000
 
              Baa     0.0000     0.000     0.000     0.000  1.0000  0.0000  0.0000
     2 S(33)  Bbb     0.0000     0.000     0.000     0.000 -0.0000  1.0000  0.0000
              Bcc     0.0000     0.000     0.000     0.000  0.0000  0.0000  1.0000
 
              Baa     0.0000     0.000     0.000     0.000  1.0000  0.0000  0.0000
     3 N(14)  Bbb     0.0000     0.000     0.000     0.000 -0.0000  1.0000  0.0000
              Bcc     0.0000     0.000     0.000     0.000  0.0000  0.0000  1.0000
 
              Baa     0.0000     0.000     0.000     0.000  1.0000  0.0000  0.0000
     4 H(1)   Bbb     0.0000     0.000     0.000     0.000 -0.0000  1.0000  0.0000
              Bcc     0.0000     0.000     0.000     0.000  0.0000  0.0000  1.0000
 
              Baa     0.0000     0.000     0.000     0.000  1.0000  0.0000  0.0000
     5 H(1)   Bbb     0.0000     0.000     0.000     0.000 -0.0000  1.0000  0.0000
              Bcc     0.0000     0.000     0.000     0.000  0.0000  0.0000  1.0000
 
              Baa     0.0000     0.000     0.000     0.000  1.0000  0.0000  0.0000
     6 H(1)   Bbb     0.0000     0.000     0.000     0.000 -0.0000  1.0000  0.0000
              Bcc     0.0000     0.000     0.000     0.000  0.0000  0.0000  1.0000
 

 ---------------------------------------------------------------------------------

 No NMR shielding tensors so no spin-rotation constants.
 Leave Link  601 at Tue Jan  3 09:09:06 2023, MaxMem=   536870912 cpu:               0.3 elap:               0.2
 (Enter /opt/software/gaussian/g16.c01/l9999.exe)

 Test job not archived.
 1\1\GINC-GRA782\Stability\UwB97XD\Gen\C1H3N1S1\BHAVUK\03-Jan-2023\0\\#
 p uwb97xd/gen stable=opt scf=(maxcycle=900,verytightlineq,xqc) integra
 l=grid=ultrafine symmetry=None density=current iop(99/18=-1) output=wf
 n\\0004_q000_m01_k00_opt_uwb97xd_def2svpd/0004_q000_m01_k00_force_uwb9
 7xd_def2tzvpd stable-force\\0,1\C,0,0.8882935141,0.1422345627,0.108926
 3123\S,0,2.5067242222,0.1041696479,0.0448895292\N,0,3.3032398974,1.229
 8974173,0.7707622237\H,0,0.3752741579,-0.6653344173,-0.4132293362\H,0,
 0.3242760911,0.9148647349,0.6338600998\H,0,2.7138421188,1.9201180545,1
 .2418511706\\Version=ES64L-G16RevC.01\HF=-492.7937854\S2=0.\S2-1=0.\S2
 A=0.\RMSD=3.800e-09\Dipole=-1.0233571,-0.097118,-0.0396118\Quadrupole=
 -6.865669,3.9842555,2.8814135,-2.366859,-1.425247,1.4260362\PG=Unknown
 \\@

 Writing a WFN file to "0004_q000_m01_k00_force_uwb97xd_def2tzvpd.wfn"


 My opinions may have changed, but not the fact that I am right.
                       -- Ashleigh Brilliant
 Job cpu time:       0 days  0 hours  4 minutes 15.9 seconds.
 Elapsed time:       0 days  0 hours  2 minutes  8.7 seconds.
 File lengths (MBytes):  RWF=    115 Int=      0 D2E=      0 Chk=      4 Scr=      1
 Normal termination of Gaussian 16 at Tue Jan  3 09:09:06 2023.
 Initial command:
 /opt/software/gaussian/g16.c01/l1.exe "/localscratch/bhavuk.2151409.0/Gau-7359.inp" -scrdir="/localscratch/bhavuk.2151409.0/"
 Entering Link 1 = /opt/software/gaussian/g16.c01/l1.exe PID=      8134.
  
 Copyright (c) 1988-2019, Gaussian, Inc.  All Rights Reserved.
  
 This is part of the Gaussian(R) 16 program.  It is based on
 the Gaussian(R) 09 system (copyright 2009, Gaussian, Inc.),
 the Gaussian(R) 03 system (copyright 2003, Gaussian, Inc.),
 the Gaussian(R) 98 system (copyright 1998, Gaussian, Inc.),
 the Gaussian(R) 94 system (copyright 1995, Gaussian, Inc.),
 the Gaussian 92(TM) system (copyright 1992, Gaussian, Inc.),
 the Gaussian 90(TM) system (copyright 1990, Gaussian, Inc.),
 the Gaussian 88(TM) system (copyright 1988, Gaussian, Inc.),
 the Gaussian 86(TM) system (copyright 1986, Carnegie Mellon
 University), and the Gaussian 82(TM) system (copyright 1983,
 Carnegie Mellon University). Gaussian is a federally registered
 trademark of Gaussian, Inc.
  
 This software contains proprietary and confidential information,
 including trade secrets, belonging to Gaussian, Inc.
  
 This software is provided under written license and may be
 used, copied, transmitted, or stored only in accord with that
 written license.
  
 The following legend is applicable only to US Government
 contracts under FAR:
  
                    RESTRICTED RIGHTS LEGEND
  
 Use, reproduction and disclosure by the US Government is
 subject to restrictions as set forth in subparagraphs (a)
 and (c) of the Commercial Computer Software - Restricted
 Rights clause in FAR 52.227-19.
  
 Gaussian, Inc.
 340 Quinnipiac St., Bldg. 40, Wallingford CT 06492
  
  
 ---------------------------------------------------------------
 Warning -- This program may not be used in any manner that
 competes with the business of Gaussian, Inc. or will provide
 assistance to any competitor of Gaussian, Inc.  The licensee
 of this program is prohibited from giving any competitor of
 Gaussian, Inc. access to this program.  By using this program,
 the user acknowledges that Gaussian, Inc. is engaged in the
 business of creating and licensing software in the field of
 computational chemistry and represents and warrants to the
 licensee that it is not a competitor of Gaussian, Inc. and that
 it will not use this program in any manner prohibited above.
 ---------------------------------------------------------------
  

 Cite this work as:
 Gaussian 16, Revision C.01,
 M. J. Frisch, G. W. Trucks, H. B. Schlegel, G. E. Scuseria, 
 M. A. Robb, J. R. Cheeseman, G. Scalmani, V. Barone, 
 G. A. Petersson, H. Nakatsuji, X. Li, M. Caricato, A. V. Marenich, 
 J. Bloino, B. G. Janesko, R. Gomperts, B. Mennucci, H. P. Hratchian, 
 J. V. Ortiz, A. F. Izmaylov, J. L. Sonnenberg, D. Williams-Young, 
 F. Ding, F. Lipparini, F. Egidi, J. Goings, B. Peng, A. Petrone, 
 T. Henderson, D. Ranasinghe, V. G. Zakrzewski, J. Gao, N. Rega, 
 G. Zheng, W. Liang, M. Hada, M. Ehara, K. Toyota, R. Fukuda, 
 J. Hasegawa, M. Ishida, T. Nakajima, Y. Honda, O. Kitao, H. Nakai, 
 T. Vreven, K. Throssell, J. A. Montgomery, Jr., J. E. Peralta, 
 F. Ogliaro, M. J. Bearpark, J. J. Heyd, E. N. Brothers, K. N. Kudin, 
 V. N. Staroverov, T. A. Keith, R. Kobayashi, J. Normand, 
 K. Raghavachari, A. P. Rendell, J. C. Burant, S. S. Iyengar, 
 J. Tomasi, M. Cossi, J. M. Millam, M. Klene, C. Adamo, R. Cammi, 
 J. W. Ochterski, R. L. Martin, K. Morokuma, O. Farkas, 
 J. B. Foresman, and D. J. Fox, Gaussian, Inc., Wallingford CT, 2019.
 
 ******************************************
 Gaussian 16:  ES64L-G16RevC.01  3-Jul-2019
                 3-Jan-2023 
 ******************************************
 %chk=0004_q000_m01_k00_force_uwb97xd_def2tzvpd.chk
 %nprocshared=2
 Will use up to    2 processors via shared memory.
 %mem=4GB
 ----------------------------------------------------------------------
 #p uwb97xd/chkbasis force guess=read geom=check scf=(maxcycle=900,very
 tightlineq,xqc) integral=grid=ultrafine symmetry=None density=current 
 pop=(cm5,hlygat,mbs,npa) output=wfx
 ----------------------------------------------------------------------
 1/10=7,29=2,30=1,38=1/1,3;
 2/12=2,15=3,40=1/2;
 3/5=7,6=2,11=2,14=-4,25=1,30=1,67=1,71=1,74=-58,75=-5,116=2/1,2,3;
 4/5=1/1;
 5/5=2,7=900,8=3,13=1,17=3,38=6/2,8;
 6/7=2,8=2,9=2,10=2,15=8,20=15,22=-1,27=100,28=1,40=-1,79=1/1,2,7;
 7/29=1,30=1/1,2,3,16;
 1/10=7,30=1/3;
 99/6=200/99;
 Leave Link    1 at Tue Jan  3 09:09:07 2023, MaxMem=   536870912 cpu:               0.2 elap:               0.1
 (Enter /opt/software/gaussian/g16.c01/l101.exe)
 ----------------------------------------------------------------------
 0004_q000_m01_k00_opt_uwb97xd_def2svpd/0004_q000_m01_k00_force_uwb97xd
 _def2tzvpd stable-force
 ----------------------------------------------------------------------
 Structure from the checkpoint file:  "0004_q000_m01_k00_force_uwb97xd_def2tzvpd.chk"
 Charge =  0 Multiplicity = 1
 Z-Matrix found in chk file.
 C,0,0.8882935141,0.1422345627,0.1089263123
 S,0,2.5067242222,0.1041696479,0.0448895292
 N,0,3.3032398974,1.2298974173,0.7707622237
 H,0,0.3752741579,-0.6653344173,-0.4132293362
 H,0,0.3242760911,0.9148647349,0.6338600998
 H,0,2.7138421188,1.9201180545,1.2418511706
 Recover connectivity data from disk.
 ITRead=  0  0  0  0  0  0
 MicOpt= -1 -1 -1 -1 -1 -1
 NAtoms=      6 NQM=        6 NQMF=       0 NMMI=      0 NMMIF=      0
                NMic=       0 NMicF=      0.
                    Isotopes and Nuclear Properties:
 (Nuclear quadrupole moments (NQMom) in fm**2, nuclear magnetic moments (NMagM)
  in nuclear magnetons)

  Atom         1           2           3           4           5           6
 IAtWgt=          12          32          14           1           1           1
 AtmWgt=  12.0000000  31.9720718  14.0030740   1.0078250   1.0078250   1.0078250
 NucSpn=           0           0           2           1           1           1
 AtZEff=   3.6000000  13.6000000   4.5500000   1.0000000   1.0000000   1.0000000
 NQMom=    0.0000000   0.0000000   2.0440000   0.0000000   0.0000000   0.0000000
 NMagM=    0.0000000   0.0000000   0.4037610   2.7928460   2.7928460   2.7928460
 AtZNuc=   6.0000000  16.0000000   7.0000000   1.0000000   1.0000000   1.0000000
 Leave Link  101 at Tue Jan  3 09:09:07 2023, MaxMem=   536870912 cpu:               0.4 elap:               0.2
 (Enter /opt/software/gaussian/g16.c01/l103.exe)

 GradGradGradGradGradGradGradGradGradGradGradGradGradGradGradGradGradGrad
 Berny optimization.
 Initialization pass.
 Trust Radius=3.00D-01 FncErr=1.00D-07 GrdErr=1.00D-07 EigMax=2.50D+02 EigMin=1.00D-04
 Number of steps in this run=      2 maximum allowed number of steps=      2.
 GradGradGradGradGradGradGradGradGradGradGradGradGradGradGradGradGradGrad

 Leave Link  103 at Tue Jan  3 09:09:07 2023, MaxMem=   536870912 cpu:               0.1 elap:               0.0
 (Enter /opt/software/gaussian/g16.c01/l202.exe)
                          Input orientation:                          
 ---------------------------------------------------------------------
 Center     Atomic      Atomic             Coordinates (Angstroms)
 Number     Number       Type             X           Y           Z
 ---------------------------------------------------------------------
      1          6           0        0.888294    0.142235    0.108926
      2         16           0        2.506724    0.104170    0.044890
      3          7           0        3.303240    1.229897    0.770762
      4          1           0        0.375274   -0.665334   -0.413229
      5          1           0        0.324276    0.914865    0.633860
      6          1           0        2.713842    1.920118    1.241851
 ---------------------------------------------------------------------
                    Distance matrix (angstroms):
                    1          2          3          4          5
     1  C    0.000000
     2  S    1.620144   0.000000
     3  N    2.730019   1.558394   0.000000
     4  H    1.089956   2.311945   3.683303   0.000000
     5  H    1.091159   2.401498   2.998702   1.896319   0.000000
     6  H    2.788730   2.184785   1.022604   3.859113   2.662745
                    6
     6  H    0.000000
 Symmetry turned off by external request.
 Stoichiometry    CH3NS
 Rotational constants (GHZ):          36.3131241           8.8290023           7.1022055
 Leave Link  202 at Tue Jan  3 09:09:07 2023, MaxMem=   536870912 cpu:               0.0 elap:               0.0
 (Enter /opt/software/gaussian/g16.c01/l301.exe)
 Basis read from chk: "0004_q000_m01_k00_force_uwb97xd_def2tzvpd.chk" (5D, 7F)
 No pseudopotential information found on chk file.
   147 basis functions,   228 primitive gaussians,   165 cartesian basis functions
    16 alpha electrons       16 beta electrons
       nuclear repulsion energy       102.0311797422 Hartrees.
 IExCor= 4639 DFT=T Ex+Corr=wB97XD ExCW=0 ScaHFX=  1.000000
 ScaDFX=  1.000000  1.000000  1.000000  1.000000 ScalE2=  1.000000  1.000000
 IRadAn=      5 IRanWt=     -1 IRanGd=            0 ICorTp=0 IEmpDi=121
 HFx  wShort=  0.000000 wLong=  0.200000 cFull=  0.222036 cShort=  0.000000 cLong=  0.777964
 DFx  wShort=  0.000000 wLong=  0.200000 cFull=  0.000000 cShort=  0.000000 cLong=  1.000000
 NAtoms=    6 NActive=    6 NUniq=    6 SFac= 1.00D+00 NAtFMM=   60 NAOKFM=F Big=F
 Integral buffers will be    131072 words long.
 Raffenetti 2 integral format.
 Two-electron integral symmetry is turned off.
 R6Disp:  Grimme-D2 Dispersion energy=       -0.0009326667 Hartrees.
 Nuclear repulsion after empirical dispersion term =      102.0302470755 Hartrees.
 No density basis found on file  20724.
 Leave Link  301 at Tue Jan  3 09:09:07 2023, MaxMem=   536870912 cpu:               0.1 elap:               0.1
 (Enter /opt/software/gaussian/g16.c01/l302.exe)
 NPDir=0 NMtPBC=     1 NCelOv=     1 NCel=       1 NClECP=     1 NCelD=      1
         NCelK=      1 NCelE2=     1 NClLst=     1 CellRange=     0.0.
 One-electron integrals computed using PRISM.
 NBasis=   147 RedAO= T EigKep=  5.38D-05  NBF=   147
 NBsUse=   147 1.00D-06 EigRej= -1.00D+00 NBFU=   147
 Precomputing XC quadrature grid using
 IXCGrd= 4 IRadAn=           5 IRanWt=          -1 IRanGd=           0 AccXCQ= 0.00D+00.
 Generated NRdTot=       0 NPtTot=           0 NUsed=           0 NTot=          32
 NSgBfM=   164   164   164   164   164 MxSgAt=     6 MxSgA2=     6.
 Leave Link  302 at Tue Jan  3 09:09:07 2023, MaxMem=   536870912 cpu:               0.4 elap:               0.2
 (Enter /opt/software/gaussian/g16.c01/l303.exe)
 DipDrv:  MaxL=1.
 Leave Link  303 at Tue Jan  3 09:09:07 2023, MaxMem=   536870912 cpu:               0.1 elap:               0.0
 (Enter /opt/software/gaussian/g16.c01/l401.exe)
 Initial guess from the checkpoint file:  "0004_q000_m01_k00_force_uwb97xd_def2tzvpd.chk"
 B after Tr=     0.000000    0.000000    0.000000
         Rot=    1.000000    0.000000    0.000000    0.000000 Ang=   0.00 deg.
 Guess basis will be translated and rotated to current coordinates.
 JPrj=2 DoOrth=T DoCkMO=T.
 Initial guess <Sx>= 0.0000 <Sy>= 0.0000 <Sz>= 0.0000 <S**2>=-0.0000 S=-0.0000
 Leave Link  401 at Tue Jan  3 09:09:07 2023, MaxMem=   536870912 cpu:               0.2 elap:               0.1
 (Enter /opt/software/gaussian/g16.c01/l502.exe)
 Keep R1 and R2 ints in memory in canonical form, NReq=240591978.
 FoFCou: FMM=F IPFlag=           0 FMFlag=           0 FMFlg1=           0
         NFxFlg=           0 DoJE=F BraDBF=F KetDBF=F FulRan=T
         wScrn=  0.000000 ICntrl=       600 IOpCl=  0 I1Cent=           0 NGrid=           0
         NMat0=    1 NMatS0=  10878 NMatT0=    0 NMatD0=    1 NMtDS0=    0 NMtDT0=    0
 Symmetry not used in FoFCou.
 Two-electron integral symmetry not used.
 UHF open shell SCF:
 Using DIIS extrapolation, IDIIS=  1040.
 NGot=   536870912 LenX=   300130645 LenY=   300102979
 Requested convergence on RMS density matrix=1.00D-08 within 128 cycles.
 Requested convergence on MAX density matrix=1.00D-06.
 Requested convergence on             energy=1.00D-06.
 No special actions if energy rises.

 Cycle   1  Pass 1  IDiag  1:
 E= -492.793785433944    
 DIIS: error= 3.62D-09 at cycle   1 NSaved=   1.
 NSaved= 1 IEnMin= 1 EnMin= -492.793785433944     IErMin= 1 ErrMin= 3.62D-09
 ErrMax= 3.62D-09  0.00D+00 EMaxC= 1.00D-01 BMatC= 1.07D-14 BMatP= 1.07D-14
 IDIUse=1 WtCom= 1.00D+00 WtEn= 0.00D+00
 Coeff-Com:  0.100D+01
 Coeff:      0.100D+01
 Gap=     0.311 Goal=   None    Shift=    0.000
 Gap=     0.311 Goal=   None    Shift=    0.000
 RMSDP=7.77D-10 MaxDP=2.68D-08              OVMax= 4.28D-08

 SCF Done:  E(UwB97XD) =  -492.793785434     A.U. after    1 cycles
            NFock=  1  Conv=0.78D-09     -V/T= 2.0025
 <Sx>= 0.0000 <Sy>= 0.0000 <Sz>= 0.0000 <S**2>=-0.0000 S=-0.0000
 <L.S>=  0.00000000000    
 KE= 4.915759102255D+02 PE=-1.370860927184D+03 EE= 2.844609844490D+02
 Annihilation of the first spin contaminant:
 S**2 before annihilation    -0.0000,   after     0.0000
 Leave Link  502 at Tue Jan  3 09:09:13 2023, MaxMem=   536870912 cpu:              12.1 elap:               6.1
 (Enter /opt/software/gaussian/g16.c01/l508.exe)
 QCSCF skips out because SCF is already converged.
 Leave Link  508 at Tue Jan  3 09:09:14 2023, MaxMem=   536870912 cpu:               0.0 elap:               0.0
 (Enter /opt/software/gaussian/g16.c01/l601.exe)
 Copying SCF densities to generalized density rwf, IOpCl= 1 IROHF=0.

 **********************************************************************

            Population analysis using the SCF Density.

 **********************************************************************

 Alpha  occ. eigenvalues --  -89.11409 -14.43145 -10.32195  -8.13872  -6.08555
 Alpha  occ. eigenvalues --   -6.08498  -6.08082  -1.02836  -0.86402  -0.70152
 Alpha  occ. eigenvalues --   -0.58388  -0.55855  -0.47473  -0.44027  -0.38100
 Alpha  occ. eigenvalues --   -0.31605
 Alpha virt. eigenvalues --   -0.00490   0.06256   0.06510   0.07478   0.08385
 Alpha virt. eigenvalues --    0.11117   0.12533   0.13889   0.16243   0.18976
 Alpha virt. eigenvalues --    0.19698   0.19701   0.23293   0.23829   0.25536
 Alpha virt. eigenvalues --    0.26379   0.26416   0.27698   0.28503   0.31063
 Alpha virt. eigenvalues --    0.31274   0.32177   0.33662   0.36203   0.36530
 Alpha virt. eigenvalues --    0.37104   0.39597   0.39945   0.40628   0.42524
 Alpha virt. eigenvalues --    0.44341   0.45053   0.47972   0.50578   0.50803
 Alpha virt. eigenvalues --    0.52931   0.53213   0.56149   0.56899   0.58909
 Alpha virt. eigenvalues --    0.61903   0.64659   0.66769   0.66863   0.72131
 Alpha virt. eigenvalues --    0.73334   0.74786   0.77261   0.78522   0.79684
 Alpha virt. eigenvalues --    0.81285   0.87292   0.89840   0.92366   0.93862
 Alpha virt. eigenvalues --    0.97626   1.04450   1.11717   1.14871   1.19707
 Alpha virt. eigenvalues --    1.22623   1.37408   1.40210   1.40912   1.54889
 Alpha virt. eigenvalues --    1.62567   1.65520   1.66624   1.67247   1.68371
 Alpha virt. eigenvalues --    1.73078   1.76227   1.78323   1.86163   1.89881
 Alpha virt. eigenvalues --    1.91885   1.93508   1.93725   1.94366   2.01353
 Alpha virt. eigenvalues --    2.05125   2.05533   2.12236   2.16287   2.19861
 Alpha virt. eigenvalues --    2.26239   2.28275   2.31027   2.38080   2.45077
 Alpha virt. eigenvalues --    2.56653   2.57064   2.61505   2.72380   2.72715
 Alpha virt. eigenvalues --    2.75762   2.85162   2.87045   2.97811   3.18312
 Alpha virt. eigenvalues --    3.21336   3.23115   3.24915   3.28314   3.35668
 Alpha virt. eigenvalues --    3.44539   3.53477   3.58180   3.63900   3.76665
 Alpha virt. eigenvalues --    3.85376   4.08163   4.16989   4.29085   4.37937
 Alpha virt. eigenvalues --    4.42111   4.55528   4.63235   4.72129   4.83054
 Alpha virt. eigenvalues --    4.91702   5.00810   5.16211   5.30765   5.65778
 Alpha virt. eigenvalues --    8.98106   9.31822   9.65193  20.93402  22.30534
 Alpha virt. eigenvalues --   32.14605
  Beta  occ. eigenvalues --  -89.11409 -14.43145 -10.32195  -8.13872  -6.08555
  Beta  occ. eigenvalues --   -6.08498  -6.08082  -1.02836  -0.86402  -0.70152
  Beta  occ. eigenvalues --   -0.58388  -0.55855  -0.47473  -0.44027  -0.38100
  Beta  occ. eigenvalues --   -0.31605
  Beta virt. eigenvalues --   -0.00490   0.06256   0.06510   0.07478   0.08385
  Beta virt. eigenvalues --    0.11117   0.12533   0.13889   0.16243   0.18976
  Beta virt. eigenvalues --    0.19698   0.19701   0.23293   0.23829   0.25536
  Beta virt. eigenvalues --    0.26379   0.26416   0.27698   0.28503   0.31063
  Beta virt. eigenvalues --    0.31274   0.32177   0.33662   0.36203   0.36530
  Beta virt. eigenvalues --    0.37104   0.39597   0.39945   0.40628   0.42524
  Beta virt. eigenvalues --    0.44341   0.45053   0.47972   0.50578   0.50803
  Beta virt. eigenvalues --    0.52931   0.53213   0.56149   0.56899   0.58909
  Beta virt. eigenvalues --    0.61903   0.64659   0.66769   0.66863   0.72131
  Beta virt. eigenvalues --    0.73334   0.74786   0.77261   0.78522   0.79684
  Beta virt. eigenvalues --    0.81285   0.87292   0.89840   0.92366   0.93862
  Beta virt. eigenvalues --    0.97626   1.04450   1.11717   1.14871   1.19707
  Beta virt. eigenvalues --    1.22623   1.37408   1.40210   1.40912   1.54889
  Beta virt. eigenvalues --    1.62567   1.65520   1.66624   1.67247   1.68371
  Beta virt. eigenvalues --    1.73078   1.76227   1.78323   1.86163   1.89881
  Beta virt. eigenvalues --    1.91885   1.93508   1.93725   1.94366   2.01353
  Beta virt. eigenvalues --    2.05125   2.05533   2.12236   2.16287   2.19861
  Beta virt. eigenvalues --    2.26239   2.28275   2.31027   2.38080   2.45077
  Beta virt. eigenvalues --    2.56653   2.57064   2.61505   2.72380   2.72715
  Beta virt. eigenvalues --    2.75762   2.85162   2.87045   2.97811   3.18312
  Beta virt. eigenvalues --    3.21336   3.23115   3.24915   3.28314   3.35668
  Beta virt. eigenvalues --    3.44539   3.53477   3.58180   3.63900   3.76665
  Beta virt. eigenvalues --    3.85376   4.08163   4.16989   4.29085   4.37937
  Beta virt. eigenvalues --    4.42111   4.55528   4.63235   4.72129   4.83054
  Beta virt. eigenvalues --    4.91702   5.00810   5.16211   5.30765   5.65778
  Beta virt. eigenvalues --    8.98106   9.31822   9.65193  20.93402  22.30534
  Beta virt. eigenvalues --   32.14605
          Condensed to atoms (all electrons):
               1          2          3          4          5          6
     1  C    5.557182   0.334118  -0.019115   0.356061   0.366724  -0.004236
     2  S    0.334118  15.246796   0.155747  -0.021918  -0.016690   0.047485
     3  N   -0.019115   0.155747   7.175933   0.000735   0.001268   0.206839
     4  H    0.356061  -0.021918   0.000735   0.336822   0.000687  -0.000731
     5  H    0.366724  -0.016690   0.001268   0.000687   0.342804   0.004782
     6  H   -0.004236   0.047485   0.206839  -0.000731   0.004782   0.516951
          Atomic-Atomic Spin Densities.
               1          2          3          4          5          6
     1  C    0.000000   0.000000   0.000000   0.000000   0.000000   0.000000
     2  S    0.000000   0.000000   0.000000   0.000000   0.000000   0.000000
     3  N    0.000000   0.000000   0.000000   0.000000   0.000000   0.000000
     4  H    0.000000   0.000000   0.000000   0.000000   0.000000   0.000000
     5  H    0.000000   0.000000   0.000000   0.000000   0.000000   0.000000
     6  H    0.000000   0.000000   0.000000   0.000000   0.000000   0.000000
 Mulliken charges and spin densities:
               1          2
     1  C   -0.590734   0.000000
     2  S    0.254463   0.000000
     3  N   -0.521408   0.000000
     4  H    0.328344   0.000000
     5  H    0.300425   0.000000
     6  H    0.228910   0.000000
 Sum of Mulliken charges =  -0.00000   0.00000
 Mulliken charges and spin densities with hydrogens summed into heavy atoms:
               1          2
     1  C    0.038035   0.000000
     2  S    0.254463   0.000000
     3  N   -0.292498   0.000000
 Electronic spatial extent (au):  <R**2>=            821.2686
 Charge=             -0.0000 electrons
 Dipole moment (field-independent basis, Debye):
    X=             -2.6011    Y=             -0.2468    Z=             -0.1007  Tot=              2.6147
 Quadrupole moment (field-independent basis, Debye-Ang):
   XX=            -38.8354   YY=            -24.2419   ZZ=            -25.7252
   XY=             -3.1835   XZ=             -1.9170   YZ=              1.9181
 Traceless Quadrupole moment (field-independent basis, Debye-Ang):
   XX=             -9.2346   YY=              5.3590   ZZ=              3.8756
   XY=             -3.1835   XZ=             -1.9170   YZ=              1.9181
[...]
    62    S    2  dxy    Ryd( 4d)     0.00749       0.88677
    63    S    2  dxy    Ryd( 3d)     0.00014       0.78290
    64    S    2  dxy    Ryd( 5d)     0.00003       1.78598
    65    S    2  dxz    Ryd( 4d)     0.01133       0.77619
    66    S    2  dxz    Ryd( 3d)     0.00011       0.66671
    67    S    2  dxz    Ryd( 5d)     0.00003       1.65392
    68    S    2  dyz    Ryd( 3d)     0.00419       0.73774
    69    S    2  dyz    Ryd( 4d)     0.00017       0.75152
    70    S    2  dyz    Ryd( 5d)     0.00002       1.72097
    71    S    2  dx2y2  Ryd( 4d)     0.01088       1.00554
    72    S    2  dx2y2  Ryd( 3d)     0.00011       0.83636
    73    S    2  dx2y2  Ryd( 5d)     0.00002       1.86765
    74    S    2  dz2    Ryd( 4d)     0.00711       0.73540
    75    S    2  dz2    Ryd( 3d)     0.00009       0.64053
    76    S    2  dz2    Ryd( 5d)     0.00001       1.65952
    77    S    2  f(0)   Ryd( 4f)     0.00006       2.17332
    78    S    2  f(C1)  Ryd( 4f)     0.00014       2.27165
    79    S    2  f(S1)  Ryd( 4f)     0.00007       2.09589
    80    S    2  f(C2)  Ryd( 4f)     0.00008       2.34963
    81    S    2  f(S2)  Ryd( 4f)     0.00010       2.30187
    82    S    2  f(C3)  Ryd( 4f)     0.00019       2.51710
    83    S    2  f(S3)  Ryd( 4f)     0.00010       2.55641
 
    84    N    3  S      Cor( 1S)     0.99986     -14.28645
    85    N    3  S      Val( 2S)     0.79850      -0.72306
    86    N    3  S      Ryd( 4S)     0.00082       1.14680
    87    N    3  S      Ryd( 3S)     0.00006       1.04520
    88    N    3  S      Ryd( 5S)     0.00000       3.83417
    89    N    3  S      Ryd( 6S)     0.00000      30.69114
    90    N    3  px     Val( 2p)     0.80475      -0.28665
    91    N    3  px     Ryd( 3p)     0.00132       0.69984
    92    N    3  px     Ryd( 4p)     0.00008       2.71873
    93    N    3  py     Val( 2p)     0.65361      -0.24386
    94    N    3  py     Ryd( 3p)     0.00150       0.74324
    95    N    3  py     Ryd( 4p)     0.00005       2.92426
    96    N    3  pz     Val( 2p)     0.71703      -0.25751
    97    N    3  pz     Ryd( 3p)     0.00140       0.64599
    98    N    3  pz     Ryd( 4p)     0.00002       2.63468
    99    N    3  dxy    Ryd( 3d)     0.00609       1.42781
   100    N    3  dxy    Ryd( 4d)     0.00010       1.73350
   101    N    3  dxy    Ryd( 5d)     0.00001       4.30334
   102    N    3  dxz    Ryd( 3d)     0.00471       1.20459
   103    N    3  dxz    Ryd( 4d)     0.00005       1.67313
   104    N    3  dxz    Ryd( 5d)     0.00001       4.14030
   105    N    3  dyz    Ryd( 3d)     0.00236       1.28392
   106    N    3  dyz    Ryd( 4d)     0.00006       1.82551
   107    N    3  dyz    Ryd( 5d)     0.00002       4.19238
   108    N    3  dx2y2  Ryd( 3d)     0.00415       1.17029
   109    N    3  dx2y2  Ryd( 4d)     0.00002       1.77778
   110    N    3  dx2y2  Ryd( 5d)     0.00003       4.05317
   111    N    3  dz2    Ryd( 3d)     0.00260       1.12128
   112    N    3  dz2    Ryd( 4d)     0.00002       1.71609
   113    N    3  dz2    Ryd( 5d)     0.00001       4.03931
   114    N    3  f(0)   Ryd( 4f)     0.00007       4.41208
   115    N    3  f(C1)  Ryd( 4f)     0.00001       4.21790
   116    N    3  f(S1)  Ryd( 4f)     0.00011       4.30437
   117    N    3  f(C2)  Ryd( 4f)     0.00004       4.26952
   118    N    3  f(S2)  Ryd( 4f)     0.00010       4.72261
   119    N    3  f(C3)  Ryd( 4f)     0.00003       4.50424
   120    N    3  f(S3)  Ryd( 4f)     0.00001       4.40128
 
   121    H    4  S      Val( 1S)     0.37991       0.01382
   122    H    4  S      Ryd( 2S)     0.00031       1.27785
   123    H    4  S      Ryd( 3S)     0.00003       1.45707
   124    H    4  px     Ryd( 2p)     0.00021       0.59337
   125    H    4  px     Ryd( 3p)     0.00002       2.43007
   126    H    4  py     Ryd( 2p)     0.00066       0.54416
   127    H    4  py     Ryd( 3p)     0.00006       2.59276
   128    H    4  pz     Ryd( 2p)     0.00086       0.47973
   129    H    4  pz     Ryd( 3p)     0.00004       2.30243
 
   130    H    5  S      Val( 1S)     0.38575       0.00961
   131    H    5  S      Ryd( 3S)     0.00050       1.42655
   132    H    5  S      Ryd( 2S)     0.00004       1.29047
   133    H    5  px     Ryd( 2p)     0.00014       0.59820
   134    H    5  px     Ryd( 3p)     0.00003       2.46634
   135    H    5  py     Ryd( 2p)     0.00056       0.56461
   136    H    5  py     Ryd( 3p)     0.00005       2.57059
   137    H    5  pz     Ryd( 2p)     0.00037       0.49081
   138    H    5  pz     Ryd( 3p)     0.00005       2.33018
 
   139    H    6  S      Val( 1S)     0.32302       0.08878
   140    H    6  S      Ryd( 3S)     0.00042       1.87016
   141    H    6  S      Ryd( 2S)     0.00005       1.18185
   142    H    6  px     Ryd( 2p)     0.00027       0.90677
   143    H    6  px     Ryd( 3p)     0.00003       2.27465
   144    H    6  py     Ryd( 2p)     0.00030       0.78965
   145    H    6  py     Ryd( 3p)     0.00006       2.32321
   146    H    6  pz     Ryd( 2p)     0.00038       0.72085
   147    H    6  pz     Ryd( 3p)     0.00003       2.10058

 WARNING:  Population inversion found on atom  C    1
           Population inversion found on atom  S    2
           Population inversion found on atom  N    3
           Population inversion found on atom  H    5
           Population inversion found on atom  H    6


 Summary of Natural Population Analysis:                  
                                                          
                                       Natural Population 
                Natural  -----------------------------------------------
    Atom  No    Charge         Core      Valence    Rydberg      Total
 -----------------------------------------------------------------------
      C    1   -0.40315      0.99978     2.38897    0.01440     3.40315
      S    2    0.49695      4.99928     2.44248    0.06128     7.50305
      N    3   -0.49964      0.99986     2.97390    0.02588     3.99964
      H    4    0.11789      0.00000     0.37991    0.00220     0.38211
      H    5    0.11252      0.00000     0.38575    0.00173     0.38748
      H    6    0.17543      0.00000     0.32302    0.00155     0.32457
 =======================================================================
   * Total *    0.00000      6.99893     8.89403    0.10704    16.00000

                                 Natural Population      
 --------------------------------------------------------
   Core                       6.99893 ( 99.9847% of   7)
   Valence                    8.89403 ( 98.8226% of   9)
   Natural Minimal Basis     15.89296 ( 99.3310% of  16)
   Natural Rydberg Basis      0.10704 (  0.6690% of  16)
 --------------------------------------------------------

    Atom  No          Natural Electron Configuration
 ----------------------------------------------------------------------------
      C    1      [core]2S( 0.60)2p( 1.79)4d( 0.01)
      S    2      [core]3S( 0.77)3p( 1.68)5S( 0.01)4d( 0.04)5p( 0.01)
      N    3      [core]2S( 0.80)2p( 2.18)3d( 0.02)
      H    4            1S( 0.38)
      H    5            1S( 0.39)
      H    6            1S( 0.32)


 NBO analysis skipped by request.
 Leave Link  607 at Tue Jan  3 09:09:16 2023, MaxMem=   536870912 cpu:               3.6 elap:               1.8
 (Enter /opt/software/gaussian/g16.c01/l701.exe)
 ... and contract with generalized density number  0.
 Compute integral first derivatives.
 R6Disp: Adding Grimme-D2 dispersion energy 1st derivatives to the gradient.
 Leave Link  701 at Tue Jan  3 09:09:17 2023, MaxMem=   536870912 cpu:               0.3 elap:               0.1
 (Enter /opt/software/gaussian/g16.c01/l702.exe)
 L702 exits ... SP integral derivatives will be done elsewhere.
 Leave Link  702 at Tue Jan  3 09:09:17 2023, MaxMem=   536870912 cpu:               0.1 elap:               0.0
 (Enter /opt/software/gaussian/g16.c01/l703.exe)
 Integral derivatives from FoFJK, PRISM(SPDF).
 Compute integral first derivatives, UseDBF=F ICtDFT=           0.
 Calling FoFJK, ICntrl=      2127 FMM=F ISym2X=0 I1Cent= 0 IOpClX= 1 NMat=1 NMatS=1 NMatT=0.
 FoFJK:  IHMeth= 1 ICntrl=    2127 DoSepK=T KAlg= 0 I1Cent=           0 FoldK=F
 IRaf=         1 NMat=       1 IRICut=       1 DoRegI=T DoRafI=F ISym2E= 0 IDoP0=0 IntGTp=1.
 FoFCou: FMM=F IPFlag=           0 FMFlag=      100000 FMFlg1=         800
         NFxFlg=           0 DoJE=F BraDBF=F KetDBF=F FulRan=T
         wScrn=  0.000000 ICntrl=      2527 IOpCl=  0 I1Cent=           0 NGrid=           0
         NMat0=    1 NMatS0=      1 NMatT0=    0 NMatD0=    1 NMtDS0=    0 NMtDT0=    0
 Symmetry not used in FoFCou.
 Leave Link  703 at Tue Jan  3 09:09:29 2023, MaxMem=   536870912 cpu:              24.8 elap:              12.4
 (Enter /opt/software/gaussian/g16.c01/l716.exe)
 Dipole        =-1.02335690D+00-9.71178139D-02-3.96116937D-02
 -------------------------------------------------------------------
 Center     Atomic                   Forces (Hartrees/Bohr)
 Number     Number              X              Y              Z
 -------------------------------------------------------------------
      1        6           0.005925586   -0.000838455   -0.000697273
      2       16          -0.004213370    0.014222242    0.009517052
      3        7          -0.008926296   -0.010221473   -0.006550452
      4        1           0.002713844    0.004572319    0.002962369
      5        1           0.003186094   -0.004681356   -0.003176582
      6        1           0.001314143   -0.003053277   -0.002055115
 -------------------------------------------------------------------
 Cartesian Forces:  Max     0.014222242 RMS     0.006093909
 Z-matrix is all fixed cartesians, so copy forces.
 Force constants in Cartesian coordinates: 
                1             2             3             4             5 
      1  0.814685D+00
      2 -0.103178D-01  0.489891D+00
      3 -0.236660D-01  0.249297D+00  0.279166D+00
      4 -0.473219D+00  0.285194D-01  0.292131D-01  0.664394D+00
      5  0.961866D-02 -0.824860D-01 -0.267353D-01  0.176381D+00  0.396780D+00
      6  0.167037D-01 -0.271885D-01 -0.608333D-01  0.101780D+00  0.230703D+00
      7 -0.980132D-03 -0.200337D-01 -0.128629D-01 -0.210895D+00 -0.175482D+00
      8  0.308076D-03  0.143332D-01 -0.733807D-03 -0.217229D+00 -0.336130D+00
      9  0.597737D-03 -0.245367D-03  0.152527D-01 -0.139479D+00 -0.196571D+00
     10 -0.163349D+00 -0.915366D-01 -0.575233D-01 -0.926052D-03 -0.186700D-01
     11 -0.836129D-01 -0.214907D+00 -0.116374D+00  0.389598D-03  0.844345D-02
     12 -0.522783D-01 -0.116182D+00 -0.111677D+00  0.307294D-03  0.528464D-02
     13 -0.177134D+00  0.932947D-01  0.649511D-01  0.905791D-03  0.178651D-01
     14  0.839304D-01 -0.204801D+00 -0.108521D+00  0.246077D-03  0.152696D-01
     15  0.587541D-01 -0.108748D+00 -0.117275D+00  0.611040D-03 -0.327945D-02
     16 -0.268673D-05  0.740782D-04 -0.111937D-03  0.197412D-01 -0.971277D-02
     17  0.736242D-04 -0.202996D-02  0.306739D-02  0.116927D-01 -0.187726D-02
     18 -0.111233D-03  0.306689D-02 -0.463426D-02  0.756733D-02 -0.940153D-02
                6             7             8             9            10 
      6  0.192015D+00
      7 -0.111851D+00  0.406134D+00
      8 -0.195565D+00  0.534271D-01  0.531518D+00
      9 -0.159476D+00  0.263756D-01  0.328043D+00  0.250445D+00
     10 -0.123067D-01  0.228968D-05 -0.631307D-04  0.953945D-04  0.135830D+00
     11  0.482750D-02 -0.631368D-04  0.174080D-02 -0.263045D-02  0.957457D-01
     12  0.462508D-02  0.953981D-04 -0.263030D-02  0.397455D-02  0.605513D-01
     13  0.122731D-01 -0.247110D-05  0.681327D-04 -0.102953D-03  0.284430D-01
     14 -0.285735D-02  0.681506D-04 -0.187904D-02  0.283934D-02  0.145241D-01
     15  0.173925D-01 -0.102963D-03  0.283889D-02 -0.428974D-02  0.918329D-02
     16 -0.659932D-02 -0.194258D+00  0.163489D+00  0.112513D+00  0.000000D+00
     17 -0.991929D-02  0.142084D+00 -0.209584D+00 -0.131436D+00  0.000000D+00
     18  0.627668D-02  0.983460D-01 -0.131953D+00 -0.105907D+00  0.000000D+00
               11            12            13            14            15 
     11  0.207851D+00
     12  0.122960D+00  0.985155D-01
     13 -0.124593D-01 -0.867575D-02  0.147787D+00
     14 -0.312790D-02 -0.943229D-02 -0.987686D-01  0.194538D+00
     15 -0.878307D-02  0.456134D-02 -0.684455D-01  0.117972D+00  0.996107D-01
     16  0.000000D+00  0.000000D+00  0.000000D+00  0.000000D+00  0.000000D+00
     17  0.000000D+00  0.000000D+00  0.000000D+00  0.000000D+00  0.000000D+00
     18  0.000000D+00  0.000000D+00  0.000000D+00  0.000000D+00  0.000000D+00
               16            17            18 
     16  0.174519D+00
     17 -0.153850D+00  0.213491D+00
     18 -0.105802D+00  0.138288D+00  0.104265D+00
 Leave Link  716 at Tue Jan  3 09:09:29 2023, MaxMem=   536870912 cpu:               0.1 elap:               0.0
 (Enter /opt/software/gaussian/g16.c01/l103.exe)

 GradGradGradGradGradGradGradGradGradGradGradGradGradGradGradGradGradGrad
 Berny optimization.
 Search for a local minimum.
 Step number   1 out of a maximum of    2
 All quantities printed in internal units (Hartrees-Bohrs-Radians)
 Second derivative matrix not updated -- first step.
 The second derivative matrix:
                          X1        Y1        Z1        X2        Y2
           X1           0.81469
           Y1          -0.01032   0.48989
           Z1          -0.02367   0.24930   0.27917
           X2          -0.47322   0.02852   0.02921   0.66439
           Y2           0.00962  -0.08249  -0.02674   0.17638   0.39678
           Z2           0.01670  -0.02719  -0.06083   0.10178   0.23070
           X3          -0.00098  -0.02003  -0.01286  -0.21090  -0.17548
           Y3           0.00031   0.01433  -0.00073  -0.21723  -0.33613
           Z3           0.00060  -0.00025   0.01525  -0.13948  -0.19657
           X4          -0.16335  -0.09154  -0.05752  -0.00093  -0.01867
           Y4          -0.08361  -0.21491  -0.11637   0.00039   0.00844
           Z4          -0.05228  -0.11618  -0.11168   0.00031   0.00528
           X5          -0.17713   0.09329   0.06495   0.00091   0.01787
           Y5           0.08393  -0.20480  -0.10852   0.00025   0.01527
           Z5           0.05875  -0.10875  -0.11727   0.00061  -0.00328
           X6          -0.00000   0.00007  -0.00011   0.01974  -0.00971
           Y6           0.00007  -0.00203   0.00307   0.01169  -0.00188
           Z6          -0.00011   0.00307  -0.00463   0.00757  -0.00940
                          Z2        X3        Y3        Z3        X4
           Z2           0.19201
           X3          -0.11185   0.40613
           Y3          -0.19556   0.05343   0.53152
           Z3          -0.15948   0.02638   0.32804   0.25045
           X4          -0.01231   0.00000  -0.00006   0.00010   0.13583
           Y4           0.00483  -0.00006   0.00174  -0.00263   0.09575
           Z4           0.00463   0.00010  -0.00263   0.00397   0.06055
           X5           0.01227  -0.00000   0.00007  -0.00010   0.02844
           Y5          -0.00286   0.00007  -0.00188   0.00284   0.01452
           Z5           0.01739  -0.00010   0.00284  -0.00429   0.00918
           X6          -0.00660  -0.19426   0.16349   0.11251   0.00000
           Y6          -0.00992   0.14208  -0.20958  -0.13144   0.00000
           Z6           0.00628   0.09835  -0.13195  -0.10591   0.00000
                          Y4        Z4        X5        Y5        Z5
           Y4           0.20785
           Z4           0.12296   0.09852
           X5          -0.01246  -0.00868   0.14779
           Y5          -0.00313  -0.00943  -0.09877   0.19454
           Z5          -0.00878   0.00456  -0.06845   0.11797   0.09961
           X6           0.00000   0.00000   0.00000   0.00000   0.00000
           Y6           0.00000   0.00000   0.00000   0.00000   0.00000
           Z6           0.00000   0.00000   0.00000   0.00000   0.00000
                          X6        Y6        Z6
           X6           0.17452
           Y6          -0.15385   0.21349
           Z6          -0.10580   0.13829   0.10426
 ITU=  0
     Eigenvalues ---    0.01003   0.01738   0.04698   0.06571   0.11631
     Eigenvalues ---    0.13625   0.18094   0.33456   0.69321   0.85789
     Eigenvalues ---    1.12959   1.46007
 Angle between quadratic step and forces=  45.46 degrees.
 Linear search not attempted -- first point.
 B after Tr=    -0.004706    0.004742    0.003248
         Rot=    1.000000    0.000003   -0.000106    0.000160 Ang=   0.02 deg.
 Variable       Old X    -DE/DX   Delta X   Delta X   Delta X     New X
                                 (Linear)    (Quad)   (Total)
    X1        1.67863   0.00593   0.00000   0.01411   0.00953   1.68816
    Y1        0.26878  -0.00084   0.00000   0.00420   0.00840   0.27719
    Z1        0.20584  -0.00070   0.00000   0.00244   0.00533   0.21117
    X2        4.73702  -0.00421   0.00000  -0.01041  -0.01503   4.72200
    Y2        0.19685   0.01422   0.00000   0.01378   0.01701   0.21386
    Z2        0.08483   0.00952   0.00000   0.00937   0.01162   0.09644
    X3        6.24222  -0.00893   0.00000  -0.00869  -0.01236   6.22986
    Y3        2.32417  -0.01022   0.00000  -0.01525  -0.01249   2.31168
    Z3        1.45653  -0.00655   0.00000  -0.00987  -0.00796   1.44857
    X4        0.70917   0.00271   0.00000   0.02763   0.02236   0.73153
    Y4       -1.25730   0.00457   0.00000   0.01485   0.01935  -1.23795
    Z4       -0.78089   0.00296   0.00000   0.00917   0.01227  -0.76862
    X5        0.61279   0.00319   0.00000   0.01586   0.01195   0.62474
    Y5        1.72884  -0.00468   0.00000  -0.01313  -0.00858   1.72026
    Z5        1.19782  -0.00318   0.00000  -0.00907  -0.00596   1.19186
    X6        5.12842   0.00131   0.00000  -0.01340  -0.01646   5.11196
    Y6        3.62850  -0.00305   0.00000  -0.02680  -0.02368   3.60481
    Z6        2.34676  -0.00206   0.00000  -0.01743  -0.01529   2.33147
         Item               Value     Threshold  Converged?
 Maximum Force            0.014222     0.000450     NO 
 RMS     Force            0.006094     0.000300     NO 
 Maximum Displacement     0.023685     0.001800     NO 
 RMS     Displacement     0.014053     0.001200     NO 
 Predicted change in Energy=-5.582036D-04
 GradGradGradGradGradGradGradGradGradGradGradGradGradGradGradGradGradGrad

 Leave Link  103 at Tue Jan  3 09:09:29 2023, MaxMem=   536870912 cpu:               0.0 elap:               0.0
 (Enter /opt/software/gaussian/g16.c01/l9999.exe)
 Unable to Open any file for archive entry.
 1\1\GINC-GRA782\Force\UwB97XD\Gen\C1H3N1S1\BHAVUK\03-Jan-2023\0\\#p uw
 b97xd/chkbasis force guess=read geom=check scf=(maxcycle=900,verytight
 lineq,xqc) integral=grid=ultrafine symmetry=None density=current pop=(
 cm5,hlygat,mbs,npa) output=wfx\\0004_q000_m01_k00_opt_uwb97xd_def2svpd
 /0004_q000_m01_k00_force_uwb97xd_def2tzvpd stable-force\\0,1\C,0.88829
 35141,0.1422345627,0.1089263123\S,2.5067242222,0.1041696479,0.04488952
 92\N,3.3032398974,1.2298974173,0.7707622237\H,0.3752741579,-0.66533441
 73,-0.4132293362\H,0.3242760911,0.9148647349,0.6338600998\H,2.71384211
 88,1.9201180545,1.2418511706\\Version=ES64L-G16RevC.01\HF=-492.7937854
 \S2=0.\S2-1=0.\S2A=0.\RMSD=7.769e-10\RMSF=6.094e-03\Dipole=-1.0233569,
 -0.0971178,-0.0396117\Quadrupole=-6.8656682,3.9842553,2.8814129,-2.366
 8581,-1.4252464,1.4260365\PG=Unknown\\@
 The archive entry for this job was punched.

 Writing a WFNX file to "0004_q000_m01_k00_force_uwb97xd_def2tzvpd.wfx"


 I take a simple view of life: keep your eyes open and get on with it.
 -- Laurence Olivier
 Job cpu time:       0 days  0 hours  0 minutes 45.1 seconds.
 Elapsed time:       0 days  0 hours  0 minutes 22.2 seconds.
 File lengths (MBytes):  RWF=     20 Int=      0 D2E=      0 Chk=      4 Scr=      1
 Normal termination of Gaussian 16 at Tue Jan  3 09:09:30 2023.
