 Entering Gaussian System, Link 0=g16
 Input=0004_q000_m01_k00_force_uhf_def2svp.com
 Output=0004_q000_m01_k00_force_uhf_def2svp.log
 Initial command:
 /opt/software/gaussian/g16.c01/l1.exe "/localscratch/bhavuk.2151400.0/Gau-31899.inp" -scrdir="/localscratch/bhavuk.2151400.0/"
 Entering Link 1 = /opt/software/gaussian/g16.c01/l1.exe PID=     31902.
  
 Copyright (c) 1988-2019, Gaussian, Inc.  All Rights Reserved.
  
 This is part of the Gaussian(R) 16 program.  It is based on
 the Gaussian(R) 09 system (copyright 2009, Gaussian, Inc.),
 the Gaussian(R) 03 system (copyright 2003, Gaussian, Inc.),
 the Gaussian(R) 98 system (copyright 1998, Gaussian, Inc.),
 the Gaussian(R) 94 system (copyright 1995, Gaussian, Inc.),
 the Gaussian 92(TM) system (copyright 1992, Gaussian, Inc.),
 the Gaussian 90(TM) system (copyright 1990, Gaussian, Inc.),
 the Gaussian 88(TM) system (copyright 1988, Gaussian, Inc.),
 the Gaussian 86(TM) system (copyright 1986, Carnegie Mellon
 University), and the Gaussian 82(TM) system (copyright 1983,
 Carnegie Mellon University). Gaussian is a federally registered
 trademark of Gaussian, Inc.
  
 This software contains proprietary and confidential information,
 including trade secrets, belonging to Gaussian, Inc.
  
 This software is provided under written license and may be
 used, copied, transmitted, or stored only in accord with that
 written license.
  
 The following legend is applicable only to US Government
 contracts under FAR:
  
                    RESTRICTED RIGHTS LEGEND
  
 Use, reproduction and disclosure by the US Government is
 subject to restrictions as set forth in subparagraphs (a)
 and (c) of the Commercial Computer Software - Restricted
 Rights clause in FAR 52.227-19.
  
 Gaussian, Inc.
 340 Quinnipiac St., Bldg. 40, Wallingford CT 06492
  
  
 ---------------------------------------------------------------
 Warning -- This program may not be used in any manner that
 competes with the business of Gaussian, Inc. or will provide
 assistance to any competitor of Gaussian, Inc.  The licensee
 of this program is prohibited from giving any competitor of
 Gaussian, Inc. access to this program.  By using this program,
 the user acknowledges that Gaussian, Inc. is engaged in the
 business of creating and licensing software in the field of
 computational chemistry and represents and warrants to the
 licensee that it is not a competitor of Gaussian, Inc. and that
 it will not use this program in any manner prohibited above.
 ---------------------------------------------------------------
  

 Cite this work as:
 Gaussian 16, Revision C.01,
 M. J. Frisch, G. W. Trucks, H. B. Schlegel, G. E. Scuseria, 
 M. A. Robb, J. R. Cheeseman, G. Scalmani, V. Barone, 
 G. A. Petersson, H. Nakatsuji, X. Li, M. Caricato, A. V. Marenich, 
 J. Bloino, B. G. Janesko, R. Gomperts, B. Mennucci, H. P. Hratchian, 
 J. V. Ortiz, A. F. Izmaylov, J. L. Sonnenberg, D. Williams-Young, 
 F. Ding, F. Lipparini, F. Egidi, J. Goings, B. Peng, A. Petrone, 
 T. Henderson, D. Ranasinghe, V. G. Zakrzewski, J. Gao, N. Rega, 
 G. Zheng, W. Liang, M. Hada, M. Ehara, K. Toyota, R. Fukuda, 
 J. Hasegawa, M. Ishida, T. Nakajima, Y. Honda, O. Kitao, H. Nakai, 
 T. Vreven, K. Throssell, J. A. Montgomery, Jr., J. E. Peralta, 
 F. Ogliaro, M. J. Bearpark, J. J. Heyd, E. N. Brothers, K. N. Kudin, 
 V. N. Staroverov, T. A. Keith, R. Kobayashi, J. Normand, 
 K. Raghavachari, A. P. Rendell, J. C. Burant, S. S. Iyengar, 
 J. Tomasi, M. Cossi, J. M. Millam, M. Klene, C. Adamo, R. Cammi, 
 J. W. Ochterski, R. L. Martin, K. Morokuma, O. Farkas, 
 J. B. Foresman, and D. J. Fox, Gaussian, Inc., Wallingford CT, 2019.
 
 ******************************************
 Gaussian 16:  ES64L-G16RevC.01  3-Jul-2019
                 3-Jan-2023 
 ******************************************
 %chk=0004_q000_m01_k00_force_uhf_def2svp.chk
 %nprocshared=2
 Will use up to    2 processors via shared memory.
 %mem=4GB
 ----------------------------------------------------------------------
 #p uhf/gen stable=opt scf=(maxcycle=900,verytightlineq,xqc) integral=g
 rid=ultrafine symmetry=None density=current iop(99/18=-1) output=wfn
 ----------------------------------------------------------------------
 1/38=1,172=1/1;
 2/12=2,15=3,17=6,18=5,40=1/2;
 3/5=7,11=2,25=1,30=1,75=-5,116=2/1,2,3;
 4//1;
 5/5=2,7=900,8=3,13=1,17=3,38=5/2,8;
 6/7=2,8=2,9=2,10=2,22=-1,28=1/1;
 8/6=1,10=90,11=11/1;
 9/8=-3,42=1,46=1/14;
 5/5=2,7=900,8=3,17=43,38=5/8(-2);
 6/7=2,8=2,9=2,10=2,22=-1,28=1/1;
 99/5=1,6=100,9=1,18=-1/99;
 Leave Link    1 at Tue Jan  3 09:06:26 2023, MaxMem=   536870912 cpu:               0.1 elap:               0.1
 (Enter /opt/software/gaussian/g16.c01/l101.exe)
 ----------------------------------------------------------------------
 0004_q000_m01_k00_opt_uwb97xd_def2svpd/0004_q000_m01_k00_force_uhf_def
 2svp stable-force
 ----------------------------------------------------------------------
 Symbolic Z-matrix:
 Charge =  0 Multiplicity = 1
 C                     0.88829   0.14223   0.10893 
 S                     2.50672   0.10417   0.04489 
 N                     3.30324   1.2299    0.77076 
 H                     0.37527  -0.66533  -0.41323 
 H                     0.32428   0.91486   0.63386 
 H                     2.71384   1.92012   1.24185 
 
 ITRead=  0  0  0  0  0  0
 MicOpt= -1 -1 -1 -1 -1 -1
 NAtoms=      6 NQM=        6 NQMF=       0 NMMI=      0 NMMIF=      0
                NMic=       0 NMicF=      0.
                    Isotopes and Nuclear Properties:
 (Nuclear quadrupole moments (NQMom) in fm**2, nuclear magnetic moments (NMagM)
  in nuclear magnetons)

  Atom         1           2           3           4           5           6
 IAtWgt=          12          32          14           1           1           1
 AtmWgt=  12.0000000  31.9720718  14.0030740   1.0078250   1.0078250   1.0078250
 NucSpn=           0           0           2           1           1           1
 AtZEff=  -0.0000000  -0.0000000  -0.0000000  -0.0000000  -0.0000000  -0.0000000
 NQMom=    0.0000000   0.0000000   2.0440000   0.0000000   0.0000000   0.0000000
 NMagM=    0.0000000   0.0000000   0.4037610   2.7928460   2.7928460   2.7928460
 AtZNuc=   6.0000000  16.0000000   7.0000000   1.0000000   1.0000000   1.0000000
 Leave Link  101 at Tue Jan  3 09:06:26 2023, MaxMem=   536870912 cpu:               0.4 elap:               0.2
 (Enter /opt/software/gaussian/g16.c01/l202.exe)
                          Input orientation:                          
 ---------------------------------------------------------------------
 Center     Atomic      Atomic             Coordinates (Angstroms)
 Number     Number       Type             X           Y           Z
 ---------------------------------------------------------------------
      1          6           0        0.888294    0.142235    0.108926
      2         16           0        2.506724    0.104170    0.044890
      3          7           0        3.303240    1.229897    0.770762
      4          1           0        0.375274   -0.665334   -0.413229
      5          1           0        0.324276    0.914865    0.633860
      6          1           0        2.713842    1.920118    1.241851
 ---------------------------------------------------------------------
                    Distance matrix (angstroms):
                    1          2          3          4          5
     1  C    0.000000
     2  S    1.620144   0.000000
     3  N    2.730019   1.558394   0.000000
     4  H    1.089956   2.311945   3.683303   0.000000
     5  H    1.091159   2.401498   2.998702   1.896319   0.000000
     6  H    2.788730   2.184785   1.022604   3.859113   2.662745
                    6
     6  H    0.000000
 Symmetry turned off by external request.
 Stoichiometry    CH3NS
 Rotational constants (GHZ):          36.3131241           8.8290023           7.1022055
 Leave Link  202 at Tue Jan  3 09:06:26 2023, MaxMem=   536870912 cpu:               0.0 elap:               0.0
 (Enter /opt/software/gaussian/g16.c01/l301.exe)
 General basis read from cards:  (5D, 7F)
 Centers:       4      5      6
 S 3 1.00
     Exponent=  1.3010701000D+01 Coefficients=  1.9682158000D-02
     Exponent=  1.9622572000D+00 Coefficients=  1.3796524000D-01
     Exponent=  4.4453796000D-01 Coefficients=  4.7831935000D-01
 S 1 1.00
     Exponent=  1.2194962000D-01 Coefficients=  1.0000000000D+00
 P 1 1.00
     Exponent=  8.0000000000D-01 Coefficients=  1.0000000000D+00
 ****
 Centers:       1
 S 5 1.00
     Exponent=  1.2384016938D+03 Coefficients=  5.4568832082D-03
     Exponent=  1.8629004992D+02 Coefficients=  4.0638409211D-02
     Exponent=  4.2251176346D+01 Coefficients=  1.8025593888D-01
     Exponent=  1.1676557932D+01 Coefficients=  4.6315121755D-01
     Exponent=  3.5930506482D+00 Coefficients=  4.4087173314D-01
 S 1 1.00
     Exponent=  4.0245147363D-01 Coefficients=  1.0000000000D+00
 S 1 1.00
     Exponent=  1.3090182668D-01 Coefficients=  1.0000000000D+00
 P 3 1.00
     Exponent=  9.4680970621D+00 Coefficients=  3.8387871728D-02
     Exponent=  2.0103545142D+00 Coefficients=  2.1117025112D-01
     Exponent=  5.4771004707D-01 Coefficients=  5.1328172114D-01
 P 1 1.00
     Exponent=  1.5268613795D-01 Coefficients=  1.0000000000D+00
 D 1 1.00
     Exponent=  8.0000000000D-01 Coefficients=  1.0000000000D+00
 ****
 Centers:       3
 S 5 1.00
     Exponent=  1.7128415853D+03 Coefficients= -5.3934125305D-03
     Exponent=  2.5764812677D+02 Coefficients= -4.0221581118D-02
     Exponent=  5.8458245853D+01 Coefficients= -1.7931144990D-01
     Exponent=  1.6198367905D+01 Coefficients= -4.6376317823D-01
     Exponent=  5.0052600809D+00 Coefficients= -4.4171422662D-01
 S 1 1.00
     Exponent=  5.8731856571D-01 Coefficients=  1.0000000000D+00
 S 1 1.00
     Exponent=  1.8764592253D-01 Coefficients=  1.0000000000D+00
 P 3 1.00
     Exponent=  1.3571470233D+01 Coefficients= -4.0072398852D-02
     Exponent=  2.9257372874D+00 Coefficients= -2.1807045028D-01
     Exponent=  7.9927750754D-01 Coefficients= -5.1294466049D-01
 P 1 1.00
     Exponent=  2.1954348034D-01 Coefficients=  1.0000000000D+00
 D 1 1.00
     Exponent=  1.0000000000D+00 Coefficients=  1.0000000000D+00
 ****
 Centers:       2
 S 5 1.00
     Exponent=  9.1849303010D+03 Coefficients= -2.2294387756D-03
     Exponent=  1.3815105503D+03 Coefficients= -1.6683029937D-02
     Exponent=  3.1387147580D+02 Coefficients= -7.5262436116D-02
     Exponent=  8.8053870623D+01 Coefficients= -1.9376827038D-01
     Exponent=  2.7039914905D+01 Coefficients= -1.7718020803D-01
 S 3 1.00
     Exponent=  4.5648731303D+01 Coefficients= -1.0736062573D-01
     Exponent=  4.9664522326D+00 Coefficients=  6.5066293018D-01
     Exponent=  2.0116242047D+00 Coefficients=  5.9712155354D-01
 S 1 1.00
     Exponent=  3.5661077013D-01 Coefficients=  1.0000000000D+00
 S 1 1.00
     Exponent=  1.3507221477D-01 Coefficients=  1.0000000000D+00
 P 5 1.00
     Exponent=  2.6198233439D+02 Coefficients= -9.2729929822D-03
     Exponent=  6.1306894736D+01 Coefficients= -6.6547669241D-02
     Exponent=  1.9103729887D+01 Coefficients= -2.4828595903D-01
     Exponent=  6.6567720378D+00 Coefficients= -4.8703847402D-01
     Exponent=  2.3959635161D+00 Coefficients= -3.9337850312D-01
 P 1 1.00
     Exponent=  6.1776161679D-01 Coefficients=  1.0000000000D+00
 P 1 1.00
     Exponent=  1.6993376871D-01 Coefficients=  1.0000000000D+00
 D 1 1.00
     Exponent=  5.5000000000D-01 Coefficients=  1.0000000000D+00
 ****
 Ernie: Thresh=  0.10000D-02 Tol=  0.10000D-05 Strict=F.
    61 basis functions,   108 primitive gaussians,    64 cartesian basis functions
    16 alpha electrons       16 beta electrons
       nuclear repulsion energy       102.0311797422 Hartrees.
 IExCor=    0 DFT=F Ex=HF Corr=None ExCW=0 ScaHFX=  1.000000
 ScaDFX=  1.000000  1.000000  1.000000  1.000000 ScalE2=  1.000000  1.000000
 IRadAn=      5 IRanWt=     -1 IRanGd=            0 ICorTp=0 IEmpDi=  4
 NAtoms=    6 NActive=    6 NUniq=    6 SFac= 1.00D+00 NAtFMM=   60 NAOKFM=F Big=F
 Integral buffers will be    131072 words long.
 Raffenetti 2 integral format.
 Two-electron integral symmetry is turned off.
 Leave Link  301 at Tue Jan  3 09:06:26 2023, MaxMem=   536870912 cpu:               0.1 elap:               0.1
 (Enter /opt/software/gaussian/g16.c01/l302.exe)
 NPDir=0 NMtPBC=     1 NCelOv=     1 NCel=       1 NClECP=     1 NCelD=      1
         NCelK=      1 NCelE2=     1 NClLst=     1 CellRange=     0.0.
 One-electron integrals computed using PRISM.
 NBasis=    61 RedAO= T EigKep=  7.37D-03  NBF=    61
 NBsUse=    61 1.00D-06 EigRej= -1.00D+00 NBFU=    61
 Leave Link  302 at Tue Jan  3 09:06:26 2023, MaxMem=   536870912 cpu:               0.2 elap:               0.1
 (Enter /opt/software/gaussian/g16.c01/l303.exe)
 DipDrv:  MaxL=1.
 Leave Link  303 at Tue Jan  3 09:06:26 2023, MaxMem=   536870912 cpu:               0.1 elap:               0.0
 (Enter /opt/software/gaussian/g16.c01/l401.exe)
 ExpMin= 1.22D-01 ExpMax= 9.18D+03 ExpMxC= 1.38D+03 IAcc=3 IRadAn=         5 AccDes= 0.00D+00
 Harris functional with IExCor=  205 and IRadAn=       5 diagonalized for initial guess.
 HarFok:  IExCor=  205 AccDes= 0.00D+00 IRadAn=         5 IDoV= 1 UseB2=F ITyADJ=14
 ICtDFT=  3500011 ScaDFX=  1.000000  1.000000  1.000000  1.000000
 FoFCou: FMM=F IPFlag=           0 FMFlag=      100000 FMFlg1=           0
         NFxFlg=           0 DoJE=T BraDBF=F KetDBF=T FulRan=T
         wScrn=  0.000000 ICntrl=       500 IOpCl=  0 I1Cent=   200000004 NGrid=           0
         NMat0=    1 NMatS0=      1 NMatT0=    0 NMatD0=    1 NMtDS0=    0 NMtDT0=    0
 Symmetry not used in FoFCou.
 Harris En= -491.097750108289    
 JPrj=0 DoOrth=F DoCkMO=F.
 Initial guess <Sx>= 0.0000 <Sy>= 0.0000 <Sz>= 0.0000 <S**2>=-0.0000 S=-0.0000
 Leave Link  401 at Tue Jan  3 09:06:26 2023, MaxMem=   536870912 cpu:               0.6 elap:               0.3
 (Enter /opt/software/gaussian/g16.c01/l502.exe)
 Keep R1 and R2 ints in memory in canonical form, NReq=4427194.
 FoFCou: FMM=F IPFlag=           0 FMFlag=           0 FMFlg1=           0
         NFxFlg=           0 DoJE=F BraDBF=F KetDBF=F FulRan=T
         wScrn=  0.000000 ICntrl=       600 IOpCl=  0 I1Cent=           0 NGrid=           0
         NMat0=    1 NMatS0=   1891 NMatT0=    0 NMatD0=    1 NMtDS0=    0 NMtDT0=    0
 Symmetry not used in FoFCou.
 Two-electron integral symmetry not used.
 UHF open shell SCF:
 Using DIIS extrapolation, IDIIS=  1040.
 NGot=   536870912 LenX=   533283766 LenY=   533279229
 Requested convergence on RMS density matrix=1.00D-08 within 128 cycles.
 Requested convergence on MAX density matrix=1.00D-06.
 Requested convergence on             energy=1.00D-06.
 No special actions if energy rises.

 Cycle   1  Pass 1  IDiag  1:
 E= -491.079375697036    
 DIIS: error= 5.49D-02 at cycle   1 NSaved=   1.
 NSaved= 1 IEnMin= 1 EnMin= -491.079375697036     IErMin= 1 ErrMin= 5.49D-02
 ErrMax= 5.49D-02  0.00D+00 EMaxC= 1.00D-01 BMatC= 1.01D+00 BMatP= 1.01D+00
 IDIUse=3 WtCom= 4.51D-01 WtEn= 5.49D-01
 Coeff-Com:  0.100D+01
 Coeff-En:   0.100D+01
 Coeff:      0.100D+01
 Gap=     0.315 Goal=   None    Shift=    0.000
 Gap=     0.315 Goal=   None    Shift=    0.000
 GapD=    0.315 DampG=1.000 DampE=0.500 DampFc=0.5000 IDamp=-1.
 Damping current iteration by 5.00D-01
 RMSDP=9.29D-03 MaxDP=1.37D-01              OVMax= 2.00D-01

 Cycle   2  Pass 1  IDiag  1:
 E= -491.186070857899     Delta-E=       -0.106695160864 Rises=F Damp=T
 DIIS: error= 1.65D-02 at cycle   2 NSaved=   2.
 NSaved= 2 IEnMin= 2 EnMin= -491.186070857899     IErMin= 2 ErrMin= 1.65D-02
 ErrMax= 1.65D-02  0.00D+00 EMaxC= 1.00D-01 BMatC= 1.20D-01 BMatP= 1.01D+00
 IDIUse=3 WtCom= 8.35D-01 WtEn= 1.65D-01
 Coeff-Com: -0.359D+00 0.136D+01
 Coeff-En:   0.000D+00 0.100D+01
 Coeff:     -0.300D+00 0.130D+01
 Gap=     0.394 Goal=   None    Shift=    0.000
 Gap=     0.394 Goal=   None    Shift=    0.000
 RMSDP=2.22D-03 MaxDP=3.77D-02 DE=-1.07D-01 OVMax= 7.87D-02

 Cycle   3  Pass 1  IDiag  1:
 E= -491.274660760369     Delta-E=       -0.088589902470 Rises=F Damp=F
 DIIS: error= 2.75D-03 at cycle   3 NSaved=   3.
 NSaved= 3 IEnMin= 3 EnMin= -491.274660760369     IErMin= 3 ErrMin= 2.75D-03
 ErrMax= 2.75D-03  0.00D+00 EMaxC= 1.00D-01 BMatC= 2.55D-03 BMatP= 1.20D-01
 IDIUse=3 WtCom= 9.72D-01 WtEn= 2.75D-02
 Coeff-Com: -0.302D-01 0.301D-01 0.100D+01
 Coeff-En:   0.000D+00 0.000D+00 0.100D+01
 Coeff:     -0.294D-01 0.293D-01 0.100D+01
 Gap=     0.392 Goal=   None    Shift=    0.000
 Gap=     0.392 Goal=   None    Shift=    0.000
 RMSDP=6.36D-04 MaxDP=8.14D-03 DE=-8.86D-02 OVMax= 1.14D-02

 Cycle   4  Pass 1  IDiag  1:
 E= -491.275333944038     Delta-E=       -0.000673183669 Rises=F Damp=F
 DIIS: error= 1.81D-03 at cycle   4 NSaved=   4.
 NSaved= 4 IEnMin= 4 EnMin= -491.275333944038     IErMin= 4 ErrMin= 1.81D-03
 ErrMax= 1.81D-03  0.00D+00 EMaxC= 1.00D-01 BMatC= 6.60D-04 BMatP= 2.55D-03
 IDIUse=3 WtCom= 9.82D-01 WtEn= 1.81D-02
 Coeff-Com:  0.501D-02-0.348D-01 0.319D+00 0.711D+00
 Coeff-En:   0.000D+00 0.000D+00 0.000D+00 0.100D+01
 Coeff:      0.492D-02-0.342D-01 0.313D+00 0.716D+00
 Gap=     0.393 Goal=   None    Shift=    0.000
 Gap=     0.393 Goal=   None    Shift=    0.000
 RMSDP=2.85D-04 MaxDP=4.02D-03 DE=-6.73D-04 OVMax= 1.05D-02

 Cycle   5  Pass 1  IDiag  1:
 E= -491.275549789668     Delta-E=       -0.000215845630 Rises=F Damp=F
 DIIS: error= 6.84D-04 at cycle   5 NSaved=   5.
 NSaved= 5 IEnMin= 5 EnMin= -491.275549789668     IErMin= 5 ErrMin= 6.84D-04
 ErrMax= 6.84D-04  0.00D+00 EMaxC= 1.00D-01 BMatC= 1.28D-04 BMatP= 6.60D-04
 IDIUse=3 WtCom= 9.93D-01 WtEn= 6.84D-03
 Coeff-Com:  0.730D-02-0.140D-01-0.926D-01 0.212D+00 0.888D+00
 Coeff-En:   0.000D+00 0.000D+00 0.000D+00 0.000D+00 0.100D+01
 Coeff:      0.725D-02-0.139D-01-0.920D-01 0.210D+00 0.888D+00
 Gap=     0.393 Goal=   None    Shift=    0.000
 Gap=     0.393 Goal=   None    Shift=    0.000
 RMSDP=1.23D-04 MaxDP=1.87D-03 DE=-2.16D-04 OVMax= 2.35D-03

 Cycle   6  Pass 1  IDiag  1:
 E= -491.275600257824     Delta-E=       -0.000050468155 Rises=F Damp=F
 DIIS: error= 2.19D-04 at cycle   6 NSaved=   6.
 NSaved= 6 IEnMin= 6 EnMin= -491.275600257824     IErMin= 6 ErrMin= 2.19D-04
 ErrMax= 2.19D-04  0.00D+00 EMaxC= 1.00D-01 BMatC= 1.13D-05 BMatP= 1.28D-04
 IDIUse=3 WtCom= 9.98D-01 WtEn= 2.19D-03
 Coeff-Com:  0.127D-02-0.270D-05-0.526D-01-0.290D-01-0.561D-01 0.114D+01
 Coeff-En:   0.000D+00 0.000D+00 0.000D+00 0.000D+00 0.000D+00 0.100D+01
 Coeff:      0.126D-02-0.269D-05-0.525D-01-0.289D-01-0.560D-01 0.114D+01
 Gap=     0.393 Goal=   None    Shift=    0.000
 Gap=     0.393 Goal=   None    Shift=    0.000
 RMSDP=7.55D-05 MaxDP=6.39D-04 DE=-5.05D-05 OVMax= 2.67D-03

 Cycle   7  Pass 1  IDiag  1:
 E= -491.275612699911     Delta-E=       -0.000012442088 Rises=F Damp=F
 DIIS: error= 1.13D-04 at cycle   7 NSaved=   7.
 NSaved= 7 IEnMin= 7 EnMin= -491.275612699911     IErMin= 7 ErrMin= 1.13D-04
 ErrMax= 1.13D-04  0.00D+00 EMaxC= 1.00D-01 BMatC= 3.85D-06 BMatP= 1.13D-05
 IDIUse=3 WtCom= 9.99D-01 WtEn= 1.13D-03
 Coeff-Com: -0.123D-02 0.112D-02 0.436D-01 0.289D-01-0.212D+00-0.539D+00
 Coeff-Com:  0.168D+01
 Coeff-En:   0.000D+00 0.000D+00 0.000D+00 0.000D+00 0.000D+00 0.000D+00
 Coeff-En:   0.100D+01
 Coeff:     -0.123D-02 0.112D-02 0.435D-01 0.289D-01-0.212D+00-0.539D+00
 Coeff:      0.168D+01
 Gap=     0.393 Goal=   None    Shift=    0.000
 Gap=     0.393 Goal=   None    Shift=    0.000
 RMSDP=6.58D-05 MaxDP=5.41D-04 DE=-1.24D-05 OVMax= 2.06D-03

 Cycle   8  Pass 1  IDiag  1:
 E= -491.275617420814     Delta-E=       -0.000004720902 Rises=F Damp=F
 DIIS: error= 3.65D-05 at cycle   8 NSaved=   8.
 NSaved= 8 IEnMin= 8 EnMin= -491.275617420814     IErMin= 8 ErrMin= 3.65D-05
 ErrMax= 3.65D-05  0.00D+00 EMaxC= 1.00D-01 BMatC= 3.98D-07 BMatP= 3.85D-06
 IDIUse=1 WtCom= 1.00D+00 WtEn= 0.00D+00
 Coeff-Com: -0.224D-04-0.266D-03 0.290D-02 0.981D-02 0.128D-01-0.890D-01
 Coeff-Com: -0.298D+00 0.136D+01
 Coeff:     -0.224D-04-0.266D-03 0.290D-02 0.981D-02 0.128D-01-0.890D-01
 Coeff:     -0.298D+00 0.136D+01
 Gap=     0.393 Goal=   None    Shift=    0.000
 Gap=     0.393 Goal=   None    Shift=    0.000
 RMSDP=2.76D-05 MaxDP=2.27D-04 DE=-4.72D-06 OVMax= 8.50D-04

 Cycle   9  Pass 1  IDiag  1:
 E= -491.275617985876     Delta-E=       -0.000000565062 Rises=F Damp=F
 DIIS: error= 8.92D-06 at cycle   9 NSaved=   9.
 NSaved= 9 IEnMin= 9 EnMin= -491.275617985876     IErMin= 9 ErrMin= 8.92D-06
 ErrMax= 8.92D-06  0.00D+00 EMaxC= 1.00D-01 BMatC= 2.15D-08 BMatP= 3.98D-07
 IDIUse=1 WtCom= 1.00D+00 WtEn= 0.00D+00
 Coeff-Com:  0.358D-04 0.132D-03-0.533D-02-0.380D-02 0.151D-01 0.835D-01
 Coeff-Com: -0.116D+00-0.284D+00 0.131D+01
 Coeff:      0.358D-04 0.132D-03-0.533D-02-0.380D-02 0.151D-01 0.835D-01
 Coeff:     -0.116D+00-0.284D+00 0.131D+01
 Gap=     0.393 Goal=   None    Shift=    0.000
 Gap=     0.393 Goal=   None    Shift=    0.000
 RMSDP=5.31D-06 MaxDP=5.78D-05 DE=-5.65D-07 OVMax= 1.35D-04

 Cycle  10  Pass 1  IDiag  1:
 E= -491.275618007953     Delta-E=       -0.000000022077 Rises=F Damp=F
 DIIS: error= 1.69D-06 at cycle  10 NSaved=  10.
 NSaved=10 IEnMin=10 EnMin= -491.275618007953     IErMin=10 ErrMin= 1.69D-06
 ErrMax= 1.69D-06  0.00D+00 EMaxC= 1.00D-01 BMatC= 8.53D-10 BMatP= 2.15D-08
 IDIUse=1 WtCom= 1.00D+00 WtEn= 0.00D+00
 Coeff-Com: -0.329D-04 0.307D-04 0.115D-02 0.669D-03-0.431D-02-0.190D-01
 Coeff-Com:  0.492D-01 0.539D-02-0.362D+00 0.133D+01
 Coeff:     -0.329D-04 0.307D-04 0.115D-02 0.669D-03-0.431D-02-0.190D-01
 Coeff:      0.492D-01 0.539D-02-0.362D+00 0.133D+01
 Gap=     0.393 Goal=   None    Shift=    0.000
 Gap=     0.393 Goal=   None    Shift=    0.000
 RMSDP=7.31D-07 MaxDP=8.60D-06 DE=-2.21D-08 OVMax= 1.80D-05

 Cycle  11  Pass 1  IDiag  1:
 E= -491.275618008713     Delta-E=       -0.000000000760 Rises=F Damp=F
 DIIS: error= 4.10D-07 at cycle  11 NSaved=  11.
 NSaved=11 IEnMin=11 EnMin= -491.275618008713     IErMin=11 ErrMin= 4.10D-07
 ErrMax= 4.10D-07  0.00D+00 EMaxC= 1.00D-01 BMatC= 4.33D-11 BMatP= 8.53D-10
 IDIUse=1 WtCom= 1.00D+00 WtEn= 0.00D+00
 Coeff-Com:  0.839D-05-0.116D-04-0.193D-03-0.776D-04 0.877D-03 0.301D-02
 Coeff-Com: -0.122D-01 0.902D-02 0.758D-01-0.497D+00 0.142D+01
 Coeff:      0.839D-05-0.116D-04-0.193D-03-0.776D-04 0.877D-03 0.301D-02
 Coeff:     -0.122D-01 0.902D-02 0.758D-01-0.497D+00 0.142D+01
 Gap=     0.393 Goal=   None    Shift=    0.000
 Gap=     0.393 Goal=   None    Shift=    0.000
 RMSDP=2.19D-07 MaxDP=2.50D-06 DE=-7.60D-10 OVMax= 4.27D-06

 Cycle  12  Pass 1  IDiag  1:
 E= -491.275618008760     Delta-E=       -0.000000000047 Rises=F Damp=F
 DIIS: error= 1.06D-07 at cycle  12 NSaved=  12.
 NSaved=12 IEnMin=12 EnMin= -491.275618008760     IErMin=12 ErrMin= 1.06D-07
 ErrMax= 1.06D-07  0.00D+00 EMaxC= 1.00D-01 BMatC= 3.04D-12 BMatP= 4.33D-11
 IDIUse=1 WtCom= 1.00D+00 WtEn= 0.00D+00
 Coeff-Com: -0.225D-05 0.426D-05 0.182D-04-0.195D-04-0.101D-03-0.243D-03
 Coeff-Com:  0.280D-02-0.536D-02-0.110D-01 0.143D+00-0.643D+00 0.151D+01
 Coeff:     -0.225D-05 0.426D-05 0.182D-04-0.195D-04-0.101D-03-0.243D-03
 Coeff:      0.280D-02-0.536D-02-0.110D-01 0.143D+00-0.643D+00 0.151D+01
 Gap=     0.393 Goal=   None    Shift=    0.000
 Gap=     0.393 Goal=   None    Shift=    0.000
 RMSDP=6.20D-08 MaxDP=5.83D-07 DE=-4.71D-11 OVMax= 1.09D-06

 Cycle  13  Pass 1  IDiag  1:
 E= -491.275618008763     Delta-E=       -0.000000000003 Rises=F Damp=F
 DIIS: error= 1.21D-08 at cycle  13 NSaved=  13.
 NSaved=13 IEnMin=13 EnMin= -491.275618008763     IErMin=13 ErrMin= 1.21D-08
 ErrMax= 1.21D-08  0.00D+00 EMaxC= 1.00D-01 BMatC= 7.05D-14 BMatP= 3.04D-12
 IDIUse=1 WtCom= 1.00D+00 WtEn= 0.00D+00
 Coeff-Com:  0.174D-07-0.147D-06 0.386D-05 0.539D-05-0.124D-04-0.864D-04
 Coeff-Com:  0.267D-04 0.538D-03-0.724D-03-0.691D-02 0.643D-01-0.290D+00
 Coeff-Com:  0.123D+01
 Coeff:      0.174D-07-0.147D-06 0.386D-05 0.539D-05-0.124D-04-0.864D-04
 Coeff:      0.267D-04 0.538D-03-0.724D-03-0.691D-02 0.643D-01-0.290D+00
 Coeff:      0.123D+01
 Gap=     0.393 Goal=   None    Shift=    0.000
 Gap=     0.393 Goal=   None    Shift=    0.000
 RMSDP=7.60D-09 MaxDP=8.59D-08 DE=-3.41D-12 OVMax= 1.57D-07

 SCF Done:  E(UHF) =  -491.275618009     A.U. after   13 cycles
            NFock= 13  Conv=0.76D-08     -V/T= 2.0010
 <Sx>= 0.0000 <Sy>= 0.0000 <Sz>= 0.0000 <S**2>=-0.0000 S=-0.0000
 <L.S>=  0.00000000000    
 KE= 4.907718170322D+02 PE=-1.368824133612D+03 EE= 2.847455188286D+02
 Annihilation of the first spin contaminant:
 S**2 before annihilation    -0.0000,   after     0.0000
 Leave Link  502 at Tue Jan  3 09:06:27 2023, MaxMem=   536870912 cpu:               0.5 elap:               0.3
 (Enter /opt/software/gaussian/g16.c01/l508.exe)
 QCSCF skips out because SCF is already converged.
 Leave Link  508 at Tue Jan  3 09:06:27 2023, MaxMem=   536870912 cpu:               0.0 elap:               0.0
 (Enter /opt/software/gaussian/g16.c01/l601.exe)
 Copying SCF densities to generalized density rwf, IOpCl= 1 IROHF=0.

 **********************************************************************

            Population analysis using the SCF Density.

 **********************************************************************

 Alpha  occ. eigenvalues --  -92.03412 -15.54609 -11.27777  -9.06184  -6.74926
 Alpha  occ. eigenvalues --   -6.74792  -6.74706  -1.21364  -1.01585  -0.80470
 Alpha  occ. eigenvalues --   -0.66171  -0.64001  -0.52340  -0.49634  -0.43382
 Alpha  occ. eigenvalues --   -0.32710
 Alpha virt. eigenvalues --    0.06600   0.18657   0.20428   0.21573   0.29897
 Alpha virt. eigenvalues --    0.36337   0.47658   0.57862   0.65742   0.68215
 Alpha virt. eigenvalues --    0.70630   0.81579   0.82757   0.85995   0.87062
 Alpha virt. eigenvalues --    0.88183   0.89960   0.95539   0.99005   1.03696
 Alpha virt. eigenvalues --    1.08018   1.09814   1.19382   1.30752   1.33791
 Alpha virt. eigenvalues --    1.42066   1.45747   1.68109   1.78010   1.80946
 Alpha virt. eigenvalues --    1.84955   1.93536   2.27085   2.32455   2.32565
 Alpha virt. eigenvalues --    2.43070   2.49246   2.65224   2.70002   2.87195
 Alpha virt. eigenvalues --    2.88085   3.11747   3.20296   3.22749   3.60540
  Beta  occ. eigenvalues --  -92.03412 -15.54609 -11.27777  -9.06184  -6.74926
  Beta  occ. eigenvalues --   -6.74792  -6.74706  -1.21364  -1.01585  -0.80470
  Beta  occ. eigenvalues --   -0.66171  -0.64001  -0.52340  -0.49634  -0.43382
  Beta  occ. eigenvalues --   -0.32710
  Beta virt. eigenvalues --    0.06600   0.18657   0.20428   0.21573   0.29897
  Beta virt. eigenvalues --    0.36337   0.47658   0.57862   0.65742   0.68215
  Beta virt. eigenvalues --    0.70630   0.81579   0.82757   0.85995   0.87062
  Beta virt. eigenvalues --    0.88183   0.89960   0.95539   0.99005   1.03696
  Beta virt. eigenvalues --    1.08018   1.09814   1.19382   1.30752   1.33791
  Beta virt. eigenvalues --    1.42066   1.45747   1.68109   1.78010   1.80946
  Beta virt. eigenvalues --    1.84955   1.93536   2.27085   2.32455   2.32565
  Beta virt. eigenvalues --    2.43070   2.49246   2.65224   2.70002   2.87195
  Beta virt. eigenvalues --    2.88085   3.11747   3.20296   3.22749   3.60540
          Condensed to atoms (all electrons):
               1          2          3          4          5          6
     1  C    5.131453   0.427681  -0.050807   0.396463   0.405674  -0.009439
     2  S    0.427681  14.804751   0.345927  -0.025683  -0.020656  -0.030576
     3  N   -0.050807   0.345927   6.920924   0.001930  -0.001187   0.351161
     4  H    0.396463  -0.025683   0.001930   0.525951  -0.012621   0.000342
     5  H    0.405674  -0.020656  -0.001187  -0.012621   0.514516   0.004000
     6  H   -0.009439  -0.030576   0.351161   0.000342   0.004000   0.537987
          Atomic-Atomic Spin Densities.
               1          2          3          4          5          6
     1  C    0.000000   0.000000   0.000000   0.000000   0.000000   0.000000
     2  S    0.000000   0.000000   0.000000   0.000000   0.000000   0.000000
     3  N    0.000000   0.000000   0.000000   0.000000   0.000000   0.000000
     4  H    0.000000   0.000000   0.000000   0.000000   0.000000   0.000000
     5  H    0.000000   0.000000   0.000000   0.000000   0.000000   0.000000
     6  H    0.000000   0.000000   0.000000   0.000000   0.000000   0.000000
 Mulliken charges and spin densities:
               1          2
     1  C   -0.301024   0.000000
     2  S    0.498556   0.000000
     3  N   -0.567948   0.000000
     4  H    0.113618   0.000000
     5  H    0.110274   0.000000
     6  H    0.146525   0.000000
 Sum of Mulliken charges =  -0.00000   0.00000
 Mulliken charges and spin densities with hydrogens summed into heavy atoms:
               1          2
     1  C   -0.077133   0.000000
     2  S    0.498556   0.000000
     3  N   -0.421423   0.000000
 Electronic spatial extent (au):  <R**2>=            823.8462
 Charge=             -0.0000 electrons
 Dipole moment (field-independent basis, Debye):
    X=             -2.9636    Y=             -0.5804    Z=             -0.3126  Tot=              3.0360
 Quadrupole moment (field-independent basis, Debye-Ang):
   XX=            -41.6924   YY=            -24.7722   ZZ=            -25.8049
   XY=             -4.5371   XZ=             -2.7517   YZ=              1.4385
 Traceless Quadrupole moment (field-independent basis, Debye-Ang):
   XX=            -10.9359   YY=              5.9843   ZZ=              4.9516
   XY=             -4.5371   XZ=             -2.7517   YZ=              1.4385
 Octapole moment (field-independent basis, Debye-Ang**2):
  XXX=           -245.3309  YYY=            -28.3145  ZZZ=            -19.3979  XYY=            -60.5329
  XXY=            -33.6375  XXZ=            -20.6757  XZZ=            -58.8131  YZZ=             -8.6809
  YYZ=             -3.1835  XYZ=             -1.0928
 Hexadecapole moment (field-independent basis, Debye-Ang**3):
 XXXX=          -1245.3912 YYYY=            -90.1331 ZZZZ=            -57.2234 XXXY=           -196.3769
 XXXZ=           -120.6537 YYYX=            -89.6695 YYYZ=            -13.3239 ZZZX=            -58.0392
 ZZZY=            -19.7558 XXYY=           -196.2007 XXZZ=           -175.0633 YYZZ=            -20.4900
 XXYZ=            -20.1364 YYXZ=            -13.1752 ZZXY=            -28.2735
 N-N= 1.020311797422D+02 E-N=-1.368824133892D+03  KE= 4.907718170322D+02
                          Isotropic Fermi Contact Couplings
        Atom                 a.u.       MegaHertz       Gauss      10(-4) cm-1
     1  C(13)              0.00000       0.00000       0.00000       0.00000
     2  S(33)              0.00000       0.00000       0.00000       0.00000
     3  N(14)              0.00000       0.00000       0.00000       0.00000
     4  H(1)               0.00000       0.00000       0.00000       0.00000
     5  H(1)               0.00000       0.00000       0.00000       0.00000
     6  H(1)               0.00000       0.00000       0.00000       0.00000
 --------------------------------------------------------
       Center         ----  Spin Dipole Couplings  ----
                      3XX-RR        3YY-RR        3ZZ-RR
 --------------------------------------------------------
     1   Atom        0.000000      0.000000      0.000000
     2   Atom        0.000000      0.000000      0.000000
     3   Atom        0.000000      0.000000      0.000000
     4   Atom        0.000000      0.000000      0.000000
     5   Atom        0.000000      0.000000      0.000000
     6   Atom        0.000000      0.000000      0.000000
 --------------------------------------------------------
                        XY            XZ            YZ
 --------------------------------------------------------
     1   Atom        0.000000      0.000000      0.000000
     2   Atom        0.000000      0.000000      0.000000
     3   Atom        0.000000      0.000000      0.000000
     4   Atom        0.000000      0.000000      0.000000
     5   Atom        0.000000      0.000000      0.000000
     6   Atom        0.000000      0.000000      0.000000
 --------------------------------------------------------


 ---------------------------------------------------------------------------------
              Anisotropic Spin Dipole Couplings in Principal Axis System
 ---------------------------------------------------------------------------------

       Atom             a.u.   MegaHertz   Gauss  10(-4) cm-1        Axes

              Baa     0.0000     0.000     0.000     0.000  1.0000  0.0000  0.0000
     1 C(13)  Bbb     0.0000     0.000     0.000     0.000 -0.0000  1.0000  0.0000
              Bcc     0.0000     0.000     0.000     0.000  0.0000  0.0000  1.0000
 
              Baa     0.0000     0.000     0.000     0.000  1.0000  0.0000  0.0000
     2 S(33)  Bbb     0.0000     0.000     0.000     0.000 -0.0000  1.0000  0.0000
              Bcc     0.0000     0.000     0.000     0.000  0.0000  0.0000  1.0000
 
              Baa     0.0000     0.000     0.000     0.000  1.0000  0.0000  0.0000
     3 N(14)  Bbb     0.0000     0.000     0.000     0.000 -0.0000  1.0000  0.0000
              Bcc     0.0000     0.000     0.000     0.000  0.0000  0.0000  1.0000
 
              Baa     0.0000     0.000     0.000     0.000  1.0000  0.0000  0.0000
     4 H(1)   Bbb     0.0000     0.000     0.000     0.000 -0.0000  1.0000  0.0000
              Bcc     0.0000     0.000     0.000     0.000  0.0000  0.0000  1.0000
 
              Baa     0.0000     0.000     0.000     0.000  1.0000  0.0000  0.0000
     5 H(1)   Bbb     0.0000     0.000     0.000     0.000 -0.0000  1.0000  0.0000
              Bcc     0.0000     0.000     0.000     0.000  0.0000  0.0000  1.0000
 
              Baa     0.0000     0.000     0.000     0.000  1.0000  0.0000  0.0000
     6 H(1)   Bbb     0.0000     0.000     0.000     0.000 -0.0000  1.0000  0.0000
              Bcc     0.0000     0.000     0.000     0.000  0.0000  0.0000  1.0000
 

 ---------------------------------------------------------------------------------

 No NMR shielding tensors so no spin-rotation constants.
 Leave Link  601 at Tue Jan  3 09:06:27 2023, MaxMem=   536870912 cpu:               0.3 elap:               0.1
 (Enter /opt/software/gaussian/g16.c01/l801.exe)
 Range of M.O.s used for correlation:     1    61
 NBasis=    61 NAE=    16 NBE=    16 NFC=     0 NFV=     0
 NROrb=     61 NOA=    16 NOB=    16 NVA=    45 NVB=    45
 Leave Link  801 at Tue Jan  3 09:06:27 2023, MaxMem=   536870912 cpu:               0.1 elap:               0.0
 (Enter /opt/software/gaussian/g16.c01/l914.exe)
 UHF ground state
 Doing stability rather than CIS.
 Keep R1 and R2 ints in memory in canonical form, NReq=4427534.
 FoFCou: FMM=F IPFlag=           0 FMFlag=           0 FMFlg1=           0
         NFxFlg=           0 DoJE=F BraDBF=F KetDBF=F FulRan=T
         wScrn=  0.000000 ICntrl=       600 IOpCl=  0 I1Cent=           0 NGrid=           0
         NMat0=    1 NMatS0=   1891 NMatT0=    0 NMatD0=    1 NMtDS0=    0 NMtDT0=    0
 Symmetry not used in FoFCou.
 Two-electron integral symmetry not used.
 MDV=   536870912 DFT=F DoStab=T Mixed=F DoRPA=F DoScal=F NonHer=F
 Making orbital integer symmetry assigments:
    12 initial guesses have been made.
 Convergence on wavefunction:    0.001000000000000
 Davidson Disk Diagonalization:  ConvIn= 1.00D-03 SkipCon=T Conv= 1.00D-03.
 Max sub-space:  2000 roots to seek:    12 dimension of matrix:         1440
 Iteration     1 Dimension    12 NMult     0 NNew     12
 CISAX will form    12 AO SS matrices at one time.
 NMat=    12 NSing=    12 JSym2X= 0.
 New state      1 was old state      2
 Excitation Energies [eV] at current iteration:
 Root      1 :    -0.977940551344665
 Root      2 :     4.203742436573021
 Root      3 :     4.544024910869755
 Root      4 :     5.265718752540444
 Root      5 :     5.986006302356989
 Root      6 :     6.900474703483502
 Root      7 :     7.345161182047939
 Root      8 :     8.394852661772930
 Root      9 :     8.709046592805086
 Root     10 :     9.640638516751022
 Root     11 :     9.808503102902558
 Root     12 :    12.966978866669207
 Iteration     2 Dimension    24 NMult    12 NNew     12
 CISAX will form    12 AO SS matrices at one time.
 NMat=    12 NSing=    12 JSym2X= 0.
 Root      1 not converged, maximum delta is    0.071814803274594
 Excitation Energies [eV] at current iteration:
 Root      1 :    -1.960539146777490   Change is   -0.982598595432824
 Root      2 :     3.119892869341041   Change is   -1.083849567231981
 Root      3 :     3.601319629389892   Change is   -0.942705281479863
 Root      4 :     4.218239486180763   Change is   -1.047479266359681
 Root      5 :     4.987958254297266   Change is   -4.820544848605292
 Root      6 :     5.364451771776166   Change is   -0.621554530580823
 Root      7 :     6.223856436536192   Change is   -0.676618266947310
 Root      8 :     6.553088160503411   Change is   -0.792073021544527
 Root      9 :     7.264698322560709   Change is   -1.130154339212221
 Root     10 :     8.242802699275616   Change is   -0.466243893529471
 Root     11 :     8.709611533680592   Change is   -0.931026983070429
 Root     12 :     9.259507123515219   Change is   -3.707471743153989
 Iteration     3 Dimension    27 NMult    24 NNew      3
 CISAX will form     3 AO SS matrices at one time.
 NMat=     3 NSing=     3 JSym2X= 0.
 Root      1 not converged, maximum delta is    0.014771756626214
 Excitation Energies [eV] at current iteration:
 Root      1 :    -2.001356375361777   Change is   -0.040817228584287
 Root      2 :     3.054486837840626   Change is   -0.065406031500415
 Root      3 :     3.540627388333015   Change is   -0.060692241056877
 Iteration     4 Dimension    30 NMult    27 NNew      3
 CISAX will form     3 AO SS matrices at one time.
 NMat=     3 NSing=     3 JSym2X= 0.
 Root      1 not converged, maximum delta is    0.002753944811069
 Excitation Energies [eV] at current iteration:
 Root      1 :    -2.004604854857818   Change is   -0.003248479496042
 Root      2 :     3.047080335201203   Change is   -0.007406502639424
 Root      3 :     3.525885615653762   Change is   -0.014741772679253
 Iteration     5 Dimension    33 NMult    30 NNew      3
 CISAX will form     3 AO SS matrices at one time.
 NMat=     3 NSing=     3 JSym2X= 0.
 Root      1 has converged.
 Excitation Energies [eV] at current iteration:
 Root      1 :    -2.004745881414070   Change is   -0.000141026556251
 Root      2 :     3.046554518490753   Change is   -0.000525816710449
 Root      3 :     3.523277256975607   Change is   -0.002608358678155
 Convergence achieved on expansion vectors.
 ***********************************************************************
 Stability analysis using <AA,BB:AA,BB> singles matrix:
 ***********************************************************************
 1PDM for each excited state written to RWF  633
 Ground to excited state transition densities written to RWF  633

 Eigenvectors of the stability matrix:
 
 Excited state symmetry could not be determined.
 Eigenvector   1:  3.000-?Sym  Eigenvalue=-0.0736731  <S**2>=2.000
     16A -> 17A        0.68612
     16B -> 17B       -0.68612
 The wavefunction has an internal instability.
 Leave Link  914 at Tue Jan  3 09:06:27 2023, MaxMem=   536870912 cpu:               0.6 elap:               0.3
 (Enter /opt/software/gaussian/g16.c01/l508.exe)
 Keep R1 and R2 ints in memory in canonical form, NReq=4427594.
 FoFCou: FMM=F IPFlag=           0 FMFlag=           0 FMFlg1=           0
         NFxFlg=           0 DoJE=F BraDBF=F KetDBF=F FulRan=T
         wScrn=  0.000000 ICntrl=       600 IOpCl=  0 I1Cent=           0 NGrid=           0
         NMat0=    1 NMatS0=   1891 NMatT0=    0 NMatD0=    1 NMtDS0=    0 NMtDT0=    0
 Symmetry not used in FoFCou.
 Two-electron integral symmetry not used.
 Very tight linear equation convergence will be used.
 UHF wavefunction.
 Quadratic Convergence SCF Method.
 Line search only if initial step raises energy.
 Perform preliminary linear searches along instability eigenvector.
     ILin= 1 X=0.000D+00 Y=-4.912756180088D+02 DE= 0.00D+00
     ILin= 2 X=1.000D-01 Y=-4.912763411001D+02 DE=-7.23D-04
     ILin= 3 X=1.414D-01 Y=-4.912770371143D+02 DE=-1.42D-03
     ILin= 4 X=2.000D-01 Y=-4.912783488275D+02 DE=-2.73D-03
     ILin= 5 X=2.828D-01 Y=-4.912806573206D+02 DE=-5.04D-03
     ILin= 6 X=4.000D-01 Y=-4.912840641553D+02 DE=-8.45D-03
     ILin= 7 X=5.657D-01 Y=-4.912864174003D+02 DE=-1.08D-02
     ILin= 8 X=8.000D-01 Y=-4.912760737568D+02 DE=-4.56D-04
     An  expanding polynomial of degree  8 produced  0.5546
 Iteration F X= 5.546D-01 EE=-4.912864334610867D+02
     ILin= 1 X=0.000D+00 Y=-4.912756180088D+02 DE= 0.00D+00
     ILin= 2 X=1.000D-01 Y=-4.912763410999D+02 DE=-7.23D-04
     ILin= 3 X=1.414D-01 Y=-4.912770371138D+02 DE=-1.42D-03
 The two search directions are symmetric.
 Iteration B X= 5.546D-01 EE=-4.912864334610867D+02
 Take forward step, X= 5.546D-01 Step= 5.546D-01
 Iteration   1 EE= -491.286433445532                                    Grad=4.628D-02 Max rot=    1.0092 deg.
 Gradient too large for Newton-Raphson -- use scaled steepest descent instead.
 Alpha Gap=     0.478 HL deriv= 3.79D-03
  Beta Gap=     0.457 HL deriv= 7.24D-03
     ILin= 1 X=0.000D+00 Y=-4.912864334455D+02 DE= 0.00D+00 F= -4.16D-03
     ILin= 2 X=3.000D-01 Y=-4.912875613398D+02 DE=-1.13D-03 F= -3.36D-03 OKLS=F
     ILin= 3 X=6.000D-01 Y=-4.912884475030D+02 DE=-2.01D-03 F= -2.55D-03
     ILin= 4 X=1.200D+00 Y=-4.912894950809D+02 DE=-3.06D-03 F= -9.41D-04
     ILin= 5 X=2.300D+00 Y=-4.912889090222D+02 DE=-2.48D-03 F=  2.01D-03
     An  expanding polynomial of degree  5 produced  1.5510
 Iteration   2 EE= -491.289660241379     Delta-E=       -0.003226795847 Grad=2.328D-02 Max rot=    0.5499 deg.
 Gradient too large for Newton-Raphson -- use scaled steepest descent instead.
 Alpha Gap=     0.475 HL deriv= 1.01D-02
  Beta Gap=     0.459 HL deriv= 2.09D-02
     ILin= 1 X=0.000D+00 Y=-4.912896602414D+02 DE= 0.00D+00 F= -1.21D-03
     ILin= 2 X=7.000D-01 Y=-4.912902607125D+02 DE=-6.00D-04 F= -5.01D-04 OKLS=F
     ILin= 3 X=1.400D+00 Y=-4.912903606985D+02 DE=-7.00D-04 F=  2.15D-04
     Accept linear search using points  2 and  3.
     An  expanding polynomial of degree  3 produced  1.1310
 Iteration   3 EE= -491.290381604678     Delta-E=       -0.000721363299 Grad=2.102D-02 Max rot=    0.2708 deg.
 Gradient too large for Newton-Raphson -- use scaled steepest descent instead.
 Alpha Gap=     0.487 HL deriv= 9.70D-03
  Beta Gap=     0.461 HL deriv= 9.95D-03
     ILin= 1 X=0.000D+00 Y=-4.912903816047D+02 DE= 0.00D+00 F= -7.59D-04
     ILin= 2 X=1.300D+00 Y=-4.912908145481D+02 DE=-4.33D-04 F=  9.23D-05 OKLS=T
     Accept linear search using points  1 and  2.
     An  expanding polynomial of degree  2 produced  1.2185
     Minimum is close to point  2 DX= -8.15D-02 DF= -2.86D-06 DXR=  6.69D-02 DFR=  6.61D-03 which will be used.
 Iteration   4 EE= -491.290814548106     Delta-E=       -0.000432943428 Grad=1.895D-02 Max rot=    0.4374 deg.
 Gradient too large for Newton-Raphson -- use scaled steepest descent instead.
 Alpha Gap=     0.484 HL deriv= 3.18D-03
  Beta Gap=     0.467 HL deriv= 1.63D-02
     ILin= 1 X=0.000D+00 Y=-4.912908145481D+02 DE= 0.00D+00 F= -7.72D-04
     ILin= 2 X=1.200D+00 Y=-4.912911025803D+02 DE=-2.88D-04 F=  2.91D-04 OKLS=T
     Accept linear search using points  1 and  2.
     An  expanding polynomial of degree  2 produced  0.9291
 Iteration   5 EE= -491.291149003392     Delta-E=       -0.000334455286 Grad=1.454D-02 Max rot=    0.2002 deg.
 Gradient too large for Newton-Raphson -- use scaled steepest descent instead.
 Alpha Gap=     0.495 HL deriv= 7.06D-03
  Beta Gap=     0.466 HL deriv= 6.80D-03
     ILin= 1 X=0.000D+00 Y=-4.912911490034D+02 DE= 0.00D+00 F= -3.75D-04
     ILin= 2 X=1.100D+00 Y=-4.912913693639D+02 DE=-2.20D-04 F= -2.54D-05 OKLS=T
     Reject lnstep IMin12=  1  2 Big=T Turn=F Min= 1.158D+00 FVal=-4.912913700308D+02 Lims=  0.00D+00  1.10D+00
     ILin= 3 X=2.100D+00 Y=-4.912912357317D+02 DE=-8.67D-05 F=  2.93D-04
     An  expanding polynomial of degree  3 produced  1.1798
     Minimum is close to point  2 DX=  7.98D-02 DF= -1.01D-06 DXR=  6.77D-02 DFR=  4.60D-03 which will be used.
 Iteration   6 EE= -491.291369363913     Delta-E=       -0.000220360521 Grad=1.056D-02 Max rot=    0.3016 deg.
 Gradient too large for Newton-Raphson -- use scaled steepest descent instead.
 Alpha Gap=     0.493 HL deriv= 2.13D-03
  Beta Gap=     0.471 HL deriv= 1.12D-02
     ILin= 1 X=0.000D+00 Y=-4.912913693639D+02 DE= 0.00D+00 F= -2.79D-04
     ILin= 2 X=1.000D+00 Y=-4.912915242053D+02 DE=-1.55D-04 F= -3.12D-05 OKLS=T
     Reject lnstep IMin12=  1  2 Big=T Turn=F Min= 1.126D+00 FVal=-4.912915261742D+02 Lims=  0.00D+00  1.00D+00
     ILin= 3 X=2.100D+00 Y=-4.912914091977D+02 DE=-3.98D-05 F=  2.40D-04
     An  expanding polynomial of degree  3 produced  1.1268
 Iteration   7 EE= -491.291526174313     Delta-E=       -0.000156810400 Grad=1.127D-02 Max rot=    0.1506 deg.
 Gradient too large for Newton-Raphson -- use scaled steepest descent instead.
 Alpha Gap=     0.501 HL deriv= 5.06D-03
  Beta Gap=     0.469 HL deriv= 4.23D-03
     ILin= 1 X=0.000D+00 Y=-4.912915261743D+02 DE= 0.00D+00 F= -2.18D-04
     ILin= 2 X=1.200D+00 Y=-4.912916345387D+02 DE=-1.08D-04 F=  3.70D-05 OKLS=T
     Accept linear search using points  1 and  2.
     An  expanding polynomial of degree  2 produced  1.0757
 Iteration   8 EE= -491.291637500282     Delta-E=       -0.000111325970 Grad=8.010D-03 Max rot=    0.2194 deg.
 QCNR:  CnvC1=3.79D-10 CnvC2=3.79D-09
 LinEq1:  Iter=  0 NonCon=     1 RMS=3.15D-04 Max=1.05D-02 NDo=     1
 AX will form     1 AO Fock derivatives at one time.
 LinEq1:  Iter=  1 NonCon=     1 RMS=1.94D-04 Max=3.07D-03 NDo=     1
 LinEq1:  Iter=  2 NonCon=     1 RMS=1.22D-05 Max=2.72D-04 NDo=     1
 LinEq1:  Iter=  3 NonCon=     1 RMS=5.10D-06 Max=7.84D-05 NDo=     1
 LinEq1:  Iter=  4 NonCon=     1 RMS=1.92D-06 Max=3.74D-05 NDo=     1
 LinEq1:  Iter=  5 NonCon=     1 RMS=2.70D-07 Max=2.59D-06 NDo=     1
 LinEq1:  Iter=  6 NonCon=     1 RMS=7.41D-08 Max=6.44D-07 NDo=     1
 LinEq1:  Iter=  7 NonCon=     1 RMS=2.22D-08 Max=2.30D-07 NDo=     1
 LinEq1:  Iter=  8 NonCon=     1 RMS=5.79D-09 Max=4.67D-08 NDo=     1
 LinEq1:  Iter=  9 NonCon=     1 RMS=1.40D-09 Max=1.41D-08 NDo=     1
 LinEq1:  Iter= 10 NonCon=     0 RMS=3.11D-10 Max=3.65D-09 NDo=     1
 Linear equations converged to 3.795D-10 3.795D-09 after    10 iterations.
 Angle between quadratic step and gradient=  51.59 degrees.
     ILin= 1 X=0.000D+00 Y=-4.912916375003D+02 DE= 0.00D+00 F= -5.36D-04
     ILin= 2 X=1.000D+00 Y=-4.912918944579D+02 DE=-2.57D-04 F=  3.31D-05 OKLS=T
     Accept linear search using points  1 and  2.
     An  expanding polynomial of degree  2 produced  0.9449
     Minimum is close to point  2 DX= -5.51D-02 DF= -9.11D-07 DXR=  5.83D-02 DFR=  3.55D-03 which will be used.
 Iteration   9 EE= -491.291894457935     Delta-E=       -0.000256957652 Grad=5.537D-04 Max rot=    0.0118 deg.
 QCNR:  CnvC1=3.79D-10 CnvC2=3.79D-09
 LinEq1:  Iter=  0 NonCon=     1 RMS=1.97D-05 Max=4.51D-04 NDo=     1
 LinEq1:  Iter=  1 NonCon=     1 RMS=6.89D-06 Max=1.72D-04 NDo=     1
 LinEq1:  Iter=  2 NonCon=     1 RMS=3.12D-06 Max=3.99D-05 NDo=     1
 LinEq1:  Iter=  3 NonCon=     1 RMS=7.84D-07 Max=1.24D-05 NDo=     1
 LinEq1:  Iter=  4 NonCon=     1 RMS=2.72D-07 Max=4.00D-06 NDo=     1
 LinEq1:  Iter=  5 NonCon=     1 RMS=8.29D-08 Max=1.43D-06 NDo=     1
 LinEq1:  Iter=  6 NonCon=     1 RMS=2.38D-08 Max=2.76D-07 NDo=     1
 LinEq1:  Iter=  7 NonCon=     1 RMS=6.08D-09 Max=6.51D-08 NDo=     1
 LinEq1:  Iter=  8 NonCon=     1 RMS=1.85D-09 Max=1.54D-08 NDo=     1
 LinEq1:  Iter=  9 NonCon=     1 RMS=7.24D-10 Max=8.20D-09 NDo=     1
 LinEq1:  Iter= 10 NonCon=     0 RMS=1.60D-10 Max=1.50D-09 NDo=     1
 Linear equations converged to 3.795D-10 3.795D-09 after    10 iterations.
 Angle between quadratic step and gradient=  45.00 degrees.
     ILin= 1 X=0.000D+00 Y=-4.912918944579D+02 DE= 0.00D+00 F= -2.54D-06
     ILin= 2 X=1.000D+00 Y=-4.912918957316D+02 DE=-1.27D-06 F= -1.47D-08 OKLS=T
     Reject lnstep IMin12=  1  2 Big=T Turn=F Min= 1.006D+00 FVal=-4.912918957316D+02 Lims=  0.00D+00  1.00D+00
     ILin= 3 X=2.000D+00 Y=-4.912918944971D+02 DE=-3.91D-08 F=  2.48D-06
     An  expanding polynomial of degree  3 produced  1.0078
     Minimum is close to point  2 DX=  7.80D-03 DF= -7.63D-11 DXR=  7.74D-03 DFR=  5.99D-05 which will be used.
 Iteration  10 EE= -491.291895731590     Delta-E=       -0.000001273656 Grad=2.807D-06 Max rot=    0.0001 deg.
 QCNR:  CnvC1=2.81D-11 CnvC2=2.81D-10
 LinEq1:  Iter=  0 NonCon=     1 RMS=1.17D-07 Max=3.24D-06 NDo=     1
 LinEq1:  Iter=  1 NonCon=     1 RMS=2.36D-08 Max=4.44D-07 NDo=     1
 LinEq1:  Iter=  2 NonCon=     1 RMS=8.05D-09 Max=1.02D-07 NDo=     1
 LinEq1:  Iter=  3 NonCon=     1 RMS=3.22D-09 Max=4.82D-08 NDo=     1
 LinEq1:  Iter=  4 NonCon=     1 RMS=1.19D-09 Max=1.85D-08 NDo=     1
 LinEq1:  Iter=  5 NonCon=     1 RMS=4.51D-10 Max=5.42D-09 NDo=     1
 LinEq1:  Iter=  6 NonCon=     1 RMS=1.24D-10 Max=1.39D-09 NDo=     1
 LinEq1:  Iter=  7 NonCon=     1 RMS=4.07D-11 Max=4.00D-10 NDo=     1
 LinEq1:  Iter=  8 NonCon=     0 RMS=1.33D-11 Max=1.39D-10 NDo=     1
 Linear equations converged to 2.807D-11 2.807D-10 after     8 iterations.
 Angle between quadratic step and gradient=  37.72 degrees.
     ILin= 1 X=0.000D+00 Y=-4.912918957316D+02 DE= 0.00D+00 F= -8.82D-11
     ILin= 2 X=1.000D+00 Y=-4.912918957316D+02 DE=-4.55D-11
 Iteration  11 EE= -491.291895731636     Delta-E=       -0.000000000045 Grad=2.080D-08 Max rot=    0.0000 deg.
 Rotation gradient small -- convergence achieved.
 SCF Done:  E(UHF) =  -491.291895732     a.u. after   11 cycles
            Convg  =    0.2080D-07                    60 Fock formations.
              S**2 =  0.6769                  -V/T =  2.0003
 <Sx>= 0.0000 <Sy>= 0.0000 <Sz>= 0.0000 <S**2>= 0.6769 S= 0.4628
 <L.S>=  0.00000000000    
 Annihilation of the first spin contaminant:
 S**2 before annihilation     0.6769,   after     0.0877
 Leave Link  508 at Tue Jan  3 09:06:28 2023, MaxMem=   536870912 cpu:               0.8 elap:               0.5
 (Enter /opt/software/gaussian/g16.c01/l801.exe)
 Range of M.O.s used for correlation:     1    61
 NBasis=    61 NAE=    16 NBE=    16 NFC=     0 NFV=     0
 NROrb=     61 NOA=    16 NOB=    16 NVA=    45 NVB=    45
 Leave Link  801 at Tue Jan  3 09:06:28 2023, MaxMem=   536870912 cpu:               0.1 elap:               0.0
 (Enter /opt/software/gaussian/g16.c01/l914.exe)
 UHF ground state
 Doing stability rather than CIS.
 Keep R1 and R2 ints in memory in canonical form, NReq=4427534.
 FoFCou: FMM=F IPFlag=           0 FMFlag=           0 FMFlg1=           0
         NFxFlg=           0 DoJE=F BraDBF=F KetDBF=F FulRan=T
         wScrn=  0.000000 ICntrl=       600 IOpCl=  0 I1Cent=           0 NGrid=           0
         NMat0=    1 NMatS0=   1891 NMatT0=    0 NMatD0=    1 NMtDS0=    0 NMtDT0=    0
 Symmetry not used in FoFCou.
 Two-electron integral symmetry not used.
 MDV=   536870912 DFT=F DoStab=T Mixed=F DoRPA=F DoScal=F NonHer=F
 Making orbital integer symmetry assigments:
    12 initial guesses have been made.
 Convergence on wavefunction:    0.001000000000000
 Davidson Disk Diagonalization:  ConvIn= 1.00D-03 SkipCon=T Conv= 1.00D-03.
 Max sub-space:  2000 roots to seek:    12 dimension of matrix:         1440
 Iteration     1 Dimension    12 NMult     0 NNew     12
 CISAX will form    12 AO SS matrices at one time.
 NMat=    12 NSing=    12 JSym2X= 0.
 New state      1 was old state      3
 Excitation Energies [eV] at current iteration:
 Root      1 :     4.468093699821515
 Root      2 :     4.468663860143269
 Root      3 :     6.363418053131216
 Root      4 :     7.125881075678613
 Root      5 :     7.332380082641622
 Root      6 :     7.533929533486739
 Root      7 :     8.155176491558183
 Root      8 :     8.510030177384607
 Root      9 :     8.899012631926679
 Root     10 :    10.133931868342930
 Root     11 :    10.361439670363167
 Root     12 :    10.933755662954409
 Iteration     2 Dimension    24 NMult    12 NNew     12
 CISAX will form    12 AO SS matrices at one time.
 NMat=    12 NSing=    12 JSym2X= 0.
 New state      1 was old state      2
 Root      1 not converged, maximum delta is    0.393232903867247
 Excitation Energies [eV] at current iteration:
 Root      1 :     2.830168942978441   Change is   -1.638494917164829
 Root      2 :     3.403284895484116   Change is   -1.064808804337399
 Root      3 :     4.282100347394760   Change is   -2.843780728283853
 Root      4 :     5.316991814341645   Change is   -1.046426238789572
 Root      5 :     6.342739807032674   Change is   -0.989640275608949
 Root      6 :     6.614328869165449   Change is   -0.919600664321290
 Root      7 :     7.488188861878896   Change is   -0.666987629679286
 Root      8 :     7.558330057172944   Change is   -0.951700120211662
 Root      9 :     8.163649609038023   Change is   -0.735363022888656
 Root     10 :     9.076968876294883   Change is   -1.284470794068284
 Root     11 :     9.329457435483679   Change is   -1.604298227470730
 Root     12 :     9.401119924366162   Change is   -0.732811943976769
 Iteration     3 Dimension    27 NMult    24 NNew      3
 CISAX will form     3 AO SS matrices at one time.
 NMat=     3 NSing=     3 JSym2X= 0.
 Root      1 not converged, maximum delta is    0.072733521237528
 Excitation Energies [eV] at current iteration:
 Root      1 :     2.631838715332182   Change is   -0.198330227646259
 Root      2 :     3.353352150845966   Change is   -0.049932744638149
 Root      3 :     4.049591114887901   Change is   -0.232509232506859
 Iteration     4 Dimension    30 NMult    27 NNew      3
 CISAX will form     3 AO SS matrices at one time.
 NMat=     3 NSing=     3 JSym2X= 0.
 Root      1 not converged, maximum delta is    0.008157196765008
 Excitation Energies [eV] at current iteration:
 Root      1 :     2.610210967282370   Change is   -0.021627748049812
 Root      2 :     3.348534493548998   Change is   -0.004817657296968
 Root      3 :     4.026041056733517   Change is   -0.023550058154384
 Iteration     5 Dimension    33 NMult    30 NNew      3
 CISAX will form     3 AO SS matrices at one time.
 NMat=     3 NSing=     3 JSym2X= 0.
 Root      1 not converged, maximum delta is    0.003699643094364
 Excitation Energies [eV] at current iteration:
 Root      1 :     2.605901168677142   Change is   -0.004309798605228
 Root      2 :     3.348056588392684   Change is   -0.000477905156315
 Root      3 :     4.021690369982054   Change is   -0.004350686751462
 Iteration     6 Dimension    36 NMult    33 NNew      3
 CISAX will form     3 AO SS matrices at one time.
 NMat=     3 NSing=     3 JSym2X= 0.
 Root      1 not converged, maximum delta is    0.003634213430151
 Excitation Energies [eV] at current iteration:
 Root      1 :     2.604897024760499   Change is   -0.001004143916643
 Root      2 :     3.348029316205158   Change is   -0.000027272187526
 Root      3 :     4.020323850308483   Change is   -0.001366519673572
 Iteration     7 Dimension    39 NMult    36 NNew      3
 CISAX will form     3 AO SS matrices at one time.
 NMat=     3 NSing=     3 JSym2X= 0.
 Root      1 not converged, maximum delta is    0.001192367405564
 Excitation Energies [eV] at current iteration:
 Root      1 :     2.604748154080597   Change is   -0.000148870679902
 Root      2 :     3.348027159328435   Change is   -0.000002156876723
 Root      3 :     4.019923572749501   Change is   -0.000400277558983
 Iteration     8 Dimension    42 NMult    39 NNew      3
 CISAX will form     3 AO SS matrices at one time.
 NMat=     3 NSing=     3 JSym2X= 0.
 Root      1 has converged.
 Excitation Energies [eV] at current iteration:
 Root      1 :     2.604732690090950   Change is   -0.000015463989647
 Root      2 :     3.348027018280430   Change is   -0.000000141048005
 Root      3 :     4.019845030112282   Change is   -0.000078542637219
 Convergence achieved on expansion vectors.
 ***********************************************************************
 Stability analysis using <AA,BB:AA,BB> singles matrix:
 ***********************************************************************
 1PDM for each excited state written to RWF  633
 Ground to excited state transition densities written to RWF  633

 Eigenvectors of the stability matrix:
 
 Excited state symmetry could not be determined.
 Eigenvector   1:  2.004-?Sym  Eigenvalue= 0.0957222  <S**2>=0.754
     13A -> 17A        0.10487
     16A -> 17A        0.16690
     13B -> 17B       -0.27153
     16B -> 17B        0.89431
 The wavefunction is stable under the perturbations considered.
 Leave Link  914 at Tue Jan  3 09:06:28 2023, MaxMem=   536870912 cpu:               0.7 elap:               0.3
 (Enter /opt/software/gaussian/g16.c01/l508.exe)
 The wavefunction is already stable.
 Leave Link  508 at Tue Jan  3 09:06:28 2023, MaxMem=   536870912 cpu:               0.0 elap:               0.0
 (Enter /opt/software/gaussian/g16.c01/l601.exe)
 Copying SCF densities to generalized density rwf, IOpCl= 1 IROHF=0.

 **********************************************************************

            Population analysis using the SCF Density.

 **********************************************************************

 Alpha  occ. eigenvalues --  -91.98841 -15.58237 -11.25053  -9.02228  -6.71040
 Alpha  occ. eigenvalues --   -6.70929  -6.70743  -1.23602  -1.01118  -0.79860
 Alpha  occ. eigenvalues --   -0.66472  -0.63044  -0.56478  -0.50086  -0.44930
 Alpha  occ. eigenvalues --   -0.36752
 Alpha virt. eigenvalues --    0.11493   0.18153   0.20624   0.21904   0.30125
 Alpha virt. eigenvalues --    0.37099   0.48757   0.58844   0.67174   0.69679
 Alpha virt. eigenvalues --    0.75586   0.80853   0.84937   0.87502   0.88217
 Alpha virt. eigenvalues --    0.89193   0.89802   0.94894   0.97451   1.03646
 Alpha virt. eigenvalues --    1.04007   1.09276   1.18536   1.31253   1.34067
 Alpha virt. eigenvalues --    1.44403   1.46351   1.64870   1.77625   1.82623
 Alpha virt. eigenvalues --    1.83996   1.94604   2.29714   2.33404   2.35430
 Alpha virt. eigenvalues --    2.39675   2.50961   2.60294   2.71035   2.82890
 Alpha virt. eigenvalues --    2.83712   3.09615   3.21267   3.22774   3.57662
  Beta  occ. eigenvalues --  -91.98723 -15.55731 -11.27140  -9.02107  -6.70981
  Beta  occ. eigenvalues --   -6.70666  -6.70439  -1.20031  -1.01674  -0.80662
  Beta  occ. eigenvalues --   -0.66323  -0.63888  -0.51543  -0.48435  -0.43408
  Beta  occ. eigenvalues --   -0.33915
  Beta virt. eigenvalues --    0.11612   0.18129   0.20530   0.21613   0.30140
  Beta virt. eigenvalues --    0.36871   0.48646   0.58130   0.66273   0.66587
  Beta virt. eigenvalues --    0.68784   0.80947   0.84660   0.85577   0.88123
  Beta virt. eigenvalues --    0.88977   0.90746   0.98891   0.98972   1.03969
  Beta virt. eigenvalues --    1.10128   1.11641   1.19330   1.31594   1.35237
  Beta virt. eigenvalues --    1.40564   1.46496   1.67337   1.77809   1.80371
  Beta virt. eigenvalues --    1.84151   1.93246   2.25731   2.30981   2.32591
  Beta virt. eigenvalues --    2.42159   2.47891   2.66183   2.70134   2.86862
  Beta virt. eigenvalues --    2.88262   3.11538   3.20467   3.22677   3.59134
          Condensed to atoms (all electrons):
               1          2          3          4          5          6
     1  C    5.185879   0.293736  -0.036962   0.401006   0.399907  -0.009640
     2  S    0.293736  15.190636   0.287091  -0.026717  -0.020384  -0.025992
     3  N   -0.036962   0.287091   6.829829   0.002034  -0.001600   0.343167
     4  H    0.401006  -0.026717   0.002034   0.526496  -0.012490   0.000252
     5  H    0.399907  -0.020384  -0.001600  -0.012490   0.532072   0.004552
     6  H   -0.009640  -0.025992   0.343167   0.000252   0.004552   0.539166
          Atomic-Atomic Spin Densities.
               1          2          3          4          5          6
     1  C   -1.084893   0.143361   0.005705   0.003293  -0.000070   0.000782
     2  S    0.143361   0.151314  -0.165189  -0.001512   0.000986   0.002296
     3  N    0.005705  -0.165189   0.867540   0.000164  -0.000563  -0.003241
     4  H    0.003293  -0.001512   0.000164   0.064882   0.000407  -0.000050
     5  H   -0.000070   0.000986  -0.000563   0.000407   0.069038   0.000033
     6  H    0.000782   0.002296  -0.003241  -0.000050   0.000033  -0.040687
 Mulliken charges and spin densities:
               1          2
     1  C   -0.233927  -0.931823
     2  S    0.301630   0.131257
     3  N   -0.423560   0.704417
     4  H    0.109420   0.067184
     5  H    0.097943   0.069832
     6  H    0.148494  -0.040867
 Sum of Mulliken charges =   0.00000   0.00000
 Mulliken charges and spin densities with hydrogens summed into heavy atoms:
               1          2
     1  C   -0.026564  -0.794806
     2  S    0.301630   0.131257
     3  N   -0.275065   0.663550
 Electronic spatial extent (au):  <R**2>=            821.9714
 Charge=              0.0000 electrons
 Dipole moment (field-independent basis, Debye):
    X=             -2.7933    Y=              0.1681    Z=              0.1786  Tot=              2.8040
 Quadrupole moment (field-independent basis, Debye-Ang):
   XX=            -40.4745   YY=            -23.8226   ZZ=            -25.4507
   XY=             -1.9272   XZ=             -1.0482   YZ=              2.0488
 Traceless Quadrupole moment (field-independent basis, Debye-Ang):
   XX=            -10.5586   YY=              6.0933   ZZ=              4.4652
   XY=             -1.9272   XZ=             -1.0482   YZ=              2.0488
 Octapole moment (field-independent basis, Debye-Ang**2):
  XXX=           -238.3063  YYY=            -26.1393  ZZZ=            -17.9408  XYY=            -57.5231
  XXY=            -24.8434  XXZ=            -14.9969  XZZ=            -57.8124  YZZ=             -8.0296
  YYZ=             -2.8051  XYZ=              1.0243
 Hexadecapole moment (field-independent basis, Debye-Ang**3):
 XXXX=          -1210.9445 YYYY=            -86.1640 ZZZZ=            -55.3634 XXXY=           -166.1191
 XXXZ=           -101.2415 YYYX=            -82.5302 YYYZ=            -12.6489 ZZZX=            -53.2624
 ZZZY=            -18.4265 XXYY=           -186.2577 XXZZ=           -171.3808 YYZZ=            -19.9286
 XXYZ=            -13.4864 YYXZ=            -11.9323 ZZXY=            -26.0869
 N-N= 1.020311797422D+02 E-N=-1.369530026342D+03  KE= 4.911346963598D+02
                          Isotropic Fermi Contact Couplings
        Atom                 a.u.       MegaHertz       Gauss      10(-4) cm-1
     1  C(13)             -0.25337    -142.41886     -50.81859     -47.50582
     2  S(33)              0.02103       3.61222       1.28893       1.20491
     3  N(14)              0.32706      52.83707      18.85358      17.62455
     4  H(1)               0.01976      44.16705      15.75990      14.73254
     5  H(1)               0.02073      46.32578      16.53019      15.45262
     6  H(1)              -0.01534     -34.27810     -12.23128     -11.43394
 --------------------------------------------------------
       Center         ----  Spin Dipole Couplings  ----
                      3XX-RR        3YY-RR        3ZZ-RR
 --------------------------------------------------------
     1   Atom        0.433746      0.035759     -0.469505
     2   Atom       -0.074763     -0.139216      0.213979
     3   Atom       -0.750159     -0.062889      0.813047
     4   Atom        0.039472     -0.029270     -0.010202
     5   Atom        0.034982     -0.023912     -0.011069
     6   Atom       -0.020735      0.019355      0.001380
 --------------------------------------------------------
                        XY            XZ            YZ
 --------------------------------------------------------
     1   Atom        0.014584     -0.021512      0.595077
     2   Atom       -0.082918     -0.041497     -0.411428
     3   Atom       -0.015200      0.044057     -1.032464
     4   Atom       -0.038572     -0.026418     -0.020058
     5   Atom        0.045294      0.029174     -0.017890
     6   Atom       -0.071520     -0.047242      0.025582
 --------------------------------------------------------


 ---------------------------------------------------------------------------------
              Anisotropic Spin Dipole Couplings in Principal Axis System
 ---------------------------------------------------------------------------------

       Atom             a.u.   MegaHertz   Gauss  10(-4) cm-1        Axes

              Baa    -0.8639  -115.924   -41.365   -38.668  0.0200 -0.5518  0.8337
     1 C(13)  Bbb     0.4296    57.647    20.570    19.229 -0.0617  0.8316  0.5519
              Bcc     0.4343    58.277    20.795    19.439  0.9979  0.0625  0.0174
 
              Baa    -0.4340   -17.792    -6.349    -5.935  0.2484  0.8105  0.5305
     2 S(33)  Bbb    -0.0514    -2.106    -0.752    -0.703  0.9685 -0.1965 -0.1532
              Bcc     0.4853    19.898     7.100     6.637  0.0199 -0.5519  0.8337
 
              Baa    -0.7606   -29.336   -10.468    -9.785  0.7728 -0.5205 -0.3631
     3 N(14)  Bbb    -0.7369   -28.420   -10.141    -9.480  0.6343  0.6516  0.4160
              Bcc     1.4975    57.755    20.609    19.265  0.0201 -0.5518  0.8337
 
              Baa    -0.0632   -33.726   -12.034   -11.250  0.4143  0.7635  0.4954
     4 H(1)   Bbb     0.0024     1.301     0.464     0.434  0.0200 -0.5518  0.8337
              Bcc     0.0608    32.426    11.570    10.816  0.9099 -0.3355 -0.2439
 
              Baa    -0.0654   -34.889   -12.449   -11.638 -0.4728  0.7295  0.4942
     5 H(1)   Bbb     0.0015     0.786     0.280     0.262  0.0200 -0.5518  0.8337
              Bcc     0.0639    34.103    12.169    11.376  0.8809  0.4041  0.2463
 
              Baa    -0.0822   -43.850   -15.647   -14.627  0.8126  0.4948  0.3079
     6 H(1)   Bbb    -0.0167    -8.906    -3.178    -2.971  0.0201 -0.5518  0.8337
              Bcc     0.0989    52.755    18.824    17.597 -0.5824  0.6713  0.4584
 

 ---------------------------------------------------------------------------------

 No NMR shielding tensors so no spin-rotation constants.
 Leave Link  601 at Tue Jan  3 09:06:28 2023, MaxMem=   536870912 cpu:               0.4 elap:               0.2
 (Enter /opt/software/gaussian/g16.c01/l9999.exe)

 Test job not archived.
 1\1\GINC-GRA1083\Stability\UHF\Gen\C1H3N1S1\BHAVUK\03-Jan-2023\0\\#p u
 hf/gen stable=opt scf=(maxcycle=900,verytightlineq,xqc) integral=grid=
 ultrafine symmetry=None density=current iop(99/18=-1) output=wfn\\0004
 _q000_m01_k00_opt_uwb97xd_def2svpd/0004_q000_m01_k00_force_uhf_def2svp
  stable-force\\0,1\C,0,0.8882935141,0.1422345627,0.1089263123\S,0,2.50
 67242222,0.1041696479,0.0448895292\N,0,3.3032398974,1.2298974173,0.770
 7622237\H,0,0.3752741579,-0.6653344173,-0.4132293362\H,0,0.3242760911,
 0.9148647349,0.6338600998\H,0,2.7138421188,1.9201180545,1.2418511706\\
 Version=ES64L-G16RevC.01\HF=-491.2918957\S2=0.676933\S2-1=0.\S2A=0.087
 651\RMSD=5.482e-10\Dipole=-1.0989679,0.0661212,0.070254\Quadrupole=-7.
 8500315,4.5302307,3.3198008,-1.4328016,-0.7793406,1.5231976\PG=Unknown
 \\@

 Writing a WFN file to "0004_q000_m01_k00_force_uhf_def2svp.wfn"


 IN THE WOODS WE RETURN TO REASON AND FAITH.

                                 -- EMERSON
 Job cpu time:       0 days  0 hours  0 minutes  5.3 seconds.
 Elapsed time:       0 days  0 hours  0 minutes  2.7 seconds.
 File lengths (MBytes):  RWF=     55 Int=      0 D2E=      0 Chk=      2 Scr=      1
 Normal termination of Gaussian 16 at Tue Jan  3 09:06:28 2023.
 Initial command:
 /opt/software/gaussian/g16.c01/l1.exe "/localscratch/bhavuk.2151400.0/Gau-31899.inp" -scrdir="/localscratch/bhavuk.2151400.0/"
 Entering Link 1 = /opt/software/gaussian/g16.c01/l1.exe PID=     31975.
  
 Copyright (c) 1988-2019, Gaussian, Inc.  All Rights Reserved.
  
 This is part of the Gaussian(R) 16 program.  It is based on
 the Gaussian(R) 09 system (copyright 2009, Gaussian, Inc.),
 the Gaussian(R) 03 system (copyright 2003, Gaussian, Inc.),
 the Gaussian(R) 98 system (copyright 1998, Gaussian, Inc.),
 the Gaussian(R) 94 system (copyright 1995, Gaussian, Inc.),
 the Gaussian 92(TM) system (copyright 1992, Gaussian, Inc.),
 the Gaussian 90(TM) system (copyright 1990, Gaussian, Inc.),
 the Gaussian 88(TM) system (copyright 1988, Gaussian, Inc.),
 the Gaussian 86(TM) system (copyright 1986, Carnegie Mellon
 University), and the Gaussian 82(TM) system (copyright 1983,
 Carnegie Mellon University). Gaussian is a federally registered
 trademark of Gaussian, Inc.
  
 This software contains proprietary and confidential information,
 including trade secrets, belonging to Gaussian, Inc.
  
 This software is provided under written license and may be
 used, copied, transmitted, or stored only in accord with that
 written license.
  
 The following legend is applicable only to US Government
 contracts under FAR:
  
                    RESTRICTED RIGHTS LEGEND
  
 Use, reproduction and disclosure by the US Government is
 subject to restrictions as set forth in subparagraphs (a)
 and (c) of the Commercial Computer Software - Restricted
 Rights clause in FAR 52.227-19.
  
 Gaussian, Inc.
 340 Quinnipiac St., Bldg. 40, Wallingford CT 06492
  
  
 ---------------------------------------------------------------
 Warning -- This program may not be used in any manner that
 competes with the business of Gaussian, Inc. or will provide
 assistance to any competitor of Gaussian, Inc.  The licensee
 of this program is prohibited from giving any competitor of
 Gaussian, Inc. access to this program.  By using this program,
 the user acknowledges that Gaussian, Inc. is engaged in the
 business of creating and licensing software in the field of
 computational chemistry and represents and warrants to the
 licensee that it is not a competitor of Gaussian, Inc. and that
 it will not use this program in any manner prohibited above.
 ---------------------------------------------------------------
  

 Cite this work as:
 Gaussian 16, Revision C.01,
 M. J. Frisch, G. W. Trucks, H. B. Schlegel, G. E. Scuseria, 
 M. A. Robb, J. R. Cheeseman, G. Scalmani, V. Barone, 
 G. A. Petersson, H. Nakatsuji, X. Li, M. Caricato, A. V. Marenich, 
 J. Bloino, B. G. Janesko, R. Gomperts, B. Mennucci, H. P. Hratchian, 
 J. V. Ortiz, A. F. Izmaylov, J. L. Sonnenberg, D. Williams-Young, 
 F. Ding, F. Lipparini, F. Egidi, J. Goings, B. Peng, A. Petrone, 
 T. Henderson, D. Ranasinghe, V. G. Zakrzewski, J. Gao, N. Rega, 
 G. Zheng, W. Liang, M. Hada, M. Ehara, K. Toyota, R. Fukuda, 
 J. Hasegawa, M. Ishida, T. Nakajima, Y. Honda, O. Kitao, H. Nakai, 
 T. Vreven, K. Throssell, J. A. Montgomery, Jr., J. E. Peralta, 
 F. Ogliaro, M. J. Bearpark, J. J. Heyd, E. N. Brothers, K. N. Kudin, 
 V. N. Staroverov, T. A. Keith, R. Kobayashi, J. Normand, 
 K. Raghavachari, A. P. Rendell, J. C. Burant, S. S. Iyengar, 
 J. Tomasi, M. Cossi, J. M. Millam, M. Klene, C. Adamo, R. Cammi, 
 J. W. Ochterski, R. L. Martin, K. Morokuma, O. Farkas, 
 J. B. Foresman, and D. J. Fox, Gaussian, Inc., Wallingford CT, 2019.
 
 ******************************************
 Gaussian 16:  ES64L-G16RevC.01  3-Jul-2019
                 3-Jan-2023 
 ******************************************
 %chk=0004_q000_m01_k00_force_uhf_def2svp.chk
 %nprocshared=2
 Will use up to    2 processors via shared memory.
 %mem=4GB
 ----------------------------------------------------------------------
 #p uhf/chkbasis force guess=read geom=check scf=(maxcycle=900,verytigh
 tlineq,xqc) integral=grid=ultrafine symmetry=None density=current pop=
 (cm5,hlygat,mbs,npa) output=wfx
 ----------------------------------------------------------------------
 1/10=7,29=2,30=1,38=1/1,3;
 2/12=2,15=3,40=1/2;
 3/5=7,6=2,11=2,14=-4,25=1,30=1,67=1,71=1,75=-5,116=2/1,2,3;
 4/5=1/1;
 5/5=2,7=900,8=3,13=1,17=3,38=6/2,8;
 6/7=2,8=2,9=2,10=2,15=8,20=15,22=-1,27=100,28=1,40=-1,79=1/1,2,7;
 7/29=1,30=1/1,2,3,16;
 1/10=7,30=1/3;
 99/6=200/99;
 Leave Link    1 at Tue Jan  3 09:06:29 2023, MaxMem=   536870912 cpu:               0.2 elap:               0.1
 (Enter /opt/software/gaussian/g16.c01/l101.exe)
 ----------------------------------------------------------------------
 0004_q000_m01_k00_opt_uwb97xd_def2svpd/0004_q000_m01_k00_force_uhf_def
 2svp stable-force
 ----------------------------------------------------------------------
 Structure from the checkpoint file:  "0004_q000_m01_k00_force_uhf_def2svp.chk"
 Charge =  0 Multiplicity = 1
 Z-Matrix found in chk file.
 C,0,0.8882935141,0.1422345627,0.1089263123
 S,0,2.5067242222,0.1041696479,0.0448895292
 N,0,3.3032398974,1.2298974173,0.7707622237
 H,0,0.3752741579,-0.6653344173,-0.4132293362
 H,0,0.3242760911,0.9148647349,0.6338600998
 H,0,2.7138421188,1.9201180545,1.2418511706
 Recover connectivity data from disk.
 ITRead=  0  0  0  0  0  0
 MicOpt= -1 -1 -1 -1 -1 -1
 NAtoms=      6 NQM=        6 NQMF=       0 NMMI=      0 NMMIF=      0
                NMic=       0 NMicF=      0.
                    Isotopes and Nuclear Properties:
 (Nuclear quadrupole moments (NQMom) in fm**2, nuclear magnetic moments (NMagM)
  in nuclear magnetons)

  Atom         1           2           3           4           5           6
 IAtWgt=          12          32          14           1           1           1
 AtmWgt=  12.0000000  31.9720718  14.0030740   1.0078250   1.0078250   1.0078250
 NucSpn=           0           0           2           1           1           1
 AtZEff=   3.6000000  13.6000000   4.5500000   1.0000000   1.0000000   1.0000000
 NQMom=    0.0000000   0.0000000   2.0440000   0.0000000   0.0000000   0.0000000
 NMagM=    0.0000000   0.0000000   0.4037610   2.7928460   2.7928460   2.7928460
 AtZNuc=   6.0000000  16.0000000   7.0000000   1.0000000   1.0000000   1.0000000
 Leave Link  101 at Tue Jan  3 09:06:29 2023, MaxMem=   536870912 cpu:               0.4 elap:               0.2
 (Enter /opt/software/gaussian/g16.c01/l103.exe)

 GradGradGradGradGradGradGradGradGradGradGradGradGradGradGradGradGradGrad
 Berny optimization.
 Initialization pass.
 Trust Radius=3.00D-01 FncErr=1.00D-07 GrdErr=1.00D-07 EigMax=2.50D+02 EigMin=1.00D-04
 Number of steps in this run=      2 maximum allowed number of steps=      2.
 GradGradGradGradGradGradGradGradGradGradGradGradGradGradGradGradGradGrad

 Leave Link  103 at Tue Jan  3 09:06:29 2023, MaxMem=   536870912 cpu:               0.1 elap:               0.0
 (Enter /opt/software/gaussian/g16.c01/l202.exe)
                          Input orientation:                          
 ---------------------------------------------------------------------
 Center     Atomic      Atomic             Coordinates (Angstroms)
 Number     Number       Type             X           Y           Z
 ---------------------------------------------------------------------
      1          6           0        0.888294    0.142235    0.108926
      2         16           0        2.506724    0.104170    0.044890
      3          7           0        3.303240    1.229897    0.770762
      4          1           0        0.375274   -0.665334   -0.413229
      5          1           0        0.324276    0.914865    0.633860
      6          1           0        2.713842    1.920118    1.241851
 ---------------------------------------------------------------------
                    Distance matrix (angstroms):
                    1          2          3          4          5
     1  C    0.000000
     2  S    1.620144   0.000000
     3  N    2.730019   1.558394   0.000000
     4  H    1.089956   2.311945   3.683303   0.000000
     5  H    1.091159   2.401498   2.998702   1.896319   0.000000
     6  H    2.788730   2.184785   1.022604   3.859113   2.662745
                    6
     6  H    0.000000
 Symmetry turned off by external request.
 Stoichiometry    CH3NS
 Rotational constants (GHZ):          36.3131241           8.8290023           7.1022055
 Leave Link  202 at Tue Jan  3 09:06:29 2023, MaxMem=   536870912 cpu:               0.0 elap:               0.0
 (Enter /opt/software/gaussian/g16.c01/l301.exe)
 Basis read from chk: "0004_q000_m01_k00_force_uhf_def2svp.chk" (5D, 7F)
 No pseudopotential information found on chk file.
    61 basis functions,   108 primitive gaussians,    64 cartesian basis functions
    16 alpha electrons       16 beta electrons
       nuclear repulsion energy       102.0311797422 Hartrees.
 IExCor=    0 DFT=F Ex=HF Corr=None ExCW=0 ScaHFX=  1.000000
 ScaDFX=  1.000000  1.000000  1.000000  1.000000 ScalE2=  1.000000  1.000000
 IRadAn=      5 IRanWt=     -1 IRanGd=            0 ICorTp=0 IEmpDi=  4
 NAtoms=    6 NActive=    6 NUniq=    6 SFac= 1.00D+00 NAtFMM=   60 NAOKFM=F Big=F
 Integral buffers will be    131072 words long.
 Raffenetti 2 integral format.
 Two-electron integral symmetry is turned off.
 No density basis found on file  20724.
 Leave Link  301 at Tue Jan  3 09:06:29 2023, MaxMem=   536870912 cpu:               0.1 elap:               0.1
 (Enter /opt/software/gaussian/g16.c01/l302.exe)
 NPDir=0 NMtPBC=     1 NCelOv=     1 NCel=       1 NClECP=     1 NCelD=      1
         NCelK=      1 NCelE2=     1 NClLst=     1 CellRange=     0.0.
 One-electron integrals computed using PRISM.
 NBasis=    61 RedAO= T EigKep=  7.37D-03  NBF=    61
 NBsUse=    61 1.00D-06 EigRej= -1.00D+00 NBFU=    61
 Leave Link  302 at Tue Jan  3 09:06:29 2023, MaxMem=   536870912 cpu:               0.2 elap:               0.1
 (Enter /opt/software/gaussian/g16.c01/l303.exe)
 DipDrv:  MaxL=1.
 Leave Link  303 at Tue Jan  3 09:06:29 2023, MaxMem=   536870912 cpu:               0.1 elap:               0.0
 (Enter /opt/software/gaussian/g16.c01/l401.exe)
 Initial guess from the checkpoint file:  "0004_q000_m01_k00_force_uhf_def2svp.chk"
 B after Tr=     0.000000    0.000000    0.000000
         Rot=    1.000000    0.000000    0.000000    0.000000 Ang=   0.00 deg.
 Guess basis will be translated and rotated to current coordinates.
 JPrj=2 DoOrth=T DoCkMO=T.
 Initial guess <Sx>= 0.0000 <Sy>= 0.0000 <Sz>= 0.0000 <S**2>= 0.6769 S= 0.4628
 Leave Link  401 at Tue Jan  3 09:06:29 2023, MaxMem=   536870912 cpu:               0.2 elap:               0.1
 (Enter /opt/software/gaussian/g16.c01/l502.exe)
 Keep R1 and R2 ints in memory in canonical form, NReq=4427194.
 FoFCou: FMM=F IPFlag=           0 FMFlag=           0 FMFlg1=           0
         NFxFlg=           0 DoJE=F BraDBF=F KetDBF=F FulRan=T
         wScrn=  0.000000 ICntrl=       600 IOpCl=  0 I1Cent=           0 NGrid=           0
         NMat0=    1 NMatS0=   1891 NMatT0=    0 NMatD0=    1 NMtDS0=    0 NMtDT0=    0
 Symmetry not used in FoFCou.
 Two-electron integral symmetry not used.
 UHF open shell SCF:
 Using DIIS extrapolation, IDIIS=  1040.
 NGot=   536870912 LenX=   533283766 LenY=   533279229
 Requested convergence on RMS density matrix=1.00D-08 within 128 cycles.
 Requested convergence on MAX density matrix=1.00D-06.
 Requested convergence on             energy=1.00D-06.
 No special actions if energy rises.

 Cycle   1  Pass 1  IDiag  1:
 E= -491.291895732205    
 DIIS: error= 1.59D-09 at cycle   1 NSaved=   1.
 NSaved= 1 IEnMin= 1 EnMin= -491.291895732205     IErMin= 1 ErrMin= 1.59D-09
 ErrMax= 1.59D-09  0.00D+00 EMaxC= 1.00D-01 BMatC= 8.62D-16 BMatP= 8.62D-16
 IDIUse=1 WtCom= 1.00D+00 WtEn= 0.00D+00
 Coeff-Com:  0.100D+01
 Coeff:      0.100D+01
 Gap=     0.482 Goal=   None    Shift=    0.000
 Gap=     0.455 Goal=   None    Shift=    0.000
 RMSDP=3.23D-10 MaxDP=6.66D-09              OVMax= 4.45D-09

 SCF Done:  E(UHF) =  -491.291895732     A.U. after    1 cycles
            NFock=  1  Conv=0.32D-09     -V/T= 2.0003
 <Sx>= 0.0000 <Sy>= 0.0000 <Sz>= 0.0000 <S**2>= 0.6769 S= 0.4628
 <L.S>=  0.00000000000    
 KE= 4.911346964715D+02 PE=-1.369530026471D+03 EE= 2.850722545251D+02
 Annihilation of the first spin contaminant:
 S**2 before annihilation     0.6769,   after     0.0877
[...]
      H    4    0.09045      0.00000     0.40839    0.00116     0.40955
      H    5    0.08054      0.00000     0.41812    0.00135     0.41946
      H    6    0.18785      0.00000     0.30881    0.00334     0.31215
 =======================================================================
   * Total *    0.00000      6.99887     8.92396    0.07716    16.00000

                                 Natural Population      
 --------------------------------------------------------
   Core                       6.99887 ( 99.9839% of   7)
   Valence                    8.92396 ( 99.1551% of   9)
   Natural Minimal Basis     15.92284 ( 99.5177% of  16)
   Natural Rydberg Basis      0.07716 (  0.4823% of  16)
 --------------------------------------------------------

    Atom  No          Natural Electron Configuration
 ----------------------------------------------------------------------------
      C    1      [core]2S( 0.55)2p( 1.36)3p( 0.01)
      S    2      [core]3S( 0.75)3p( 1.87)4S( 0.01)3d( 0.04)4p( 0.01)
      N    3      [core]2S( 0.81)2p( 2.45)
      H    4            1S( 0.41)
      H    5            1S( 0.42)
      H    6            1S( 0.31)


 NBO analysis skipped by request.


 ***************************************************
 *******         Beta  spin orbitals         *******
 ***************************************************


 NATURAL POPULATIONS:  Natural atomic orbital occupancies 
                                                          
   NAO  Atom  No  lang   Type(AO)    Occupancy      Energy
 ----------------------------------------------------------
     1    C    1  S      Cor( 1S)     0.99971     -11.16773
     2    C    1  S      Val( 2S)     0.60502      -0.44033
     3    C    1  S      Ryd( 3S)     0.00086       0.65332
     4    C    1  px     Val( 2p)     0.55979      -0.16118
     5    C    1  px     Ryd( 3p)     0.00327       0.65521
     6    C    1  py     Val( 2p)     0.72393      -0.19003
     7    C    1  py     Ryd( 3p)     0.00201       0.80867
     8    C    1  pz     Val( 2p)     0.84262      -0.29383
     9    C    1  pz     Ryd( 3p)     0.00345       0.72957
    10    C    1  dxy    Ryd( 3d)     0.00040       2.53329
    11    C    1  dxz    Ryd( 3d)     0.00037       2.31078
    12    C    1  dyz    Ryd( 3d)     0.00015       2.46688
    13    C    1  dx2y2  Ryd( 3d)     0.00058       2.50010
    14    C    1  dz2    Ryd( 3d)     0.00010       2.23653
 
    15    S    2  S      Cor( 1S)     1.00000     -91.03664
    16    S    2  S      Cor( 2S)     0.99959      -9.70219
    17    S    2  S      Val( 3S)     0.74665      -0.76975
    18    S    2  S      Ryd( 4S)     0.00792       0.62575
    19    S    2  px     Cor( 2p)     0.99988      -6.69725
    20    S    2  px     Val( 3p)     0.49124      -0.11852
    21    S    2  px     Ryd( 4p)     0.00469       1.00705
    22    S    2  py     Cor( 2p)     0.99993      -6.69856
    23    S    2  py     Val( 3p)     0.62345      -0.21770
    24    S    2  py     Ryd( 4p)     0.00303       0.96886
    25    S    2  pz     Cor( 2p)     0.99993      -6.69822
    26    S    2  pz     Val( 3p)     0.64816      -0.24266
    27    S    2  pz     Ryd( 4p)     0.00266       0.95801
    28    S    2  dxy    Ryd( 3d)     0.00659       1.08603
    29    S    2  dxz    Ryd( 3d)     0.00805       0.98710
    30    S    2  dyz    Ryd( 3d)     0.00491       1.06199
    31    S    2  dx2y2  Ryd( 3d)     0.01154       1.17367
    32    S    2  dz2    Ryd( 3d)     0.00687       1.00179
 
    33    N    3  S      Cor( 1S)     0.99983     -15.42096
    34    N    3  S      Val( 2S)     0.77434      -0.73496
    35    N    3  S      Ryd( 3S)     0.00044       1.12527
    36    N    3  px     Val( 2p)     0.82727      -0.32426
    37    N    3  px     Ryd( 3p)     0.00216       1.09712
    38    N    3  py     Val( 2p)     0.53852      -0.15549
    39    N    3  py     Ryd( 3p)     0.00175       1.11728
    40    N    3  pz     Val( 2p)     0.44890      -0.08796
    41    N    3  pz     Ryd( 3p)     0.00190       1.09524
    42    N    3  dxy    Ryd( 3d)     0.00096       3.04542
    43    N    3  dxz    Ryd( 3d)     0.00073       2.80679
    44    N    3  dyz    Ryd( 3d)     0.00051       3.00747
    45    N    3  dx2y2  Ryd( 3d)     0.00064       2.73240
    46    N    3  dz2    Ryd( 3d)     0.00057       2.72516
 
    47    H    4  S      Val( 1S)     0.37048       0.14580
    48    H    4  S      Ryd( 2S)     0.00046       0.40226
    49    H    4  px     Ryd( 2p)     0.00018       2.17104
    50    H    4  py     Ryd( 2p)     0.00040       2.31281
    51    H    4  pz     Ryd( 2p)     0.00029       2.04313
 
    52    H    5  S      Val( 1S)     0.37777       0.13896
    53    H    5  S      Ryd( 2S)     0.00069       0.40578
    54    H    5  px     Ryd( 2p)     0.00019       2.20056
    55    H    5  py     Ryd( 2p)     0.00036       2.28206
    56    H    5  pz     Ryd( 2p)     0.00028       2.04530
 
    57    H    6  S      Val( 1S)     0.33988       0.17320
    58    H    6  S      Ryd( 2S)     0.00152       0.46879
    59    H    6  px     Ryd( 2p)     0.00057       2.18296
    60    H    6  py     Ryd( 2p)     0.00071       2.26790
    61    H    6  pz     Ryd( 2p)     0.00037       2.05115


 Summary of Natural Population Analysis:                  
                                                          
                                       Natural Population 
                Natural  -----------------------------------------------
    Atom  No    Charge         Core      Valence    Rydberg      Total
 -----------------------------------------------------------------------
      C    1   -0.74225      0.99971     2.73136    0.01119     3.74225
      S    2    0.43492      4.99934     2.50950    0.05625     7.56508
      N    3   -0.09851      0.99983     2.58902    0.00966     3.59851
      H    4    0.12819      0.00000     0.37048    0.00133     0.37181
      H    5    0.12072      0.00000     0.37777    0.00151     0.37928
      H    6    0.15695      0.00000     0.33988    0.00317     0.34305
 =======================================================================
   * Total *    0.00000      6.99887     8.91800    0.08312    16.00000

                                 Natural Population      
 --------------------------------------------------------
   Core                       6.99887 ( 99.9839% of   7)
   Valence                    8.91800 ( 99.0889% of   9)
   Natural Minimal Basis     15.91688 ( 99.4805% of  16)
   Natural Rydberg Basis      0.08312 (  0.5195% of  16)
 --------------------------------------------------------

    Atom  No          Natural Electron Configuration
 ----------------------------------------------------------------------------
      C    1      [core]2S( 0.61)2p( 2.13)3p( 0.01)
      S    2      [core]3S( 0.75)3p( 1.76)4S( 0.01)3d( 0.04)4p( 0.01)
      N    3      [core]2S( 0.77)2p( 1.81)3p( 0.01)
      H    4            1S( 0.37)
      H    5            1S( 0.38)
      H    6            1S( 0.34)


 NBO analysis skipped by request.
 Leave Link  607 at Tue Jan  3 09:06:32 2023, MaxMem=   536870912 cpu:               3.5 elap:               1.8
 (Enter /opt/software/gaussian/g16.c01/l701.exe)
 ... and contract with generalized density number  0.
 Compute integral first derivatives.
 Leave Link  701 at Tue Jan  3 09:06:32 2023, MaxMem=   536870912 cpu:               0.2 elap:               0.1
 (Enter /opt/software/gaussian/g16.c01/l702.exe)
 L702 exits ... SP integral derivatives will be done elsewhere.
 Leave Link  702 at Tue Jan  3 09:06:32 2023, MaxMem=   536870912 cpu:               0.1 elap:               0.0
 (Enter /opt/software/gaussian/g16.c01/l703.exe)
 Integral derivatives from FoFJK, PRISM(SPDF).
 Compute integral first derivatives, UseDBF=F ICtDFT=           0.
 Calling FoFJK, ICntrl=      2127 FMM=F ISym2X=0 I1Cent= 0 IOpClX= 1 NMat=1 NMatS=1 NMatT=0.
 FoFJK:  IHMeth= 1 ICntrl=    2127 DoSepK=F KAlg= 0 I1Cent=           0 FoldK=F
 IRaf=         0 NMat=       1 IRICut=       1 DoRegI=T DoRafI=F ISym2E= 0 IDoP0=0 IntGTp=1.
 FoFCou: FMM=F IPFlag=           0 FMFlag=      100000 FMFlg1=         800
         NFxFlg=           0 DoJE=F BraDBF=F KetDBF=F FulRan=T
         wScrn=  0.000000 ICntrl=      2127 IOpCl=  1 I1Cent=           0 NGrid=           0
         NMat0=    1 NMatS0=      1 NMatT0=    0 NMatD0=    1 NMtDS0=    0 NMtDT0=    0
 Symmetry not used in FoFCou.
 Leave Link  703 at Tue Jan  3 09:06:33 2023, MaxMem=   536870912 cpu:               0.6 elap:               0.3
 (Enter /opt/software/gaussian/g16.c01/l716.exe)
 Dipole        =-1.09896798D+00 6.61211565D-02 7.02540031D-02
 -------------------------------------------------------------------
 Center     Atomic                   Forces (Hartrees/Bohr)
 Number     Number              X              Y              Z
 -------------------------------------------------------------------
      1        6          -0.042251236    0.009187620    0.007097070
      2       16           0.038494420   -0.024958076   -0.017446283
      3        7          -0.006949809    0.022132054    0.014821300
      4        1           0.002795275    0.005442809    0.003535783
      5        1           0.001347579   -0.005321496   -0.003555050
      6        1           0.006563772   -0.006482911   -0.004452820
 -------------------------------------------------------------------
 Cartesian Forces:  Max     0.042251236 RMS     0.017134267
 Z-matrix is all fixed cartesians, so copy forces.
 Force constants in Cartesian coordinates: 
                1             2             3             4             5 
      1  0.814685D+00
      2 -0.103178D-01  0.489891D+00
      3 -0.236660D-01  0.249297D+00  0.279166D+00
      4 -0.473219D+00  0.285194D-01  0.292131D-01  0.664394D+00
      5  0.961866D-02 -0.824860D-01 -0.267353D-01  0.176381D+00  0.396780D+00
      6  0.167037D-01 -0.271885D-01 -0.608333D-01  0.101780D+00  0.230703D+00
      7 -0.980132D-03 -0.200337D-01 -0.128629D-01 -0.210895D+00 -0.175482D+00
      8  0.308076D-03  0.143332D-01 -0.733807D-03 -0.217229D+00 -0.336130D+00
      9  0.597737D-03 -0.245367D-03  0.152527D-01 -0.139479D+00 -0.196571D+00
     10 -0.163349D+00 -0.915366D-01 -0.575233D-01 -0.926052D-03 -0.186700D-01
     11 -0.836129D-01 -0.214907D+00 -0.116374D+00  0.389598D-03  0.844345D-02
     12 -0.522783D-01 -0.116182D+00 -0.111677D+00  0.307294D-03  0.528464D-02
     13 -0.177134D+00  0.932947D-01  0.649511D-01  0.905791D-03  0.178651D-01
     14  0.839304D-01 -0.204801D+00 -0.108521D+00  0.246077D-03  0.152696D-01
     15  0.587541D-01 -0.108748D+00 -0.117275D+00  0.611040D-03 -0.327945D-02
     16 -0.268673D-05  0.740782D-04 -0.111937D-03  0.197412D-01 -0.971277D-02
     17  0.736242D-04 -0.202996D-02  0.306739D-02  0.116927D-01 -0.187726D-02
     18 -0.111233D-03  0.306689D-02 -0.463426D-02  0.756733D-02 -0.940153D-02
                6             7             8             9            10 
      6  0.192015D+00
      7 -0.111851D+00  0.406134D+00
      8 -0.195565D+00  0.534271D-01  0.531518D+00
      9 -0.159476D+00  0.263756D-01  0.328043D+00  0.250445D+00
     10 -0.123067D-01  0.228968D-05 -0.631307D-04  0.953945D-04  0.135830D+00
     11  0.482750D-02 -0.631368D-04  0.174080D-02 -0.263045D-02  0.957457D-01
     12  0.462508D-02  0.953981D-04 -0.263030D-02  0.397455D-02  0.605513D-01
     13  0.122731D-01 -0.247110D-05  0.681327D-04 -0.102953D-03  0.284430D-01
     14 -0.285735D-02  0.681506D-04 -0.187904D-02  0.283934D-02  0.145241D-01
     15  0.173925D-01 -0.102963D-03  0.283889D-02 -0.428974D-02  0.918329D-02
     16 -0.659932D-02 -0.194258D+00  0.163489D+00  0.112513D+00  0.000000D+00
     17 -0.991929D-02  0.142084D+00 -0.209584D+00 -0.131436D+00  0.000000D+00
     18  0.627668D-02  0.983460D-01 -0.131953D+00 -0.105907D+00  0.000000D+00
               11            12            13            14            15 
     11  0.207851D+00
     12  0.122960D+00  0.985155D-01
     13 -0.124593D-01 -0.867575D-02  0.147787D+00
     14 -0.312790D-02 -0.943229D-02 -0.987686D-01  0.194538D+00
     15 -0.878307D-02  0.456134D-02 -0.684455D-01  0.117972D+00  0.996107D-01
     16  0.000000D+00  0.000000D+00  0.000000D+00  0.000000D+00  0.000000D+00
     17  0.000000D+00  0.000000D+00  0.000000D+00  0.000000D+00  0.000000D+00
     18  0.000000D+00  0.000000D+00  0.000000D+00  0.000000D+00  0.000000D+00
               16            17            18 
     16  0.174519D+00
     17 -0.153850D+00  0.213491D+00
     18 -0.105802D+00  0.138288D+00  0.104265D+00
 Leave Link  716 at Tue Jan  3 09:06:33 2023, MaxMem=   536870912 cpu:               0.1 elap:               0.0
 (Enter /opt/software/gaussian/g16.c01/l103.exe)

 GradGradGradGradGradGradGradGradGradGradGradGradGradGradGradGradGradGrad
 Berny optimization.
 Search for a local minimum.
 Step number   1 out of a maximum of    2
 All quantities printed in internal units (Hartrees-Bohrs-Radians)
 Second derivative matrix not updated -- first step.
 The second derivative matrix:
                          X1        Y1        Z1        X2        Y2
           X1           0.81469
           Y1          -0.01032   0.48989
           Z1          -0.02367   0.24930   0.27917
           X2          -0.47322   0.02852   0.02921   0.66439
           Y2           0.00962  -0.08249  -0.02674   0.17638   0.39678
           Z2           0.01670  -0.02719  -0.06083   0.10178   0.23070
           X3          -0.00098  -0.02003  -0.01286  -0.21090  -0.17548
           Y3           0.00031   0.01433  -0.00073  -0.21723  -0.33613
           Z3           0.00060  -0.00025   0.01525  -0.13948  -0.19657
           X4          -0.16335  -0.09154  -0.05752  -0.00093  -0.01867
           Y4          -0.08361  -0.21491  -0.11637   0.00039   0.00844
           Z4          -0.05228  -0.11618  -0.11168   0.00031   0.00528
           X5          -0.17713   0.09329   0.06495   0.00091   0.01787
           Y5           0.08393  -0.20480  -0.10852   0.00025   0.01527
           Z5           0.05875  -0.10875  -0.11727   0.00061  -0.00328
           X6          -0.00000   0.00007  -0.00011   0.01974  -0.00971
           Y6           0.00007  -0.00203   0.00307   0.01169  -0.00188
           Z6          -0.00011   0.00307  -0.00463   0.00757  -0.00940
                          Z2        X3        Y3        Z3        X4
           Z2           0.19201
           X3          -0.11185   0.40613
           Y3          -0.19556   0.05343   0.53152
           Z3          -0.15948   0.02638   0.32804   0.25045
           X4          -0.01231   0.00000  -0.00006   0.00010   0.13583
           Y4           0.00483  -0.00006   0.00174  -0.00263   0.09575
           Z4           0.00463   0.00010  -0.00263   0.00397   0.06055
           X5           0.01227  -0.00000   0.00007  -0.00010   0.02844
           Y5          -0.00286   0.00007  -0.00188   0.00284   0.01452
           Z5           0.01739  -0.00010   0.00284  -0.00429   0.00918
           X6          -0.00660  -0.19426   0.16349   0.11251   0.00000
           Y6          -0.00992   0.14208  -0.20958  -0.13144   0.00000
           Z6           0.00628   0.09835  -0.13195  -0.10591   0.00000
                          Y4        Z4        X5        Y5        Z5
           Y4           0.20785
           Z4           0.12296   0.09852
           X5          -0.01246  -0.00868   0.14779
           Y5          -0.00313  -0.00943  -0.09877   0.19454
           Z5          -0.00878   0.00456  -0.06845   0.11797   0.09961
           X6           0.00000   0.00000   0.00000   0.00000   0.00000
           Y6           0.00000   0.00000   0.00000   0.00000   0.00000
           Z6           0.00000   0.00000   0.00000   0.00000   0.00000
                          X6        Y6        Z6
           X6           0.17452
           Y6          -0.15385   0.21349
           Z6          -0.10580   0.13829   0.10426
 ITU=  0
     Eigenvalues ---    0.01003   0.01738   0.04698   0.06571   0.11631
     Eigenvalues ---    0.13625   0.18094   0.33456   0.69321   0.85789
     Eigenvalues ---    1.12959   1.46007
 Angle between quadratic step and forces=  68.23 degrees.
 Linear search not attempted -- first point.
 B after Tr=     0.025848   -0.024537   -0.016874
         Rot=    0.999999   -0.000033    0.000794   -0.001198 Ang=  -0.16 deg.
 Variable       Old X    -DE/DX   Delta X   Delta X   Delta X     New X
                                 (Linear)    (Quad)   (Total)
    X1        1.67863  -0.04225   0.00000   0.00626   0.03099   1.70962
    Y1        0.26878   0.00919   0.00000   0.04107   0.02056   0.28934
    Z1        0.20584   0.00710   0.00000   0.02704   0.01286   0.21870
    X2        4.73702   0.03849   0.00000   0.08188   0.10735   4.84437
    Y2        0.19685  -0.02496   0.00000  -0.07086  -0.08386   0.11299
    Z2        0.08483  -0.01745   0.00000  -0.04890  -0.05811   0.02672
    X3        6.24222  -0.00695   0.00000  -0.07518  -0.05735   6.18487
    Y3        2.32417   0.02213   0.00000   0.03097   0.02109   2.34526
    Z3        1.45653   0.01482   0.00000   0.02238   0.01545   1.47197
    X4        0.70917   0.00280   0.00000  -0.05492  -0.02512   0.68404
    Y4       -1.25730   0.00544   0.00000   0.08675   0.06383  -1.19347
    Z4       -0.78089   0.00354   0.00000   0.05873   0.04282  -0.73807
    X5        0.61279   0.00135   0.00000   0.06334   0.08296   0.69575
    Y5        1.72884  -0.00532   0.00000   0.05309   0.03009   1.75893
    Z5        1.19782  -0.00356   0.00000   0.03367   0.01798   1.21580
    X6        5.12842   0.00656   0.00000  -0.15237  -0.13883   4.98959
    Y6        3.62850  -0.00648   0.00000  -0.03892  -0.05171   3.57679
    Z6        2.34676  -0.00445   0.00000  -0.02226  -0.03100   2.31576
         Item               Value     Threshold  Converged?
 Maximum Force            0.042251     0.000450     NO 
 RMS     Force            0.017134     0.000300     NO 
 Maximum Displacement     0.138829     0.001800     NO 
 RMS     Displacement     0.060098     0.001200     NO 
 Predicted change in Energy=-3.589150D-03
 GradGradGradGradGradGradGradGradGradGradGradGradGradGradGradGradGradGrad

 Leave Link  103 at Tue Jan  3 09:06:33 2023, MaxMem=   536870912 cpu:               0.0 elap:               0.0
 (Enter /opt/software/gaussian/g16.c01/l9999.exe)
 Unable to Open any file for archive entry.
 1\1\GINC-GRA1083\Force\UHF\Gen\C1H3N1S1\BHAVUK\03-Jan-2023\0\\#p uhf/c
 hkbasis force guess=read geom=check scf=(maxcycle=900,verytightlineq,x
 qc) integral=grid=ultrafine symmetry=None density=current pop=(cm5,hly
 gat,mbs,npa) output=wfx\\0004_q000_m01_k00_opt_uwb97xd_def2svpd/0004_q
 000_m01_k00_force_uhf_def2svp stable-force\\0,1\C,0.8882935141,0.14223
 45627,0.1089263123\S,2.5067242222,0.1041696479,0.0448895292\N,3.303239
 8974,1.2298974173,0.7707622237\H,0.3752741579,-0.6653344173,-0.4132293
 362\H,0.3242760911,0.9148647349,0.6338600998\H,2.7138421188,1.92011805
 45,1.2418511706\\Version=ES64L-G16RevC.01\HF=-491.2918957\S2=0.676933\
 S2-1=0.\S2A=0.087651\RMSD=3.234e-10\RMSF=1.713e-02\Dipole=-1.098968,0.
 0661212,0.070254\Quadrupole=-7.8500316,4.5302308,3.3198008,-1.4328016,
 -0.7793406,1.5231976\PG=Unknown\\@
 The archive entry for this job was punched.

 Writing a WFNX file to "0004_q000_m01_k00_force_uhf_def2svp.wfx"


 THE TRULY SUCCESSFUL PERFORMANCE OF RESEARCHES IN
 INORGANIC CHEMISTRY IS POSSIBLE ONLY TO ONE WHO IS NOT
 ONLY A THEORETICAL CHEMIST, BUT ALSO AN ACCOMPLISHED
 ANALYST AND, MOREOVER, NOT MERELY A PRACTICALLY TRAINED,
 MECHANICAL WORKER, BUT A THINKING CREATIVE ARTIST.
   --  CLEMENS WINKLER, BER. 33, 1697(1900)
 Job cpu time:       0 days  0 hours  0 minutes  7.9 seconds.
 Elapsed time:       0 days  0 hours  0 minutes  3.7 seconds.
 File lengths (MBytes):  RWF=      6 Int=      0 D2E=      0 Chk=      2 Scr=      1
 Normal termination of Gaussian 16 at Tue Jan  3 09:06:33 2023.
