 Entering Gaussian System, Link 0=g16
 Input=0004_q000_m01_k00_force_uhf_def2tzvp.com
 Output=0004_q000_m01_k00_force_uhf_def2tzvp.log
 Initial command:
 /opt/software/gaussian/g16.c01/l1.exe "/localscratch/bhavuk.2151402.0/Gau-22983.inp" -scrdir="/localscratch/bhavuk.2151402.0/"
 Entering Link 1 = /opt/software/gaussian/g16.c01/l1.exe PID=     22987.
  
 Copyright (c) 1988-2019, Gaussian, Inc.  All Rights Reserved.
  
 This is part of the Gaussian(R) 16 program.  It is based on
 the Gaussian(R) 09 system (copyright 2009, Gaussian, Inc.),
 the Gaussian(R) 03 system (copyright 2003, Gaussian, Inc.),
 the Gaussian(R) 98 system (copyright 1998, Gaussian, Inc.),
 the Gaussian(R) 94 system (copyright 1995, Gaussian, Inc.),
 the Gaussian 92(TM) system (copyright 1992, Gaussian, Inc.),
 the Gaussian 90(TM) system (copyright 1990, Gaussian, Inc.),
 the Gaussian 88(TM) system (copyright 1988, Gaussian, Inc.),
 the Gaussian 86(TM) system (copyright 1986, Carnegie Mellon
 University), and the Gaussian 82(TM) system (copyright 1983,
 Carnegie Mellon University). Gaussian is a federally registered
 trademark of Gaussian, Inc.
  
 This software contains proprietary and confidential information,
 including trade secrets, belonging to Gaussian, Inc.
  
 This software is provided under written license and may be
 used, copied, transmitted, or stored only in accord with that
 written license.
  
 The following legend is applicable only to US Government
 contracts under FAR:
  
                    RESTRICTED RIGHTS LEGEND
  
 Use, reproduction and disclosure by the US Government is
 subject to restrictions as set forth in subparagraphs (a)
 and (c) of the Commercial Computer Software - Restricted
 Rights clause in FAR 52.227-19.
  
 Gaussian, Inc.
 340 Quinnipiac St., Bldg. 40, Wallingford CT 06492
  
  
 ---------------------------------------------------------------
 Warning -- This program may not be used in any manner that
 competes with the business of Gaussian, Inc. or will provide
 assistance to any competitor of Gaussian, Inc.  The licensee
 of this program is prohibited from giving any competitor of
 Gaussian, Inc. access to this program.  By using this program,
 the user acknowledges that Gaussian, Inc. is engaged in the
 business of creating and licensing software in the field of
 computational chemistry and represents and warrants to the
 licensee that it is not a competitor of Gaussian, Inc. and that
 it will not use this program in any manner prohibited above.
 ---------------------------------------------------------------
  

 Cite this work as:
 Gaussian 16, Revision C.01,
 M. J. Frisch, G. W. Trucks, H. B. Schlegel, G. E. Scuseria, 
 M. A. Robb, J. R. Cheeseman, G. Scalmani, V. Barone, 
 G. A. Petersson, H. Nakatsuji, X. Li, M. Caricato, A. V. Marenich, 
 J. Bloino, B. G. Janesko, R. Gomperts, B. Mennucci, H. P. Hratchian, 
 J. V. Ortiz, A. F. Izmaylov, J. L. Sonnenberg, D. Williams-Young, 
 F. Ding, F. Lipparini, F. Egidi, J. Goings, B. Peng, A. Petrone, 
 T. Henderson, D. Ranasinghe, V. G. Zakrzewski, J. Gao, N. Rega, 
 G. Zheng, W. Liang, M. Hada, M. Ehara, K. Toyota, R. Fukuda, 
 J. Hasegawa, M. Ishida, T. Nakajima, Y. Honda, O. Kitao, H. Nakai, 
 T. Vreven, K. Throssell, J. A. Montgomery, Jr., J. E. Peralta, 
 F. Ogliaro, M. J. Bearpark, J. J. Heyd, E. N. Brothers, K. N. Kudin, 
 V. N. Staroverov, T. A. Keith, R. Kobayashi, J. Normand, 
 K. Raghavachari, A. P. Rendell, J. C. Burant, S. S. Iyengar, 
 J. Tomasi, M. Cossi, J. M. Millam, M. Klene, C. Adamo, R. Cammi, 
 J. W. Ochterski, R. L. Martin, K. Morokuma, O. Farkas, 
 J. B. Foresman, and D. J. Fox, Gaussian, Inc., Wallingford CT, 2019.
 
 ******************************************
 Gaussian 16:  ES64L-G16RevC.01  3-Jul-2019
                 3-Jan-2023 
 ******************************************
 %chk=0004_q000_m01_k00_force_uhf_def2tzvp.chk
 %nprocshared=2
 Will use up to    2 processors via shared memory.
 %mem=4GB
 ----------------------------------------------------------------------
 #p uhf/gen stable=opt scf=(maxcycle=900,verytightlineq,xqc) integral=g
 rid=ultrafine symmetry=None density=current iop(99/18=-1) output=wfn
 ----------------------------------------------------------------------
 1/38=1,172=1/1;
 2/12=2,15=3,17=6,18=5,40=1/2;
 3/5=7,11=2,25=1,30=1,75=-5,116=2/1,2,3;
 4//1;
 5/5=2,7=900,8=3,13=1,17=3,38=5/2,8;
 6/7=2,8=2,9=2,10=2,22=-1,28=1/1;
 8/6=1,10=90,11=11/1;
 9/8=-3,42=1,46=1/14;
 5/5=2,7=900,8=3,17=43,38=5/8(-2);
 6/7=2,8=2,9=2,10=2,22=-1,28=1/1;
 99/5=1,6=100,9=1,18=-1/99;
 Leave Link    1 at Tue Jan  3 09:06:32 2023, MaxMem=   536870912 cpu:               0.1 elap:               0.1
 (Enter /opt/software/gaussian/g16.c01/l101.exe)
 ----------------------------------------------------------------------
 0004_q000_m01_k00_opt_uwb97xd_def2svpd/0004_q000_m01_k00_force_uhf_def
 2tzvp stable-force
 ----------------------------------------------------------------------
 Symbolic Z-matrix:
 Charge =  0 Multiplicity = 1
 C                     0.88829   0.14223   0.10893 
 S                     2.50672   0.10417   0.04489 
 N                     3.30324   1.2299    0.77076 
 H                     0.37527  -0.66533  -0.41323 
 H                     0.32428   0.91486   0.63386 
 H                     2.71384   1.92012   1.24185 
 
 ITRead=  0  0  0  0  0  0
 MicOpt= -1 -1 -1 -1 -1 -1
 NAtoms=      6 NQM=        6 NQMF=       0 NMMI=      0 NMMIF=      0
                NMic=       0 NMicF=      0.
                    Isotopes and Nuclear Properties:
 (Nuclear quadrupole moments (NQMom) in fm**2, nuclear magnetic moments (NMagM)
  in nuclear magnetons)

  Atom         1           2           3           4           5           6
 IAtWgt=          12          32          14           1           1           1
 AtmWgt=  12.0000000  31.9720718  14.0030740   1.0078250   1.0078250   1.0078250
 NucSpn=           0           0           2           1           1           1
 AtZEff=  -0.0000000  -0.0000000  -0.0000000  -0.0000000  -0.0000000  -0.0000000
 NQMom=    0.0000000   0.0000000   2.0440000   0.0000000   0.0000000   0.0000000
 NMagM=    0.0000000   0.0000000   0.4037610   2.7928460   2.7928460   2.7928460
 AtZNuc=   6.0000000  16.0000000   7.0000000   1.0000000   1.0000000   1.0000000
 Leave Link  101 at Tue Jan  3 09:06:32 2023, MaxMem=   536870912 cpu:               0.4 elap:               0.2
 (Enter /opt/software/gaussian/g16.c01/l202.exe)
                          Input orientation:                          
 ---------------------------------------------------------------------
 Center     Atomic      Atomic             Coordinates (Angstroms)
 Number     Number       Type             X           Y           Z
 ---------------------------------------------------------------------
      1          6           0        0.888294    0.142235    0.108926
      2         16           0        2.506724    0.104170    0.044890
      3          7           0        3.303240    1.229897    0.770762
      4          1           0        0.375274   -0.665334   -0.413229
      5          1           0        0.324276    0.914865    0.633860
      6          1           0        2.713842    1.920118    1.241851
 ---------------------------------------------------------------------
                    Distance matrix (angstroms):
                    1          2          3          4          5
     1  C    0.000000
     2  S    1.620144   0.000000
     3  N    2.730019   1.558394   0.000000
     4  H    1.089956   2.311945   3.683303   0.000000
     5  H    1.091159   2.401498   2.998702   1.896319   0.000000
     6  H    2.788730   2.184785   1.022604   3.859113   2.662745
                    6
     6  H    0.000000
 Symmetry turned off by external request.
 Stoichiometry    CH3NS
 Rotational constants (GHZ):          36.3131241           8.8290023           7.1022055
 Leave Link  202 at Tue Jan  3 09:06:32 2023, MaxMem=   536870912 cpu:               0.0 elap:               0.0
 (Enter /opt/software/gaussian/g16.c01/l301.exe)
 General basis read from cards:  (5D, 7F)
 Centers:       4      5      6
 S 3 1.00
     Exponent=  3.4061341000D+01 Coefficients=  6.0251978000D-03
     Exponent=  5.1235746000D+00 Coefficients=  4.5021094000D-02
     Exponent=  1.1646626000D+00 Coefficients=  2.0189726000D-01
 S 1 1.00
     Exponent=  3.2723041000D-01 Coefficients=  1.0000000000D+00
 S 1 1.00
     Exponent=  1.0307241000D-01 Coefficients=  1.0000000000D+00
 P 1 1.00
     Exponent=  8.0000000000D-01 Coefficients=  1.0000000000D+00
 ****
 Centers:       1
 S 6 1.00
     Exponent=  1.3575349682D+04 Coefficients=  2.2245814352D-04
     Exponent=  2.0352333680D+03 Coefficients=  1.7232738252D-03
     Exponent=  4.6322562359D+02 Coefficients=  8.9255715314D-03
     Exponent=  1.3120019598D+02 Coefficients=  3.5727984502D-02
     Exponent=  4.2853015891D+01 Coefficients=  1.1076259931D-01
     Exponent=  1.5584185766D+01 Coefficients=  2.4295627626D-01
 S 2 1.00
     Exponent=  6.2067138508D+00 Coefficients=  4.1440263448D-01
     Exponent=  2.5764896527D+00 Coefficients=  2.3744968655D-01
 S 1 1.00
     Exponent=  5.7696339419D-01 Coefficients=  1.0000000000D+00
 S 1 1.00
     Exponent=  2.2972831358D-01 Coefficients=  1.0000000000D+00
 S 1 1.00
     Exponent=  9.5164440028D-02 Coefficients=  1.0000000000D+00
 P 4 1.00
     Exponent=  3.4697232244D+01 Coefficients=  5.3333657805D-03
     Exponent=  7.9582622826D+00 Coefficients=  3.5864109092D-02
     Exponent=  2.3780826883D+00 Coefficients=  1.4215873329D-01
     Exponent=  8.1433208183D-01 Coefficients=  3.4270471845D-01
 P 1 1.00
     Exponent=  2.8887547253D-01 Coefficients=  4.6445822433D-01
 P 1 1.00
     Exponent=  1.0056823671D-01 Coefficients=  2.4955789874D-01
 D 1 1.00
     Exponent=  1.0970000000D+00 Coefficients=  1.0000000000D+00
 D 1 1.00
     Exponent=  3.1800000000D-01 Coefficients=  1.0000000000D+00
 F 1 1.00
     Exponent=  7.6100000000D-01 Coefficients=  1.0000000000D+00
 ****
 Centers:       3
 S 6 1.00
     Exponent=  1.9730800647D+04 Coefficients=  2.1887984991D-04
     Exponent=  2.9578958745D+03 Coefficients=  1.6960708803D-03
     Exponent=  6.7322133595D+02 Coefficients=  8.7954603538D-03
     Exponent=  1.9068249494D+02 Coefficients=  3.5359382605D-02
     Exponent=  6.2295441898D+01 Coefficients=  1.1095789217D-01
     Exponent=  2.2654161182D+01 Coefficients=  2.4982972552D-01
 S 2 1.00
     Exponent=  8.9791477428D+00 Coefficients=  4.0623896148D-01
     Exponent=  3.6863002370D+00 Coefficients=  2.4338217176D-01
 S 1 1.00
     Exponent=  8.4660076805D-01 Coefficients=  1.0000000000D+00
 S 1 1.00
     Exponent=  3.3647133771D-01 Coefficients=  1.0000000000D+00
 S 1 1.00
     Exponent=  1.3647653675D-01 Coefficients=  1.0000000000D+00
 P 4 1.00
     Exponent=  4.9200380510D+01 Coefficients=  5.5552416751D-03
     Exponent=  1.1346790537D+01 Coefficients=  3.8052379723D-02
     Exponent=  3.4273972411D+00 Coefficients=  1.4953671029D-01
     Exponent=  1.1785525134D+00 Coefficients=  3.4949305230D-01
 P 1 1.00
     Exponent=  4.1642204972D-01 Coefficients=  4.5843153697D-01
 P 1 1.00
     Exponent=  1.4260826011D-01 Coefficients=  2.4428771672D-01
 D 1 1.00
     Exponent=  1.6540000000D+00 Coefficients=  1.0000000000D+00
 D 1 1.00
     Exponent=  4.6900000000D-01 Coefficients=  1.0000000000D+00
 F 1 1.00
     Exponent=  1.0930000000D+00 Coefficients=  1.0000000000D+00
 ****
 Centers:       2
 S 7 1.00
     Exponent=  6.0700928104D+04 Coefficients=  5.4695944225D-04
     Exponent=  9.1026106854D+03 Coefficients=  4.2297224557D-03
     Exponent=  2.0714166009D+03 Coefficients=  2.1747824159D-02
     Exponent=  5.8602476821D+02 Coefficients=  8.5100053589D-02
     Exponent=  1.9055395021D+02 Coefficients=  2.4799128459D-01
     Exponent=  6.7630384260D+01 Coefficients=  4.6703640406D-01
     Exponent=  2.5127306905D+01 Coefficients=  3.6434587550D-01
 S 3 1.00
     Exponent=  1.1257463010D+02 Coefficients=  2.1670040240D-02
     Exponent=  3.4795554217D+01 Coefficients=  9.3602301760D-02
     Exponent=  6.5115556215D+00 Coefficients= -2.6068001422D-01
 S 2 1.00
     Exponent=  3.2399032261D+00 Coefficients=  1.2842089435D+00
     Exponent=  1.5477160881D+00 Coefficients=  6.6036416584D-01
 S 1 1.00
     Exponent=  4.0541030112D-01 Coefficients=  1.0000000000D+00
 S 1 1.00
     Exponent=  1.4550651059D-01 Coefficients=  1.0000000000D+00
 P 5 1.00
     Exponent=  5.6436716027D+02 Coefficients=  2.4796796317D-03
     Exponent=  1.3342624379D+02 Coefficients=  1.9677930250D-02
     Exponent=  4.2468271189D+01 Coefficients=  8.9980008258D-02
     Exponent=  1.5616527580D+01 Coefficients=  2.5705880575D-01
     Exponent=  6.1093988469D+00 Coefficients=  4.3515167292D-01
 P 1 1.00
     Exponent=  2.4404160198D+00 Coefficients=  3.4883240595D-01
 P 1 1.00
     Exponent=  8.3882201296D-01 Coefficients=  1.0000000000D+00
 P 1 1.00
     Exponent=  3.1288746900D-01 Coefficients=  1.0000000000D+00
 P 1 1.00
     Exponent=  1.0770109004D-01 Coefficients=  1.0000000000D+00
 D 2 1.00
     Exponent=  3.7560000000D+00 Coefficients=  2.0000000000D-01
     Exponent=  8.1200000000D-01 Coefficients=  1.0000000000D+00
 D 1 1.00
     Exponent=  2.7300000000D-01 Coefficients=  1.0000000000D+00
 F 1 1.00
     Exponent=  5.5700000000D-01 Coefficients=  1.0000000000D+00
 ****
 Ernie: Thresh=  0.10000D-02 Tol=  0.10000D-05 Strict=F.
   117 basis functions,   195 primitive gaussians,   132 cartesian basis functions
    16 alpha electrons       16 beta electrons
       nuclear repulsion energy       102.0311797422 Hartrees.
 IExCor=    0 DFT=F Ex=HF Corr=None ExCW=0 ScaHFX=  1.000000
 ScaDFX=  1.000000  1.000000  1.000000  1.000000 ScalE2=  1.000000  1.000000
 IRadAn=      5 IRanWt=     -1 IRanGd=            0 ICorTp=0 IEmpDi=  4
 NAtoms=    6 NActive=    6 NUniq=    6 SFac= 1.00D+00 NAtFMM=   60 NAOKFM=F Big=F
 Integral buffers will be    131072 words long.
 Raffenetti 2 integral format.
 Two-electron integral symmetry is turned off.
 Leave Link  301 at Tue Jan  3 09:06:32 2023, MaxMem=   536870912 cpu:               0.2 elap:               0.1
 (Enter /opt/software/gaussian/g16.c01/l302.exe)
 NPDir=0 NMtPBC=     1 NCelOv=     1 NCel=       1 NClECP=     1 NCelD=      1
         NCelK=      1 NCelE2=     1 NClLst=     1 CellRange=     0.0.
 One-electron integrals computed using PRISM.
 NBasis=   117 RedAO= T EigKep=  1.23D-03  NBF=   117
 NBsUse=   117 1.00D-06 EigRej= -1.00D+00 NBFU=   117
 Leave Link  302 at Tue Jan  3 09:06:32 2023, MaxMem=   536870912 cpu:               0.3 elap:               0.1
 (Enter /opt/software/gaussian/g16.c01/l303.exe)
 DipDrv:  MaxL=1.
 Leave Link  303 at Tue Jan  3 09:06:32 2023, MaxMem=   536870912 cpu:               0.1 elap:               0.0
 (Enter /opt/software/gaussian/g16.c01/l401.exe)
 ExpMin= 9.52D-02 ExpMax= 6.07D+04 ExpMxC= 2.07D+03 IAcc=3 IRadAn=         5 AccDes= 0.00D+00
 Harris functional with IExCor=  205 and IRadAn=       5 diagonalized for initial guess.
 HarFok:  IExCor=  205 AccDes= 0.00D+00 IRadAn=         5 IDoV= 1 UseB2=F ITyADJ=14
 ICtDFT=  3500011 ScaDFX=  1.000000  1.000000  1.000000  1.000000
 FoFCou: FMM=F IPFlag=           0 FMFlag=      100000 FMFlg1=           0
         NFxFlg=           0 DoJE=T BraDBF=F KetDBF=T FulRan=T
         wScrn=  0.000000 ICntrl=       500 IOpCl=  0 I1Cent=   200000004 NGrid=           0
         NMat0=    1 NMatS0=      1 NMatT0=    0 NMatD0=    1 NMtDS0=    0 NMtDT0=    0
 Symmetry not used in FoFCou.
 Harris En= -491.367842846709    
 JPrj=0 DoOrth=F DoCkMO=F.
 Initial guess <Sx>= 0.0000 <Sy>= 0.0000 <Sz>= 0.0000 <S**2>=-0.0000 S=-0.0000
 Leave Link  401 at Tue Jan  3 09:06:33 2023, MaxMem=   536870912 cpu:               0.8 elap:               0.4
 (Enter /opt/software/gaussian/g16.c01/l502.exe)
 Keep R1 and R2 ints in memory in canonical form, NReq=49664781.
 FoFCou: FMM=F IPFlag=           0 FMFlag=           0 FMFlg1=           0
         NFxFlg=           0 DoJE=F BraDBF=F KetDBF=F FulRan=T
         wScrn=  0.000000 ICntrl=       600 IOpCl=  0 I1Cent=           0 NGrid=           0
         NMat0=    1 NMatS0=   6903 NMatT0=    0 NMatD0=    1 NMtDS0=    0 NMtDT0=    0
 Symmetry not used in FoFCou.
 Two-electron integral symmetry not used.
 UHF open shell SCF:
 Using DIIS extrapolation, IDIIS=  1040.
 NGot=   536870912 LenX=   489175822 LenY=   489157957
 Requested convergence on RMS density matrix=1.00D-08 within 128 cycles.
 Requested convergence on MAX density matrix=1.00D-06.
 Requested convergence on             energy=1.00D-06.
 No special actions if energy rises.

 Cycle   1  Pass 1  IDiag  1:
 E= -491.322853229479    
 DIIS: error= 9.02D-02 at cycle   1 NSaved=   1.
 NSaved= 1 IEnMin= 1 EnMin= -491.322853229479     IErMin= 1 ErrMin= 9.02D-02
 ErrMax= 9.02D-02  0.00D+00 EMaxC= 1.00D-01 BMatC= 1.86D+00 BMatP= 1.86D+00
 IDIUse=3 WtCom= 9.81D-02 WtEn= 9.02D-01
 Coeff-Com:  0.100D+01
 Coeff-En:   0.100D+01
 Coeff:      0.100D+01
 Gap=     0.317 Goal=   None    Shift=    0.000
 Gap=     0.317 Goal=   None    Shift=    0.000
 GapD=    0.317 DampG=1.000 DampE=0.500 DampFc=0.5000 IDamp=-1.
 Damping current iteration by 5.00D-01
 RMSDP=3.62D-03 MaxDP=8.02D-02              OVMax= 1.93D-01

 Cycle   2  Pass 1  IDiag  1:
 E= -491.443082638991     Delta-E=       -0.120229409512 Rises=F Damp=T
 DIIS: error= 4.16D-02 at cycle   2 NSaved=   2.
 NSaved= 2 IEnMin= 2 EnMin= -491.443082638991     IErMin= 2 ErrMin= 4.16D-02
 ErrMax= 4.16D-02  0.00D+00 EMaxC= 1.00D-01 BMatC= 3.13D-01 BMatP= 1.86D+00
 IDIUse=3 WtCom= 5.84D-01 WtEn= 4.16D-01
 Coeff-Com: -0.468D+00 0.147D+01
 Coeff-En:   0.000D+00 0.100D+01
 Coeff:     -0.273D+00 0.127D+01
 Gap=     0.394 Goal=   None    Shift=    0.000
 Gap=     0.394 Goal=   None    Shift=    0.000
 RMSDP=1.05D-03 MaxDP=2.97D-02 DE=-1.20D-01 OVMax= 8.13D-02

 Cycle   3  Pass 1  IDiag  1:
 E= -491.545684264027     Delta-E=       -0.102601625037 Rises=F Damp=F
 DIIS: error= 2.90D-03 at cycle   3 NSaved=   3.
 NSaved= 3 IEnMin= 3 EnMin= -491.545684264027     IErMin= 3 ErrMin= 2.90D-03
 ErrMax= 2.90D-03  0.00D+00 EMaxC= 1.00D-01 BMatC= 3.96D-03 BMatP= 3.13D-01
 IDIUse=3 WtCom= 9.71D-01 WtEn= 2.90D-02
 Coeff-Com: -0.292D-01 0.240D-01 0.101D+01
 Coeff-En:   0.000D+00 0.000D+00 0.100D+01
 Coeff:     -0.284D-01 0.233D-01 0.101D+01
 Gap=     0.392 Goal=   None    Shift=    0.000
 Gap=     0.392 Goal=   None    Shift=    0.000
 RMSDP=2.74D-04 MaxDP=5.56D-03 DE=-1.03D-01 OVMax= 1.24D-02

 Cycle   4  Pass 1  IDiag  1:
 E= -491.546651695307     Delta-E=       -0.000967431279 Rises=F Damp=F
 DIIS: error= 1.64D-03 at cycle   4 NSaved=   4.
 NSaved= 4 IEnMin= 4 EnMin= -491.546651695307     IErMin= 4 ErrMin= 1.64D-03
 ErrMax= 1.64D-03  0.00D+00 EMaxC= 1.00D-01 BMatC= 9.43D-04 BMatP= 3.96D-03
 IDIUse=3 WtCom= 9.84D-01 WtEn= 1.64D-02
 Coeff-Com:  0.515D-02-0.280D-01 0.304D+00 0.719D+00
 Coeff-En:   0.000D+00 0.000D+00 0.000D+00 0.100D+01
 Coeff:      0.507D-02-0.276D-01 0.299D+00 0.724D+00
 Gap=     0.393 Goal=   None    Shift=    0.000
 Gap=     0.393 Goal=   None    Shift=    0.000
 RMSDP=1.21D-04 MaxDP=2.84D-03 DE=-9.67D-04 OVMax= 1.11D-02

 Cycle   5  Pass 1  IDiag  1:
 E= -491.546935675030     Delta-E=       -0.000283979723 Rises=F Damp=F
 DIIS: error= 5.46D-04 at cycle   5 NSaved=   5.
 NSaved= 5 IEnMin= 5 EnMin= -491.546935675030     IErMin= 5 ErrMin= 5.46D-04
 ErrMax= 5.46D-04  0.00D+00 EMaxC= 1.00D-01 BMatC= 1.76D-04 BMatP= 9.43D-04
 IDIUse=3 WtCom= 9.95D-01 WtEn= 5.46D-03
 Coeff-Com:  0.709D-02-0.126D-01-0.828D-01 0.204D+00 0.884D+00
 Coeff-En:   0.000D+00 0.000D+00 0.000D+00 0.000D+00 0.100D+01
 Coeff:      0.705D-02-0.125D-01-0.823D-01 0.203D+00 0.885D+00
 Gap=     0.393 Goal=   None    Shift=    0.000
 Gap=     0.393 Goal=   None    Shift=    0.000
 RMSDP=5.60D-05 MaxDP=1.68D-03 DE=-2.84D-04 OVMax= 2.52D-03

 Cycle   6  Pass 1  IDiag  1:
 E= -491.547001768878     Delta-E=       -0.000066093848 Rises=F Damp=F
 DIIS: error= 2.83D-04 at cycle   6 NSaved=   6.
 NSaved= 6 IEnMin= 6 EnMin= -491.547001768878     IErMin= 6 ErrMin= 2.83D-04
 ErrMax= 2.83D-04  0.00D+00 EMaxC= 1.00D-01 BMatC= 1.51D-05 BMatP= 1.76D-04
 IDIUse=3 WtCom= 9.97D-01 WtEn= 2.83D-03
 Coeff-Com:  0.116D-02 0.175D-03-0.585D-01-0.363D-01 0.309D-01 0.106D+01
 Coeff-En:   0.000D+00 0.000D+00 0.000D+00 0.000D+00 0.000D+00 0.100D+01
 Coeff:      0.116D-02 0.175D-03-0.583D-01-0.362D-01 0.308D-01 0.106D+01
 Gap=     0.393 Goal=   None    Shift=    0.000
 Gap=     0.393 Goal=   None    Shift=    0.000
 RMSDP=3.23D-05 MaxDP=3.77D-04 DE=-6.61D-05 OVMax= 2.98D-03

 Cycle   7  Pass 1  IDiag  1:
 E= -491.547016953713     Delta-E=       -0.000015184835 Rises=F Damp=F
 DIIS: error= 1.16D-04 at cycle   7 NSaved=   7.
 NSaved= 7 IEnMin= 7 EnMin= -491.547016953713     IErMin= 7 ErrMin= 1.16D-04
 ErrMax= 1.16D-04  0.00D+00 EMaxC= 1.00D-01 BMatC= 4.62D-06 BMatP= 1.51D-05
 IDIUse=3 WtCom= 9.99D-01 WtEn= 1.16D-03
 Coeff-Com: -0.492D-03 0.611D-03 0.184D-01 0.105D-01-0.172D+00-0.132D+00
 Coeff-Com:  0.128D+01
 Coeff-En:   0.000D+00 0.000D+00 0.000D+00 0.000D+00 0.000D+00 0.000D+00
 Coeff-En:   0.100D+01
 Coeff:     -0.492D-03 0.611D-03 0.184D-01 0.105D-01-0.172D+00-0.132D+00
 Coeff:      0.127D+01
 Gap=     0.393 Goal=   None    Shift=    0.000
 Gap=     0.393 Goal=   None    Shift=    0.000
 RMSDP=1.98D-05 MaxDP=3.02D-04 DE=-1.52D-05 OVMax= 1.76D-03

 Cycle   8  Pass 1  IDiag  1:
 E= -491.547021839287     Delta-E=       -0.000004885574 Rises=F Damp=F
 DIIS: error= 6.12D-05 at cycle   8 NSaved=   8.
 NSaved= 8 IEnMin= 8 EnMin= -491.547021839287     IErMin= 8 ErrMin= 6.12D-05
 ErrMax= 6.12D-05  0.00D+00 EMaxC= 1.00D-01 BMatC= 1.01D-06 BMatP= 4.62D-06
 IDIUse=1 WtCom= 1.00D+00 WtEn= 0.00D+00
 Coeff-Com:  0.123D-03-0.847D-03 0.966D-02 0.177D-01 0.397D-02-0.147D+00
 Coeff-Com: -0.585D+00 0.170D+01
 Coeff:      0.123D-03-0.847D-03 0.966D-02 0.177D-01 0.397D-02-0.147D+00
 Coeff:     -0.585D+00 0.170D+01
 Gap=     0.393 Goal=   None    Shift=    0.000
 Gap=     0.393 Goal=   None    Shift=    0.000
 RMSDP=1.59D-05 MaxDP=2.37D-04 DE=-4.89D-06 OVMax= 1.46D-03

 Cycle   9  Pass 1  IDiag  1:
 E= -491.547023395834     Delta-E=       -0.000001556547 Rises=F Damp=F
 DIIS: error= 1.11D-05 at cycle   9 NSaved=   9.
 NSaved= 9 IEnMin= 9 EnMin= -491.547023395834     IErMin= 9 ErrMin= 1.11D-05
 ErrMax= 1.11D-05  0.00D+00 EMaxC= 1.00D-01 BMatC= 5.53D-08 BMatP= 1.01D-06
 IDIUse=1 WtCom= 1.00D+00 WtEn= 0.00D+00
 Coeff-Com: -0.424D-04 0.227D-03-0.419D-02-0.236D-02 0.168D-01 0.545D-01
 Coeff-Com: -0.971D-01-0.222D+00 0.125D+01
 Coeff:     -0.424D-04 0.227D-03-0.419D-02-0.236D-02 0.168D-01 0.545D-01
 Coeff:     -0.971D-01-0.222D+00 0.125D+01
 Gap=     0.393 Goal=   None    Shift=    0.000
 Gap=     0.393 Goal=   None    Shift=    0.000
 RMSDP=3.21D-06 MaxDP=4.56D-05 DE=-1.56D-06 OVMax= 2.76D-04

 Cycle  10  Pass 1  IDiag  1:
 E= -491.547023460623     Delta-E=       -0.000000064789 Rises=F Damp=F
 DIIS: error= 3.37D-06 at cycle  10 NSaved=  10.
 NSaved=10 IEnMin=10 EnMin= -491.547023460623     IErMin=10 ErrMin= 3.37D-06
 ErrMax= 3.37D-06  0.00D+00 EMaxC= 1.00D-01 BMatC= 2.94D-09 BMatP= 5.53D-08
 IDIUse=1 WtCom= 1.00D+00 WtEn= 0.00D+00
 Coeff-Com: -0.286D-04 0.756D-04 0.451D-04-0.621D-03-0.423D-02-0.132D-02
 Coeff-Com:  0.741D-01-0.881D-01-0.272D+00 0.129D+01
 Coeff:     -0.286D-04 0.756D-04 0.451D-04-0.621D-03-0.423D-02-0.132D-02
 Coeff:      0.741D-01-0.881D-01-0.272D+00 0.129D+01
 Gap=     0.393 Goal=   None    Shift=    0.000
 Gap=     0.393 Goal=   None    Shift=    0.000
 RMSDP=5.42D-07 MaxDP=1.03D-05 DE=-6.48D-08 OVMax= 3.24D-05

 Cycle  11  Pass 1  IDiag  1:
 E= -491.547023463204     Delta-E=       -0.000000002581 Rises=F Damp=F
 DIIS: error= 8.92D-07 at cycle  11 NSaved=  11.
 NSaved=11 IEnMin=11 EnMin= -491.547023463204     IErMin=11 ErrMin= 8.92D-07
 ErrMax= 8.92D-07  0.00D+00 EMaxC= 1.00D-01 BMatC= 1.60D-10 BMatP= 2.94D-09
 IDIUse=1 WtCom= 1.00D+00 WtEn= 0.00D+00
 Coeff-Com:  0.834D-05-0.289D-04 0.245D-03 0.295D-03-0.348D-03-0.317D-02
 Coeff-Com: -0.818D-02 0.319D-01-0.400D-01-0.205D+00 0.122D+01
 Coeff:      0.834D-05-0.289D-04 0.245D-03 0.295D-03-0.348D-03-0.317D-02
 Coeff:     -0.818D-02 0.319D-01-0.400D-01-0.205D+00 0.122D+01
 Gap=     0.393 Goal=   None    Shift=    0.000
 Gap=     0.393 Goal=   None    Shift=    0.000
 RMSDP=1.19D-07 MaxDP=1.78D-06 DE=-2.58D-09 OVMax= 7.74D-06

 Cycle  12  Pass 1  IDiag  1:
 E= -491.547023463362     Delta-E=       -0.000000000158 Rises=F Damp=F
 DIIS: error= 2.15D-07 at cycle  12 NSaved=  12.
 NSaved=12 IEnMin=12 EnMin= -491.547023463362     IErMin=12 ErrMin= 2.15D-07
 ErrMax= 2.15D-07  0.00D+00 EMaxC= 1.00D-01 BMatC= 1.39D-11 BMatP= 1.60D-10
 IDIUse=1 WtCom= 1.00D+00 WtEn= 0.00D+00
 Coeff-Com: -0.188D-05 0.628D-05-0.829D-04-0.408D-04 0.474D-03 0.961D-03
 Coeff-Com: -0.375D-02-0.138D-02 0.314D-01-0.512D-01-0.271D+00 0.129D+01
 Coeff:     -0.188D-05 0.628D-05-0.829D-04-0.408D-04 0.474D-03 0.961D-03
 Coeff:     -0.375D-02-0.138D-02 0.314D-01-0.512D-01-0.271D+00 0.129D+01
 Gap=     0.393 Goal=   None    Shift=    0.000
 Gap=     0.393 Goal=   None    Shift=    0.000
 RMSDP=3.73D-08 MaxDP=5.80D-07 DE=-1.58D-10 OVMax= 1.87D-06

 Cycle  13  Pass 1  IDiag  1:
 E= -491.547023463375     Delta-E=       -0.000000000012 Rises=F Damp=F
 DIIS: error= 6.25D-08 at cycle  13 NSaved=  13.
 NSaved=13 IEnMin=13 EnMin= -491.547023463375     IErMin=13 ErrMin= 6.25D-08
 ErrMax= 6.25D-08  0.00D+00 EMaxC= 1.00D-01 BMatC= 1.04D-12 BMatP= 1.39D-11
 IDIUse=1 WtCom= 1.00D+00 WtEn= 0.00D+00
 Coeff-Com:  0.443D-07-0.216D-06 0.103D-04-0.716D-05-0.113D-03-0.107D-03
 Coeff-Com:  0.177D-02-0.182D-02-0.673D-02 0.284D-01 0.512D-03-0.436D+00
 Coeff-Com:  0.141D+01
 Coeff:      0.443D-07-0.216D-06 0.103D-04-0.716D-05-0.113D-03-0.107D-03
 Coeff:      0.177D-02-0.182D-02-0.673D-02 0.284D-01 0.512D-03-0.436D+00
 Coeff:      0.141D+01
 Gap=     0.393 Goal=   None    Shift=    0.000
 Gap=     0.393 Goal=   None    Shift=    0.000
 RMSDP=1.27D-08 MaxDP=1.78D-07 DE=-1.21D-11 OVMax= 6.39D-07

 Cycle  14  Pass 1  IDiag  1:
 E= -491.547023463375     Delta-E=       -0.000000000000 Rises=F Damp=F
 DIIS: error= 9.08D-09 at cycle  14 NSaved=  14.
 NSaved=14 IEnMin=14 EnMin= -491.547023463375     IErMin=14 ErrMin= 9.08D-09
 ErrMax= 9.08D-09  0.00D+00 EMaxC= 1.00D-01 BMatC= 4.15D-14 BMatP= 1.04D-12
 IDIUse=1 WtCom= 1.00D+00 WtEn= 0.00D+00
 Coeff-Com:  0.188D-06-0.504D-06 0.356D-05 0.434D-05-0.591D-05-0.520D-04
 Coeff-Com: -0.155D-03 0.561D-03-0.712D-03-0.321D-02 0.234D-01-0.871D-03
 Coeff-Com: -0.276D+00 0.126D+01
 Coeff:      0.188D-06-0.504D-06 0.356D-05 0.434D-05-0.591D-05-0.520D-04
 Coeff:     -0.155D-03 0.561D-03-0.712D-03-0.321D-02 0.234D-01-0.871D-03
 Coeff:     -0.276D+00 0.126D+01
 Gap=     0.393 Goal=   None    Shift=    0.000
 Gap=     0.393 Goal=   None    Shift=    0.000
 RMSDP=2.39D-09 MaxDP=4.62D-08 DE=-4.55D-13 OVMax= 1.15D-07

 SCF Done:  E(UHF) =  -491.547023463     A.U. after   14 cycles
            NFock= 14  Conv=0.24D-08     -V/T= 2.0006
 <Sx>= 0.0000 <Sy>= 0.0000 <Sz>= 0.0000 <S**2>=-0.0000 S=-0.0000
 <L.S>=  0.00000000000    
 KE= 4.912391070433D+02 PE=-1.369808485008D+03 EE= 2.849911747591D+02
 Annihilation of the first spin contaminant:
 S**2 before annihilation    -0.0000,   after     0.0000
 Leave Link  502 at Tue Jan  3 09:06:35 2023, MaxMem=   536870912 cpu:               3.3 elap:               1.9
 (Enter /opt/software/gaussian/g16.c01/l508.exe)
 QCSCF skips out because SCF is already converged.
 Leave Link  508 at Tue Jan  3 09:06:35 2023, MaxMem=   536870912 cpu:               0.0 elap:               0.0
 (Enter /opt/software/gaussian/g16.c01/l601.exe)
 Copying SCF densities to generalized density rwf, IOpCl= 1 IROHF=0.

 **********************************************************************

            Population analysis using the SCF Density.

 **********************************************************************

 Alpha  occ. eigenvalues --  -92.06103 -15.55096 -11.27626  -9.05506  -6.73632
 Alpha  occ. eigenvalues --   -6.73607  -6.73532  -1.21658  -1.02354  -0.81021
 Alpha  occ. eigenvalues --   -0.66133  -0.63962  -0.52084  -0.49631  -0.44094
 Alpha  occ. eigenvalues --   -0.33310
 Alpha virt. eigenvalues --    0.05985   0.15019   0.16656   0.18261   0.21798
 Alpha virt. eigenvalues --    0.26134   0.28687   0.33588   0.33844   0.39771
 Alpha virt. eigenvalues --    0.43048   0.43643   0.48482   0.52154   0.52903
 Alpha virt. eigenvalues --    0.58062   0.59043   0.60164   0.61043   0.62012
 Alpha virt. eigenvalues --    0.64105   0.72876   0.74876   0.84251   0.85784
 Alpha virt. eigenvalues --    0.96636   1.01127   1.10435   1.14122   1.20139
 Alpha virt. eigenvalues --    1.24004   1.26661   1.45556   1.53234   1.54996
 Alpha virt. eigenvalues --    1.58478   1.66524   1.73625   1.74332   1.76809
 Alpha virt. eigenvalues --    1.81032   1.84057   1.85356   1.86164   1.90963
 Alpha virt. eigenvalues --    1.94065   1.97663   2.02654   2.04240   2.04857
 Alpha virt. eigenvalues --    2.10144   2.21410   2.24856   2.26153   2.31568
 Alpha virt. eigenvalues --    2.33073   2.37022   2.43120   2.44505   2.48300
 Alpha virt. eigenvalues --    2.63604   2.72043   2.74016   2.74715   2.83417
 Alpha virt. eigenvalues --    2.85378   2.97463   2.99088   3.11575   3.27880
 Alpha virt. eigenvalues --    3.40006   3.42746   3.44247   3.51053   3.52362
 Alpha virt. eigenvalues --    3.62323   3.75769   3.76030   3.83327   3.96352
 Alpha virt. eigenvalues --    4.03831   4.36636   4.40189   4.44217   4.64527
 Alpha virt. eigenvalues --    4.69236   4.72485   4.89048   4.99897   5.02602
 Alpha virt. eigenvalues --    5.20536   5.31441   5.45051   5.55389   5.93488
 Alpha virt. eigenvalues --    9.48260   9.75754  10.14249  21.36527  22.99726
 Alpha virt. eigenvalues --   32.93327
  Beta  occ. eigenvalues --  -92.06103 -15.55096 -11.27626  -9.05506  -6.73632
  Beta  occ. eigenvalues --   -6.73607  -6.73532  -1.21658  -1.02354  -0.81021
  Beta  occ. eigenvalues --   -0.66133  -0.63962  -0.52084  -0.49631  -0.44094
  Beta  occ. eigenvalues --   -0.33310
  Beta virt. eigenvalues --    0.05985   0.15019   0.16656   0.18261   0.21798
  Beta virt. eigenvalues --    0.26134   0.28687   0.33588   0.33844   0.39771
  Beta virt. eigenvalues --    0.43048   0.43643   0.48482   0.52154   0.52903
  Beta virt. eigenvalues --    0.58062   0.59043   0.60164   0.61043   0.62012
  Beta virt. eigenvalues --    0.64105   0.72876   0.74876   0.84251   0.85784
  Beta virt. eigenvalues --    0.96636   1.01127   1.10435   1.14122   1.20139
  Beta virt. eigenvalues --    1.24004   1.26661   1.45556   1.53234   1.54996
  Beta virt. eigenvalues --    1.58478   1.66524   1.73625   1.74332   1.76809
  Beta virt. eigenvalues --    1.81032   1.84057   1.85356   1.86164   1.90963
  Beta virt. eigenvalues --    1.94065   1.97663   2.02654   2.04240   2.04857
  Beta virt. eigenvalues --    2.10144   2.21410   2.24856   2.26153   2.31568
  Beta virt. eigenvalues --    2.33073   2.37022   2.43120   2.44505   2.48300
  Beta virt. eigenvalues --    2.63604   2.72043   2.74016   2.74715   2.83417
  Beta virt. eigenvalues --    2.85378   2.97463   2.99088   3.11575   3.27880
  Beta virt. eigenvalues --    3.40006   3.42746   3.44247   3.51053   3.52362
  Beta virt. eigenvalues --    3.62323   3.75769   3.76030   3.83327   3.96352
  Beta virt. eigenvalues --    4.03831   4.36636   4.40189   4.44217   4.64527
  Beta virt. eigenvalues --    4.69236   4.72485   4.89048   4.99897   5.02602
  Beta virt. eigenvalues --    5.20536   5.31441   5.45051   5.55389   5.93488
  Beta virt. eigenvalues --    9.48260   9.75754  10.14249  21.36527  22.99726
  Beta virt. eigenvalues --   32.93327
          Condensed to atoms (all electrons):
               1          2          3          4          5          6
     1  C    5.136770   0.569547  -0.082969   0.387025   0.419013   0.002377
     2  S    0.569547  14.534553   0.476727  -0.023538  -0.037536  -0.046021
     3  N   -0.082969   0.476727   6.906185   0.003936  -0.000266   0.345228
     4  H    0.387025  -0.023538   0.003936   0.488658  -0.018086   0.000686
     5  H    0.419013  -0.037536  -0.000266  -0.018086   0.470498   0.001665
     6  H    0.002377  -0.046021   0.345228   0.000686   0.001665   0.467760
          Atomic-Atomic Spin Densities.
               1          2          3          4          5          6
     1  C    0.000000   0.000000   0.000000   0.000000   0.000000   0.000000
     2  S    0.000000   0.000000   0.000000   0.000000   0.000000   0.000000
     3  N    0.000000   0.000000   0.000000   0.000000   0.000000   0.000000
     4  H    0.000000   0.000000   0.000000   0.000000   0.000000   0.000000
     5  H    0.000000   0.000000   0.000000   0.000000   0.000000   0.000000
     6  H    0.000000   0.000000   0.000000   0.000000   0.000000   0.000000
 Mulliken charges and spin densities:
               1          2
     1  C   -0.431762   0.000000
     2  S    0.526267   0.000000
     3  N   -0.648841   0.000000
     4  H    0.161319   0.000000
     5  H    0.164712   0.000000
     6  H    0.228305   0.000000
 Sum of Mulliken charges =  -0.00000   0.00000
 Mulliken charges and spin densities with hydrogens summed into heavy atoms:
               1          2
     1  C   -0.105731   0.000000
     2  S    0.526267   0.000000
     3  N   -0.420536   0.000000
 Electronic spatial extent (au):  <R**2>=            823.7091
 Charge=             -0.0000 electrons
 Dipole moment (field-independent basis, Debye):
    X=             -3.0091    Y=             -0.5094    Z=             -0.2646  Tot=              3.0634
 Quadrupole moment (field-independent basis, Debye-Ang):
   XX=            -41.1860   YY=            -24.8058   ZZ=            -26.0932
   XY=             -4.2766   XZ=             -2.6047   YZ=              1.7297
 Traceless Quadrupole moment (field-independent basis, Debye-Ang):
   XX=            -10.4910   YY=              5.8892   ZZ=              4.6018
   XY=             -4.2766   XZ=             -2.6047   YZ=              1.7297
 Octapole moment (field-independent basis, Debye-Ang**2):
  XXX=           -242.2919  YYY=            -28.3899  ZZZ=            -19.7679  XYY=            -60.5298
  XXY=            -32.5146  XXZ=            -20.0489  XZZ=            -59.5604  YZZ=             -8.6287
  YYZ=             -2.7960  XYZ=             -0.2720
 Hexadecapole moment (field-independent basis, Debye-Ang**3):
 XXXX=          -1235.6895 YYYY=            -92.6679 ZZZZ=            -60.6002 XXXY=           -192.2520
 XXXZ=           -118.3678 YYYX=            -90.2048 YYYZ=            -12.3528 ZZZX=            -59.5911
 ZZZY=            -19.6150 XXYY=           -196.3622 XXZZ=           -177.7758 YYZZ=            -21.0000
 XXYZ=            -17.4297 YYXZ=            -11.8698 ZZXY=            -28.1877
 N-N= 1.020311797422D+02 E-N=-1.369808485062D+03  KE= 4.912391070433D+02
                          Isotropic Fermi Contact Couplings
        Atom                 a.u.       MegaHertz       Gauss      10(-4) cm-1
     1  C(13)              0.00000       0.00000       0.00000       0.00000
     2  S(33)              0.00000       0.00000       0.00000       0.00000
     3  N(14)              0.00000       0.00000       0.00000       0.00000
     4  H(1)               0.00000       0.00000       0.00000       0.00000
     5  H(1)               0.00000       0.00000       0.00000       0.00000
     6  H(1)               0.00000       0.00000       0.00000       0.00000
 --------------------------------------------------------
       Center         ----  Spin Dipole Couplings  ----
                      3XX-RR        3YY-RR        3ZZ-RR
 --------------------------------------------------------
     1   Atom        0.000000      0.000000      0.000000
     2   Atom        0.000000      0.000000      0.000000
     3   Atom        0.000000      0.000000      0.000000
     4   Atom        0.000000      0.000000      0.000000
     5   Atom        0.000000      0.000000      0.000000
     6   Atom        0.000000      0.000000      0.000000
 --------------------------------------------------------
                        XY            XZ            YZ
 --------------------------------------------------------
     1   Atom        0.000000      0.000000      0.000000
     2   Atom        0.000000      0.000000      0.000000
     3   Atom        0.000000      0.000000      0.000000
     4   Atom        0.000000      0.000000      0.000000
     5   Atom        0.000000      0.000000      0.000000
     6   Atom        0.000000      0.000000      0.000000
 --------------------------------------------------------


 ---------------------------------------------------------------------------------
              Anisotropic Spin Dipole Couplings in Principal Axis System
 ---------------------------------------------------------------------------------

       Atom             a.u.   MegaHertz   Gauss  10(-4) cm-1        Axes

              Baa     0.0000     0.000     0.000     0.000  1.0000  0.0000  0.0000
     1 C(13)  Bbb     0.0000     0.000     0.000     0.000 -0.0000  1.0000  0.0000
              Bcc     0.0000     0.000     0.000     0.000  0.0000  0.0000  1.0000
 
              Baa     0.0000     0.000     0.000     0.000  1.0000  0.0000  0.0000
     2 S(33)  Bbb     0.0000     0.000     0.000     0.000 -0.0000  1.0000  0.0000
              Bcc     0.0000     0.000     0.000     0.000  0.0000  0.0000  1.0000
 
              Baa     0.0000     0.000     0.000     0.000  1.0000  0.0000  0.0000
     3 N(14)  Bbb     0.0000     0.000     0.000     0.000 -0.0000  1.0000  0.0000
              Bcc     0.0000     0.000     0.000     0.000  0.0000  0.0000  1.0000
 
              Baa     0.0000     0.000     0.000     0.000  1.0000  0.0000  0.0000
     4 H(1)   Bbb     0.0000     0.000     0.000     0.000 -0.0000  1.0000  0.0000
              Bcc     0.0000     0.000     0.000     0.000  0.0000  0.0000  1.0000
 
              Baa     0.0000     0.000     0.000     0.000  1.0000  0.0000  0.0000
     5 H(1)   Bbb     0.0000     0.000     0.000     0.000 -0.0000  1.0000  0.0000
              Bcc     0.0000     0.000     0.000     0.000  0.0000  0.0000  1.0000
 
              Baa     0.0000     0.000     0.000     0.000  1.0000  0.0000  0.0000
     6 H(1)   Bbb     0.0000     0.000     0.000     0.000 -0.0000  1.0000  0.0000
              Bcc     0.0000     0.000     0.000     0.000  0.0000  0.0000  1.0000
 

 ---------------------------------------------------------------------------------

 No NMR shielding tensors so no spin-rotation constants.
 Leave Link  601 at Tue Jan  3 09:06:35 2023, MaxMem=   536870912 cpu:               0.4 elap:               0.2
 (Enter /opt/software/gaussian/g16.c01/l801.exe)
 Range of M.O.s used for correlation:     1   117
 NBasis=   117 NAE=    16 NBE=    16 NFC=     0 NFV=     0
 NROrb=    117 NOA=    16 NOB=    16 NVA=   101 NVB=   101
 Leave Link  801 at Tue Jan  3 09:06:35 2023, MaxMem=   536870912 cpu:               0.1 elap:               0.0
 (Enter /opt/software/gaussian/g16.c01/l914.exe)
 UHF ground state
 Doing stability rather than CIS.
 Keep R1 and R2 ints in memory in canonical form, NReq=49665121.
 FoFCou: FMM=F IPFlag=           0 FMFlag=           0 FMFlg1=           0
         NFxFlg=           0 DoJE=F BraDBF=F KetDBF=F FulRan=T
         wScrn=  0.000000 ICntrl=       600 IOpCl=  0 I1Cent=           0 NGrid=           0
         NMat0=    1 NMatS0=   6903 NMatT0=    0 NMatD0=    1 NMtDS0=    0 NMtDT0=    0
 Symmetry not used in FoFCou.
 Two-electron integral symmetry not used.
 MDV=   536870912 DFT=F DoStab=T Mixed=F DoRPA=F DoScal=F NonHer=F
 Making orbital integer symmetry assigments:
    12 initial guesses have been made.
 Convergence on wavefunction:    0.001000000000000
 Davidson Disk Diagonalization:  ConvIn= 1.00D-03 SkipCon=T Conv= 1.00D-03.
 Max sub-space:  2000 roots to seek:    12 dimension of matrix:         3232
 Iteration     1 Dimension    12 NMult     0 NNew     12
 CISAX will form    12 AO SS matrices at one time.
 NMat=    12 NSing=    12 JSym2X= 0.
 New state      1 was old state      2
 Excitation Energies [eV] at current iteration:
 Root      1 :    -0.342167109561964
 Root      2 :     4.392937525712778
 Root      3 :     4.718665135193646
 Root      4 :     5.399197573400581
 Root      5 :     6.240743829811967
 Root      6 :     6.712845885428801
 Root      7 :     7.065778906852076
 Root      8 :     8.151637453553329
 Root      9 :     8.477465174945205
 Root     10 :     9.160589218322325
 Root     11 :     9.398043993896053
 Root     12 :    12.726499725212383
 Iteration     2 Dimension    24 NMult    12 NNew     12
 CISAX will form    12 AO SS matrices at one time.
 NMat=    12 NSing=    12 JSym2X= 0.
 Root      1 not converged, maximum delta is    0.096832771028681
 Excitation Energies [eV] at current iteration:
 Root      1 :    -1.587388419237488   Change is   -1.245221309675524
 Root      2 :     3.044723637651444   Change is   -1.348213888061334
 Root      3 :     3.367619439650840   Change is   -1.351045695542807
 Root      4 :     4.070406767334114   Change is   -1.328790806066467
 Root      5 :     4.863705682468989   Change is   -4.296883535853337
 Root      6 :     5.523122087885000   Change is   -0.717621741926966
 Root      7 :     5.996193535231829   Change is   -0.716652350196973
 Root      8 :     6.091935236773388   Change is   -0.973843670078688
 Root      9 :     7.096837840092757   Change is   -1.054799613460572
 Root     10 :     7.961892505769491   Change is   -0.515572669175714
 Root     11 :     8.358621392459041   Change is   -1.039422601437013
 Root     12 :     9.020649790519885   Change is   -3.705849934692498
 Iteration     3 Dimension    27 NMult    24 NNew      3
 CISAX will form     3 AO SS matrices at one time.
 NMat=     3 NSing=     3 JSym2X= 0.
 Root      1 not converged, maximum delta is    0.012055386323379
 Excitation Energies [eV] at current iteration:
 Root      1 :    -1.641570512363501   Change is   -0.054182093126013
 Root      2 :     2.965034552412245   Change is   -0.079689085239199
 Root      3 :     3.269384631964096   Change is   -0.098234807686744
 Iteration     4 Dimension    30 NMult    27 NNew      3
 CISAX will form     3 AO SS matrices at one time.
 NMat=     3 NSing=     3 JSym2X= 0.
 Root      1 not converged, maximum delta is    0.002799544672320
 Excitation Energies [eV] at current iteration:
 Root      1 :    -1.646413318616326   Change is   -0.004842806252825
 Root      2 :     2.956902983426875   Change is   -0.008131568985369
 Root      3 :     3.253846614008653   Change is   -0.015538017955443
 Iteration     5 Dimension    33 NMult    30 NNew      3
 CISAX will form     3 AO SS matrices at one time.
 NMat=     3 NSing=     3 JSym2X= 0.
 Root      1 not converged, maximum delta is    0.001056777978717
 Excitation Energies [eV] at current iteration:
 Root      1 :    -1.646810272482649   Change is   -0.000396953866324
 Root      2 :     2.955877221776810   Change is   -0.001025761650065
 Root      3 :     3.250021496408920   Change is   -0.003825117599733
 Cease iterating as an instability has been found.
 ***********************************************************************
 Stability analysis using <AA,BB:AA,BB> singles matrix:
 ***********************************************************************
 1PDM for each excited state written to RWF  633
 Ground to excited state transition densities written to RWF  633

 Eigenvectors of the stability matrix:
 
 Excited state symmetry could not be determined.
 Eigenvector   1:  3.000-?Sym  Eigenvalue=-0.0605192  <S**2>=2.000
     16A -> 17A        0.66373
     16A -> 31A        0.10346
     16B -> 17B       -0.66373
     16B -> 31B       -0.10346
 
 Excited state symmetry could not be determined.
 Eigenvector   2:  3.000-?Sym  Eigenvalue= 0.1086265  <S**2>=2.000
     14A -> 17A        0.26591
     15A -> 17A        0.56248
     16A -> 19A        0.11384
     16A -> 23A        0.12231
     14B -> 17B       -0.26591
     15B -> 17B       -0.56248
     16B -> 19B       -0.11384
     16B -> 23B       -0.12231
 
 Excited state symmetry could not be determined.
 Eigenvector   3:  3.000-?Sym  Eigenvalue= 0.1194361  <S**2>=2.000
     13A -> 17A        0.64463
     13A -> 28A       -0.10692
     16A -> 34A        0.13820
     13B -> 17B       -0.64463
     13B -> 28B        0.10692
     16B -> 34B       -0.13820
 The wavefunction has an internal instability.
 Leave Link  914 at Tue Jan  3 09:06:38 2023, MaxMem=   536870912 cpu:               4.9 elap:               2.5
 (Enter /opt/software/gaussian/g16.c01/l508.exe)
 Keep R1 and R2 ints in memory in canonical form, NReq=49665181.
 FoFCou: FMM=F IPFlag=           0 FMFlag=           0 FMFlg1=           0
         NFxFlg=           0 DoJE=F BraDBF=F KetDBF=F FulRan=T
         wScrn=  0.000000 ICntrl=       600 IOpCl=  0 I1Cent=           0 NGrid=           0
         NMat0=    1 NMatS0=   6903 NMatT0=    0 NMatD0=    1 NMtDS0=    0 NMtDT0=    0
 Symmetry not used in FoFCou.
 Two-electron integral symmetry not used.
 Very tight linear equation convergence will be used.
 UHF wavefunction.
 Quadratic Convergence SCF Method.
 Line search only if initial step raises energy.
 Perform preliminary linear searches along instability eigenvector.
     ILin= 1 X=0.000D+00 Y=-4.915470234634D+02 DE= 0.00D+00
     ILin= 2 X=1.000D-01 Y=-4.915476160237D+02 DE=-5.93D-04
     ILin= 3 X=1.414D-01 Y=-4.915481835872D+02 DE=-1.16D-03
     ILin= 4 X=2.000D-01 Y=-4.915492445443D+02 DE=-2.22D-03
     ILin= 5 X=2.828D-01 Y=-4.915510754629D+02 DE=-4.05D-03
     ILin= 6 X=4.000D-01 Y=-4.915536179232D+02 DE=-6.59D-03
     ILin= 7 X=5.657D-01 Y=-4.915545677682D+02 DE=-7.54D-03
     ILin= 8 X=8.000D-01 Y=-4.915424464781D+02 DE= 4.58D-03
     An  expanding polynomial of degree  8 produced  0.5180
 Iteration F X= 5.180D-01 EE=-4.915548312939899D+02
     ILin= 1 X=0.000D+00 Y=-4.915470234634D+02 DE= 0.00D+00
     ILin= 2 X=1.000D-01 Y=-4.915476160150D+02 DE=-5.93D-04
     ILin= 3 X=1.414D-01 Y=-4.915481835629D+02 DE=-1.16D-03
 The two search directions are symmetric.
 Iteration B X= 5.180D-01 EE=-4.915548312939899D+02
 Take forward step, X= 5.180D-01 Step= 5.180D-01
 Iteration   1 EE= -491.554831267121                                    Grad=3.937D-02 Max rot=    0.7675 deg.
 Gradient too large for Newton-Raphson -- use scaled steepest descent instead.
 Alpha Gap=     0.460 HL deriv= 1.69D-03
  Beta Gap=     0.447 HL deriv= 5.23D-03
     ILin= 1 X=0.000D+00 Y=-4.915548312671D+02 DE= 0.00D+00 F= -2.94D-03
     ILin= 2 X=3.000D-01 Y=-4.915556266538D+02 DE=-7.95D-04 F= -2.36D-03 OKLS=F
     ILin= 3 X=6.000D-01 Y=-4.915562473667D+02 DE=-1.42D-03 F= -1.78D-03
     ILin= 4 X=1.200D+00 Y=-4.915569656217D+02 DE=-2.13D-03 F= -6.17D-04
     ILin= 5 X=2.400D+00 Y=-4.915563160903D+02 DE=-1.48D-03 F=  1.70D-03
     An  expanding polynomial of degree  5 produced  1.5191
 Iteration   2 EE= -491.557063972878     Delta-E=       -0.002232705757 Grad=2.033D-02 Max rot=    0.3974 deg.
 Gradient too large for Newton-Raphson -- use scaled steepest descent instead.
 Alpha Gap=     0.457 HL deriv= 8.48D-03
  Beta Gap=     0.446 HL deriv= 1.55D-02
     ILin= 1 X=0.000D+00 Y=-4.915570639729D+02 DE= 0.00D+00 F= -8.06D-04
     ILin= 2 X=7.000D-01 Y=-4.915574545519D+02 DE=-3.91D-04 F= -3.10D-04 OKLS=F
     ILin= 3 X=1.400D+00 Y=-4.915574978032D+02 DE=-4.34D-04 F=  1.87D-04
     Accept linear search using points  2 and  3.
     An  expanding polynomial of degree  3 produced  1.0989
 Iteration   3 EE= -491.557521829532     Delta-E=       -0.000457856654 Grad=1.730D-02 Max rot=    0.2169 deg.
 Gradient too large for Newton-Raphson -- use scaled steepest descent instead.
 Alpha Gap=     0.465 HL deriv= 7.46D-03
  Beta Gap=     0.448 HL deriv= 8.45D-03
     ILin= 1 X=0.000D+00 Y=-4.915575218295D+02 DE= 0.00D+00 F= -4.87D-04
     ILin= 2 X=1.300D+00 Y=-4.915578033620D+02 DE=-2.82D-04 F=  5.38D-05 OKLS=T
     Accept linear search using points  1 and  2.
     An  expanding polynomial of degree  2 produced  1.2263
     Minimum is close to point  2 DX= -7.37D-02 DF= -1.51D-06 DXR=  6.01D-02 DFR=  5.36D-03 which will be used.
 Iteration   4 EE= -491.557803361973     Delta-E=       -0.000281532441 Grad=1.634D-02 Max rot=    0.3279 deg.
 Gradient too large for Newton-Raphson -- use scaled steepest descent instead.
 Alpha Gap=     0.463 HL deriv= 3.72D-03
  Beta Gap=     0.451 HL deriv= 1.27D-02
     ILin= 1 X=0.000D+00 Y=-4.915578033620D+02 DE= 0.00D+00 F= -5.13D-04
     ILin= 2 X=1.200D+00 Y=-4.915579968982D+02 DE=-1.94D-04 F=  1.91D-04 OKLS=T
     Accept linear search using points  1 and  2.
     An  expanding polynomial of degree  2 produced  0.9333
 Iteration   5 EE= -491.558026903539     Delta-E=       -0.000223541566 Grad=1.255D-02 Max rot=    0.1619 deg.
 Gradient too large for Newton-Raphson -- use scaled steepest descent instead.
 Alpha Gap=     0.470 HL deriv= 6.01D-03
  Beta Gap=     0.451 HL deriv= 5.95D-03
     ILin= 1 X=0.000D+00 Y=-4.915580269035D+02 DE= 0.00D+00 F= -2.69D-04
     ILin= 2 X=1.100D+00 Y=-4.915581826141D+02 DE=-1.56D-04 F= -1.43D-05 OKLS=T
     Reject lnstep IMin12=  1  2 Big=T Turn=F Min= 1.145D+00 FVal=-4.915581829105D+02 Lims=  0.00D+00  1.10D+00
     ILin= 3 X=2.100D+00 Y=-4.915580814153D+02 DE=-5.45D-05 F=  2.17D-04
     An  expanding polynomial of degree  3 produced  1.1623
     Minimum is close to point  2 DX=  6.23D-02 DF= -4.48D-07 DXR=  5.36D-02 DFR=  2.88D-03 which will be used.
 Iteration   6 EE= -491.558182614123     Delta-E=       -0.000155710585 Grad=9.742D-03 Max rot=    0.2464 deg.
 QCNR:  CnvC1=5.69D-10 CnvC2=5.69D-09
 LinEq1:  Iter=  0 NonCon=     1 RMS=2.47D-04 Max=1.19D-02 NDo=     1
 AX will form     1 AO Fock derivatives at one time.
 LinEq1:  Iter=  1 NonCon=     1 RMS=1.60D-04 Max=3.72D-03 NDo=     1
 LinEq1:  Iter=  2 NonCon=     1 RMS=1.49D-05 Max=4.12D-04 NDo=     1
 LinEq1:  Iter=  3 NonCon=     1 RMS=6.49D-06 Max=1.30D-04 NDo=     1
 LinEq1:  Iter=  4 NonCon=     1 RMS=1.96D-06 Max=5.15D-05 NDo=     1
 LinEq1:  Iter=  5 NonCon=     1 RMS=3.40D-07 Max=7.96D-06 NDo=     1
 LinEq1:  Iter=  6 NonCon=     1 RMS=1.16D-07 Max=1.95D-06 NDo=     1
 LinEq1:  Iter=  7 NonCon=     1 RMS=3.39D-08 Max=4.31D-07 NDo=     1
 LinEq1:  Iter=  8 NonCon=     1 RMS=9.05D-09 Max=1.46D-07 NDo=     1
 LinEq1:  Iter=  9 NonCon=     1 RMS=2.58D-09 Max=3.94D-08 NDo=     1
 LinEq1:  Iter= 10 NonCon=     1 RMS=6.37D-10 Max=7.47D-09 NDo=     1
 LinEq1:  Iter= 11 NonCon=     0 RMS=1.32D-10 Max=1.74D-09 NDo=     1
 Linear equations converged to 5.685D-10 5.685D-09 after    11 iterations.
 Angle between quadratic step and gradient=  52.85 degrees.
     ILin= 1 X=0.000D+00 Y=-4.915581826141D+02 DE= 0.00D+00 F= -9.91D-04
     ILin= 2 X=1.000D+00 Y=-4.915586375611D+02 DE=-4.55D-04 F=  1.24D-04 OKLS=T
     Accept linear search using points  1 and  2.
     An  expanding polynomial of degree  2 produced  0.8993
 Iteration   7 EE= -491.558643787412     Delta-E=       -0.000461173289 Grad=1.216D-03 Max rot=    0.0257 deg.
 QCNR:  CnvC1=5.69D-10 CnvC2=5.69D-09
 LinEq1:  Iter=  0 NonCon=     1 RMS=2.52D-05 Max=7.31D-04 NDo=     1
 LinEq1:  Iter=  1 NonCon=     1 RMS=1.32D-05 Max=2.27D-04 NDo=     1
 LinEq1:  Iter=  2 NonCon=     1 RMS=4.14D-06 Max=1.32D-04 NDo=     1
 LinEq1:  Iter=  3 NonCon=     1 RMS=1.06D-06 Max=1.61D-05 NDo=     1
 LinEq1:  Iter=  4 NonCon=     1 RMS=4.22D-07 Max=8.91D-06 NDo=     1
 LinEq1:  Iter=  5 NonCon=     1 RMS=1.32D-07 Max=2.60D-06 NDo=     1
 LinEq1:  Iter=  6 NonCon=     1 RMS=5.69D-08 Max=1.55D-06 NDo=     1
 LinEq1:  Iter=  7 NonCon=     1 RMS=1.91D-08 Max=3.81D-07 NDo=     1
 LinEq1:  Iter=  8 NonCon=     1 RMS=5.72D-09 Max=8.10D-08 NDo=     1
 LinEq1:  Iter=  9 NonCon=     1 RMS=1.69D-09 Max=2.29D-08 NDo=     1
 LinEq1:  Iter= 10 NonCon=     0 RMS=4.30D-10 Max=4.40D-09 NDo=     1
 Linear equations converged to 5.685D-10 5.685D-09 after    10 iterations.
 Angle between quadratic step and gradient=  50.77 degrees.
     ILin= 1 X=0.000D+00 Y=-4.915586437874D+02 DE= 0.00D+00 F= -4.28D-06
     ILin= 2 X=1.000D+00 Y=-4.915586459283D+02 DE=-2.14D-06 F=  2.78D-10 OKLS=T
     Accept linear search using points  1 and  2.
     An  expanding polynomial of degree  2 produced  0.9999
     Minimum is close to point  2 DX= -6.49D-05 DF=  0.00D+00 DXR=  6.49D-05 DFR=  0.00D+00 which will be used.
 Iteration   8 EE= -491.558645928323     Delta-E=       -0.000002140911 Grad=3.030D-06 Max rot=    0.0000 deg.
 QCNR:  CnvC1=3.03D-11 CnvC2=3.03D-10
 LinEq1:  Iter=  0 NonCon=     1 RMS=4.10D-08 Max=1.42D-06 NDo=     1
 LinEq1:  Iter=  1 NonCon=     1 RMS=2.36D-08 Max=5.71D-07 NDo=     1
 LinEq1:  Iter=  2 NonCon=     1 RMS=9.77D-09 Max=2.33D-07 NDo=     1
 LinEq1:  Iter=  3 NonCon=     1 RMS=2.98D-09 Max=6.19D-08 NDo=     1
 LinEq1:  Iter=  4 NonCon=     1 RMS=1.21D-09 Max=2.99D-08 NDo=     1
 LinEq1:  Iter=  5 NonCon=     1 RMS=4.62D-10 Max=9.96D-09 NDo=     1
 LinEq1:  Iter=  6 NonCon=     1 RMS=1.26D-10 Max=1.83D-09 NDo=     1
 LinEq1:  Iter=  7 NonCon=     1 RMS=4.93D-11 Max=9.89D-10 NDo=     1
 LinEq1:  Iter=  8 NonCon=     1 RMS=1.61D-11 Max=3.09D-10 NDo=     1
 LinEq1:  Iter=  9 NonCon=     0 RMS=4.69D-12 Max=6.92D-11 NDo=     1
 Linear equations converged to 3.030D-11 3.030D-10 after     9 iterations.
 Angle between quadratic step and gradient=  64.54 degrees.
     ILin= 1 X=0.000D+00 Y=-4.915586459283D+02 DE= 0.00D+00 F= -1.55D-11
     ILin= 2 X=1.000D+00 Y=-4.915586459283D+02 DE=-6.48D-12
 Iteration   9 EE= -491.558645928330     Delta-E=       -0.000000000006 Grad=1.630D-08 Max rot=    0.0000 deg.
 Rotation gradient small -- convergence achieved.
 SCF Done:  E(UHF) =  -491.558645928     a.u. after    9 cycles
            Convg  =    0.1630D-07                    57 Fock formations.
              S**2 =  0.6184                  -V/T =  2.0001
 <Sx>= 0.0000 <Sy>= 0.0000 <Sz>= 0.0000 <S**2>= 0.6184 S= 0.4319
 <L.S>=  0.00000000000    
 Annihilation of the first spin contaminant:
 S**2 before annihilation     0.6184,   after     0.1019
 Leave Link  508 at Tue Jan  3 09:06:43 2023, MaxMem=   536870912 cpu:               7.2 elap:               5.8
 (Enter /opt/software/gaussian/g16.c01/l801.exe)
 Range of M.O.s used for correlation:     1   117
 NBasis=   117 NAE=    16 NBE=    16 NFC=     0 NFV=     0
 NROrb=    117 NOA=    16 NOB=    16 NVA=   101 NVB=   101
 Leave Link  801 at Tue Jan  3 09:06:44 2023, MaxMem=   536870912 cpu:               0.1 elap:               0.1
 (Enter /opt/software/gaussian/g16.c01/l914.exe)
 UHF ground state
 Doing stability rather than CIS.
 Keep R1 and R2 ints in memory in canonical form, NReq=49665121.
 FoFCou: FMM=F IPFlag=           0 FMFlag=           0 FMFlg1=           0
         NFxFlg=           0 DoJE=F BraDBF=F KetDBF=F FulRan=T
         wScrn=  0.000000 ICntrl=       600 IOpCl=  0 I1Cent=           0 NGrid=           0
         NMat0=    1 NMatS0=   6903 NMatT0=    0 NMatD0=    1 NMtDS0=    0 NMtDT0=    0
 Symmetry not used in FoFCou.
 Two-electron integral symmetry not used.
 MDV=   536870912 DFT=F DoStab=T Mixed=F DoRPA=F DoScal=F NonHer=F
 Making orbital integer symmetry assigments:
    12 initial guesses have been made.
 Convergence on wavefunction:    0.001000000000000
 Davidson Disk Diagonalization:  ConvIn= 1.00D-03 SkipCon=T Conv= 1.00D-03.
 Max sub-space:  2000 roots to seek:    12 dimension of matrix:         3232
 Iteration     1 Dimension    12 NMult     0 NNew     12
 CISAX will form    12 AO SS matrices at one time.
 NMat=    12 NSing=    12 JSym2X= 0.
 Excitation Energies [eV] at current iteration:
 Root      1 :     4.083023812278853
 Root      2 :     4.870299415378732
 Root      3 :     5.952426665519868
 Root      4 :     6.835978913473210
 Root      5 :     6.982995848814609
 Root      6 :     7.189409550661312
 Root      7 :     7.608237827129077
 Root      8 :     7.970592185986905
 Root      9 :     8.622046907031628
 Root     10 :     9.779456154132653
 Root     11 :    10.186985926817494
 Root     12 :    10.376993837248751
 Iteration     2 Dimension    24 NMult    12 NNew     12
 CISAX will form    12 AO SS matrices at one time.
 NMat=    12 NSing=    12 JSym2X= 0.
 Root      1 not converged, maximum delta is    0.338488572508215
 Excitation Energies [eV] at current iteration:
 Root      1 :     2.476540657896641   Change is   -1.606483154382212
 Root      2 :     3.570566392017211   Change is   -1.299733023361521
 Root      3 :     3.860728789530627   Change is   -2.975250123942582
 Root      4 :     4.715557236676682   Change is   -1.236869428843185
 Root      5 :     5.975181003527450   Change is   -1.007814845287158
 Root      6 :     6.149821222667044   Change is   -1.039588327994269
 Root      7 :     6.914729029975646   Change is   -1.055863156011259
 Root      8 :     7.122191091273349   Change is   -0.486046735855729
 Root      9 :     7.785868985383715   Change is   -0.836177921647912
 Root     10 :     8.451169384182275   Change is   -1.925824453066476
 Root     11 :     8.732028587751849   Change is   -1.454957339065645
 Root     12 :     9.029734991773257   Change is   -0.749721162359397
 Iteration     3 Dimension    27 NMult    24 NNew      3
 CISAX will form     3 AO SS matrices at one time.
 NMat=     3 NSing=     3 JSym2X= 0.
 Root      1 not converged, maximum delta is    0.108346850384514
 Excitation Energies [eV] at current iteration:
 Root      1 :     2.195063824555767   Change is   -0.281476833340873
 Root      2 :     3.485317169997904   Change is   -0.085249222019307
 Root      3 :     3.530916204987872   Change is   -0.329812584542756
 Iteration     4 Dimension    30 NMult    27 NNew      3
 CISAX will form     3 AO SS matrices at one time.
 NMat=     3 NSing=     3 JSym2X= 0.
 Root      1 not converged, maximum delta is    0.014070828356760
 Excitation Energies [eV] at current iteration:
 Root      1 :     2.155528298077401   Change is   -0.039535526478366
 Root      2 :     3.475879086207585   Change is   -0.009438083790319
 Root      3 :     3.488496877462306   Change is   -0.042419327525565
 Iteration     5 Dimension    33 NMult    30 NNew      3
 CISAX will form     3 AO SS matrices at one time.
 NMat=     3 NSing=     3 JSym2X= 0.
 Root      1 not converged, maximum delta is    0.005547958330005
 Excitation Energies [eV] at current iteration:
 Root      1 :     2.148168321516297   Change is   -0.007359976561104
 Root      2 :     3.474594157869493   Change is   -0.001284928338092
 Root      3 :     3.481717421282376   Change is   -0.006779456179930
 Iteration     6 Dimension    36 NMult    33 NNew      3
 CISAX will form     3 AO SS matrices at one time.
 NMat=     3 NSing=     3 JSym2X= 0.
 Root      1 not converged, maximum delta is    0.002032603505063
 Excitation Energies [eV] at current iteration:
 Root      1 :     2.146546037535891   Change is   -0.001622283980406
 Root      2 :     3.474482448203240   Change is   -0.000111709666253
 Root      3 :     3.480192772189696   Change is   -0.001524649092679
 Iteration     7 Dimension    39 NMult    36 NNew      3
 CISAX will form     3 AO SS matrices at one time.
 NMat=     3 NSing=     3 JSym2X= 0.
 Root      1 not converged, maximum delta is    0.001008440597827
 Excitation Energies [eV] at current iteration:
 Root      1 :     2.146284560858790   Change is   -0.000261476677101
 Root      2 :     3.474472106427068   Change is   -0.000010341776172
 Root      3 :     3.479644571645642   Change is   -0.000548200544054
 Iteration     8 Dimension    42 NMult    39 NNew      3
 CISAX will form     3 AO SS matrices at one time.
 NMat=     3 NSing=     3 JSym2X= 0.
 Root      1 has converged.
 Excitation Energies [eV] at current iteration:
 Root      1 :     2.146252450131498   Change is   -0.000032110727291
 Root      2 :     3.474471224053547   Change is   -0.000000882373522
 Root      3 :     3.479494844357228   Change is   -0.000149727288414
 Convergence achieved on expansion vectors.
 ***********************************************************************
 Stability analysis using <AA,BB:AA,BB> singles matrix:
 ***********************************************************************
 1PDM for each excited state written to RWF  633
 Ground to excited state transition densities written to RWF  633

 Eigenvectors of the stability matrix:
 
 Excited state symmetry could not be determined.
 Eigenvector   1:  2.097-?Sym  Eigenvalue= 0.0788733  <S**2>=0.849
     13A -> 17A       -0.10253
     16A -> 17A        0.18179
     16A -> 30A       -0.10541
     13B -> 17B       -0.25634
     16B -> 17B        0.87485
 The wavefunction is stable under the perturbations considered.
 Leave Link  914 at Tue Jan  3 09:06:47 2023, MaxMem=   536870912 cpu:               6.1 elap:               3.1
 (Enter /opt/software/gaussian/g16.c01/l508.exe)
 The wavefunction is already stable.
 Leave Link  508 at Tue Jan  3 09:06:47 2023, MaxMem=   536870912 cpu:               0.0 elap:               0.0
 (Enter /opt/software/gaussian/g16.c01/l601.exe)
 Copying SCF densities to generalized density rwf, IOpCl= 1 IROHF=0.

 **********************************************************************

            Population analysis using the SCF Density.

 **********************************************************************

 Alpha  occ. eigenvalues --  -92.02490 -15.58013 -11.25141  -9.02395  -6.70725
 Alpha  occ. eigenvalues --   -6.70575  -6.70359  -1.23759  -1.01795  -0.80362
 Alpha  occ. eigenvalues --   -0.66329  -0.63075  -0.55792  -0.50054  -0.45284
 Alpha  occ. eigenvalues --   -0.36836
 Alpha virt. eigenvalues --    0.09519   0.14521   0.17167   0.18579   0.22114
 Alpha virt. eigenvalues --    0.26430   0.29145   0.34387   0.35697   0.40731
 Alpha virt. eigenvalues --    0.42907   0.45634   0.48926   0.51018   0.52077
 Alpha virt. eigenvalues --    0.57587   0.59289   0.61038   0.61392   0.62603
 Alpha virt. eigenvalues --    0.63432   0.72252   0.75303   0.86148   0.86311
 Alpha virt. eigenvalues --    0.96924   1.02418   1.11214   1.15415   1.20937
 Alpha virt. eigenvalues --    1.24816   1.25481   1.44478   1.51371   1.54801
 Alpha virt. eigenvalues --    1.58454   1.66177   1.75310   1.77723   1.78724
 Alpha virt. eigenvalues --    1.82944   1.85391   1.86452   1.86970   1.91877
 Alpha virt. eigenvalues --    1.95137   1.98510   2.03869   2.04872   2.06115
 Alpha virt. eigenvalues --    2.10742   2.19926   2.23248   2.26316   2.31881
 Alpha virt. eigenvalues --    2.33018   2.34882   2.43594   2.44448   2.48971
 Alpha virt. eigenvalues --    2.64443   2.69060   2.73859   2.75684   2.83678
 Alpha virt. eigenvalues --    2.86054   2.97486   2.99937   3.12115   3.30817
 Alpha virt. eigenvalues --    3.39176   3.45576   3.46083   3.51787   3.52692
 Alpha virt. eigenvalues --    3.63186   3.76891   3.77635   3.84591   3.97158
 Alpha virt. eigenvalues --    4.04849   4.33364   4.38769   4.43610   4.61363
 Alpha virt. eigenvalues --    4.65886   4.72785   4.87085   4.98076   4.98480
 Alpha virt. eigenvalues --    5.16354   5.27545   5.42977   5.53059   5.91591
 Alpha virt. eigenvalues --    9.51089   9.78383  10.16697  21.39241  23.01817
 Alpha virt. eigenvalues --   32.90827
  Beta  occ. eigenvalues --  -92.02307 -15.55816 -11.27004  -9.02222  -6.70450
  Beta  occ. eigenvalues --   -6.70289  -6.70000  -1.20352  -1.02579  -0.80961
  Beta  occ. eigenvalues --   -0.66131  -0.63823  -0.51136  -0.48511  -0.43871
  Beta  occ. eigenvalues --   -0.34288
  Beta virt. eigenvalues --    0.09708   0.14654   0.16728   0.18485   0.22349
  Beta virt. eigenvalues --    0.26320   0.29336   0.32337   0.33748   0.40104
  Beta virt. eigenvalues --    0.43053   0.43370   0.48962   0.52102   0.54206
  Beta virt. eigenvalues --    0.59081   0.59572   0.60441   0.62049   0.62192
  Beta virt. eigenvalues --    0.63895   0.72689   0.75599   0.83449   0.86340
  Beta virt. eigenvalues --    0.97144   1.01428   1.09789   1.13776   1.20165
  Beta virt. eigenvalues --    1.24861   1.27037   1.45683   1.54367   1.54993
  Beta virt. eigenvalues --    1.58442   1.66783   1.71607   1.76007   1.78519
  Beta virt. eigenvalues --    1.83128   1.84952   1.85915   1.87255   1.91655
  Beta virt. eigenvalues --    1.95134   1.98998   2.02791   2.05745   2.06630
  Beta virt. eigenvalues --    2.10811   2.21100   2.26428   2.26577   2.32410
  Beta virt. eigenvalues --    2.32806   2.36569   2.43123   2.45048   2.48479
  Beta virt. eigenvalues --    2.64100   2.73568   2.74214   2.74739   2.83575
  Beta virt. eigenvalues --    2.85760   2.97047   2.98962   3.11844   3.26065
  Beta virt. eigenvalues --    3.39594   3.41263   3.43381   3.50580   3.51830
  Beta virt. eigenvalues --    3.62061   3.75616   3.76005   3.83038   3.96612
  Beta virt. eigenvalues --    4.04010   4.36108   4.40098   4.43930   4.64454
  Beta virt. eigenvalues --    4.68895   4.72631   4.89007   4.99267   5.02951
  Beta virt. eigenvalues --    5.20810   5.31633   5.44145   5.54743   5.92363
  Beta virt. eigenvalues --    9.51757   9.78456  10.16822  21.39463  23.00534
  Beta virt. eigenvalues --   32.92219
          Condensed to atoms (all electrons):
               1          2          3          4          5          6
     1  C    5.198888   0.451048  -0.067864   0.391554   0.417696   0.002424
     2  S    0.451048  14.848535   0.418347  -0.024840  -0.039721  -0.042701
     3  N   -0.067864   0.418347   6.841608   0.003853  -0.000090   0.339945
     4  H    0.391554  -0.024840   0.003853   0.490230  -0.017550   0.000563
     5  H    0.417696  -0.039721  -0.000090  -0.017550   0.482469   0.002300
     6  H    0.002424  -0.042701   0.339945   0.000563   0.002300   0.468343
          Atomic-Atomic Spin Densities.
               1          2          3          4          5          6
     1  C   -0.997568   0.113587   0.007287   0.005427   0.005646   0.000014
     2  S    0.113587   0.222241  -0.177250  -0.002481  -0.002597   0.003981
     3  N    0.007287  -0.177250   0.806033   0.000036  -0.000124  -0.008535
     4  H    0.005427  -0.002481   0.000036   0.055029  -0.001171  -0.000071
     5  H    0.005646  -0.002597  -0.000124  -0.001171   0.058040  -0.000011
     6  H    0.000014   0.003981  -0.008535  -0.000071  -0.000011  -0.031253
 Mulliken charges and spin densities:
               1          2
     1  C   -0.393746  -0.865607
     2  S    0.389331   0.157480
     3  N   -0.535799   0.627447
     4  H    0.156190   0.056770
     5  H    0.154897   0.059784
     6  H    0.229127  -0.035875
 Sum of Mulliken charges =   0.00000  -0.00000
 Mulliken charges and spin densities with hydrogens summed into heavy atoms:
               1          2
     1  C   -0.082659  -0.749053
     2  S    0.389331   0.157480
     3  N   -0.306672   0.591573
 Electronic spatial extent (au):  <R**2>=            822.1381
 Charge=              0.0000 electrons
 Dipole moment (field-independent basis, Debye):
    X=             -2.8499    Y=              0.0609    Z=              0.1090  Tot=              2.8526
 Quadrupole moment (field-independent basis, Debye-Ang):
   XX=            -40.2263   YY=            -24.0179   ZZ=            -25.7278
   XY=             -2.2200   XZ=             -1.2585   YZ=              2.1538
 Traceless Quadrupole moment (field-independent basis, Debye-Ang):
   XX=            -10.2357   YY=              5.9728   ZZ=              4.2629
   XY=             -2.2200   XZ=             -1.2585   YZ=              2.1538
 Octapole moment (field-independent basis, Debye-Ang**2):
  XXX=           -236.7374  YYY=            -26.5501  ZZZ=            -18.4743  XYY=            -58.0989
  XXY=            -25.4602  XXZ=            -15.4835  XZZ=            -58.6490  YZZ=             -8.0914
  YYZ=             -2.5432  XYZ=              1.3196
 Hexadecapole moment (field-independent basis, Debye-Ang**3):
 XXXX=          -1207.4173 YYYY=            -89.0155 ZZZZ=            -58.5462 XXXY=           -167.5123
 XXXZ=           -102.4782 YYYX=            -84.0407 YYYZ=            -11.9789 ZZZX=            -55.2177
 ZZZY=            -18.5421 XXYY=           -188.3371 XXZZ=           -174.5881 YYZZ=            -20.4771
 XXYZ=            -12.2964 YYXZ=            -11.0596 ZZXY=            -26.3521
 N-N= 1.020311797422D+02 E-N=-1.370383642894D+03  KE= 4.915312459426D+02
                          Isotropic Fermi Contact Couplings
        Atom                 a.u.       MegaHertz       Gauss      10(-4) cm-1
     1  C(13)             -0.12909     -72.56174     -25.89183     -24.20399
     2  S(33)              0.04242       7.28486       2.59942       2.42997
     3  N(14)              0.15240      24.62016       8.78509       8.21240
     4  H(1)               0.01836      41.04342      14.64531      13.69061
     5  H(1)               0.01975      44.13007      15.74671      14.72021
     6  H(1)              -0.01402     -31.33808     -11.18221     -10.45326
 --------------------------------------------------------
       Center         ----  Spin Dipole Couplings  ----
                      3XX-RR        3YY-RR        3ZZ-RR
 --------------------------------------------------------
     1   Atom        0.422236      0.035177     -0.457412
     2   Atom       -0.206006     -0.154159      0.360165
     3   Atom       -0.703176     -0.061428      0.764604
     4   Atom        0.039938     -0.028491     -0.011446
     5   Atom        0.034537     -0.022743     -0.011795
     6   Atom       -0.019849      0.017340      0.002509
 --------------------------------------------------------
                        XY            XZ            YZ
 --------------------------------------------------------
     1   Atom        0.013118     -0.021680      0.580215
     2   Atom       -0.075626     -0.026983     -0.601913
     3   Atom       -0.012870      0.042361     -0.973730
     4   Atom       -0.036847     -0.025352     -0.017779
     5   Atom        0.043090      0.027670     -0.015521
     6   Atom       -0.064661     -0.042628      0.021453
 --------------------------------------------------------


 ---------------------------------------------------------------------------------
              Anisotropic Spin Dipole Couplings in Principal Axis System
 ---------------------------------------------------------------------------------

       Atom             a.u.   MegaHertz   Gauss  10(-4) cm-1        Axes

              Baa    -0.8420  -112.982   -40.315   -37.687  0.0200 -0.5518  0.8337
     1 C(13)  Bbb     0.4189    56.217    20.059    18.752  0.2601  0.8081  0.5286
              Bcc     0.4230    56.765    20.255    18.935  0.9654 -0.2063 -0.1597
 
              Baa    -0.5683   -23.301    -8.315    -7.772  0.2105  0.8175  0.5361
     2 S(33)  Bbb    -0.1896    -7.773    -2.774    -2.593  0.9774 -0.1648 -0.1325
              Bcc     0.7579    31.075    11.088    10.365  0.0200 -0.5518  0.8337
 
              Baa    -0.7178   -27.683    -9.878    -9.234  0.6773 -0.6059 -0.4173
     3 N(14)  Bbb    -0.6924   -26.703    -9.528    -8.907  0.7354  0.5731  0.3616
              Bcc     1.4101    54.386    19.406    18.141  0.0201 -0.5518  0.8337
 
              Baa    -0.0597   -31.871   -11.372   -10.631  0.4093  0.7654  0.4967
     4 H(1)   Bbb    -0.0003    -0.154    -0.055    -0.052  0.0200 -0.5518  0.8337
              Bcc     0.0600    32.025    11.427    10.682  0.9122 -0.3313 -0.2412
 
              Baa    -0.0611   -32.607   -11.635   -10.876 -0.4719  0.7299  0.4945
     5 H(1)   Bbb    -0.0009    -0.457    -0.163    -0.152  0.0200 -0.5518  0.8337
              Bcc     0.0620    33.064    11.798    11.029  0.8814  0.4033  0.2458
 
              Baa    -0.0754   -40.239   -14.358   -13.422  0.8124  0.4951  0.3081
     6 H(1)   Bbb    -0.0127    -6.786    -2.421    -2.264  0.0201 -0.5518  0.8337
              Bcc     0.0881    47.025    16.780    15.686 -0.5828  0.6711  0.4583
 

 ---------------------------------------------------------------------------------

 No NMR shielding tensors so no spin-rotation constants.
 Leave Link  601 at Tue Jan  3 09:06:47 2023, MaxMem=   536870912 cpu:               0.5 elap:               0.3
 (Enter /opt/software/gaussian/g16.c01/l9999.exe)

 Test job not archived.
 1\1\GINC-GRA738\Stability\UHF\Gen\C1H3N1S1\BHAVUK\03-Jan-2023\0\\#p uh
 f/gen stable=opt scf=(maxcycle=900,verytightlineq,xqc) integral=grid=u
 ltrafine symmetry=None density=current iop(99/18=-1) output=wfn\\0004_
 q000_m01_k00_opt_uwb97xd_def2svpd/0004_q000_m01_k00_force_uhf_def2tzvp
  stable-force\\0,1\C,0,0.8882935141,0.1422345627,0.1089263123\S,0,2.50
 67242222,0.1041696479,0.0448895292\N,0,3.3032398974,1.2298974173,0.770
 7622237\H,0,0.3752741579,-0.6653344173,-0.4132293362\H,0,0.3242760911,
 0.9148647349,0.6338600998\H,0,2.7138421188,1.9201180545,1.2418511706\\
 Version=ES64L-G16RevC.01\HF=-491.5586459\S2=0.61841\S2-1=0.\S2A=0.1018
 68\RMSD=2.867e-10\Dipole=-1.121243,0.0239732,0.0428849\Quadrupole=-7.6
 099719,4.4406246,3.1693473,-1.6505152,-0.9356587,1.6012657\PG=Unknown\
 \@

 Writing a WFN file to "0004_q000_m01_k00_force_uhf_def2tzvp.wfn"


 One man practicing sportsmanship is far better than 50 preaching it.
 -- Knute K. Rockne
 Job cpu time:       0 days  0 hours  0 minutes 25.3 seconds.
 Elapsed time:       0 days  0 hours  0 minutes 15.0 seconds.
 File lengths (MBytes):  RWF=     97 Int=      0 D2E=      0 Chk=      3 Scr=      1
 Normal termination of Gaussian 16 at Tue Jan  3 09:06:47 2023.
 Initial command:
 /opt/software/gaussian/g16.c01/l1.exe "/localscratch/bhavuk.2151402.0/Gau-22983.inp" -scrdir="/localscratch/bhavuk.2151402.0/"
 Entering Link 1 = /opt/software/gaussian/g16.c01/l1.exe PID=     23590.
  
 Copyright (c) 1988-2019, Gaussian, Inc.  All Rights Reserved.
  
 This is part of the Gaussian(R) 16 program.  It is based on
 the Gaussian(R) 09 system (copyright 2009, Gaussian, Inc.),
 the Gaussian(R) 03 system (copyright 2003, Gaussian, Inc.),
 the Gaussian(R) 98 system (copyright 1998, Gaussian, Inc.),
 the Gaussian(R) 94 system (copyright 1995, Gaussian, Inc.),
 the Gaussian 92(TM) system (copyright 1992, Gaussian, Inc.),
 the Gaussian 90(TM) system (copyright 1990, Gaussian, Inc.),
 the Gaussian 88(TM) system (copyright 1988, Gaussian, Inc.),
 the Gaussian 86(TM) system (copyright 1986, Carnegie Mellon
 University), and the Gaussian 82(TM) system (copyright 1983,
 Carnegie Mellon University). Gaussian is a federally registered
 trademark of Gaussian, Inc.
  
 This software contains proprietary and confidential information,
 including trade secrets, belonging to Gaussian, Inc.
  
 This software is provided under written license and may be
 used, copied, transmitted, or stored only in accord with that
 written license.
  
 The following legend is applicable only to US Government
 contracts under FAR:
  
                    RESTRICTED RIGHTS LEGEND
  
 Use, reproduction and disclosure by the US Government is
 subject to restrictions as set forth in subparagraphs (a)
 and (c) of the Commercial Computer Software - Restricted
 Rights clause in FAR 52.227-19.
  
 Gaussian, Inc.
 340 Quinnipiac St., Bldg. 40, Wallingford CT 06492
  
  
 ---------------------------------------------------------------
 Warning -- This program may not be used in any manner that
 competes with the business of Gaussian, Inc. or will provide
 assistance to any competitor of Gaussian, Inc.  The licensee
 of this program is prohibited from giving any competitor of
 Gaussian, Inc. access to this program.  By using this program,
 the user acknowledges that Gaussian, Inc. is engaged in the
 business of creating and licensing software in the field of
 computational chemistry and represents and warrants to the
 licensee that it is not a competitor of Gaussian, Inc. and that
 it will not use this program in any manner prohibited above.
 ---------------------------------------------------------------
  

 Cite this work as:
 Gaussian 16, Revision C.01,
 M. J. Frisch, G. W. Trucks, H. B. Schlegel, G. E. Scuseria, 
 M. A. Robb, J. R. Cheeseman, G. Scalmani, V. Barone, 
 G. A. Petersson, H. Nakatsuji, X. Li, M. Caricato, A. V. Marenich, 
 J. Bloino, B. G. Janesko, R. Gomperts, B. Mennucci, H. P. Hratchian, 
 J. V. Ortiz, A. F. Izmaylov, J. L. Sonnenberg, D. Williams-Young, 
 F. Ding, F. Lipparini, F. Egidi, J. Goings, B. Peng, A. Petrone, 
 T. Henderson, D. Ranasinghe, V. G. Zakrzewski, J. Gao, N. Rega, 
 G. Zheng, W. Liang, M. Hada, M. Ehara, K. Toyota, R. Fukuda, 
 J. Hasegawa, M. Ishida, T. Nakajima, Y. Honda, O. Kitao, H. Nakai, 
 T. Vreven, K. Throssell, J. A. Montgomery, Jr., J. E. Peralta, 
 F. Ogliaro, M. J. Bearpark, J. J. Heyd, E. N. Brothers, K. N. Kudin, 
 V. N. Staroverov, T. A. Keith, R. Kobayashi, J. Normand, 
 K. Raghavachari, A. P. Rendell, J. C. Burant, S. S. Iyengar, 
 J. Tomasi, M. Cossi, J. M. Millam, M. Klene, C. Adamo, R. Cammi, 
 J. W. Ochterski, R. L. Martin, K. Morokuma, O. Farkas, 
 J. B. Foresman, and D. J. Fox, Gaussian, Inc., Wallingford CT, 2019.
 
 ******************************************
 Gaussian 16:  ES64L-G16RevC.01  3-Jul-2019
                 3-Jan-2023 
 ******************************************
 %chk=0004_q000_m01_k00_force_uhf_def2tzvp.chk
 %nprocshared=2
 Will use up to    2 processors via shared memory.
 %mem=4GB
 ----------------------------------------------------------------------
 #p uhf/chkbasis force guess=read geom=check scf=(maxcycle=900,verytigh
 tlineq,xqc) integral=grid=ultrafine symmetry=None density=current pop=
 (cm5,hlygat,mbs,npa) output=wfx
 ----------------------------------------------------------------------
 1/10=7,29=2,30=1,38=1/1,3;
 2/12=2,15=3,40=1/2;
 3/5=7,6=2,11=2,14=-4,25=1,30=1,67=1,71=1,75=-5,116=2/1,2,3;
 4/5=1/1;
 5/5=2,7=900,8=3,13=1,17=3,38=6/2,8;
 6/7=2,8=2,9=2,10=2,15=8,20=15,22=-1,27=100,28=1,40=-1,79=1/1,2,7;
 7/29=1,30=1/1,2,3,16;
 1/10=7,30=1/3;
 99/6=200/99;
 Leave Link    1 at Tue Jan  3 09:06:47 2023, MaxMem=   536870912 cpu:               0.2 elap:               0.1
 (Enter /opt/software/gaussian/g16.c01/l101.exe)
 ----------------------------------------------------------------------
 0004_q000_m01_k00_opt_uwb97xd_def2svpd/0004_q000_m01_k00_force_uhf_def
 2tzvp stable-force
 ----------------------------------------------------------------------
 Structure from the checkpoint file:  "0004_q000_m01_k00_force_uhf_def2tzvp.chk"
 Charge =  0 Multiplicity = 1
 Z-Matrix found in chk file.
 C,0,0.8882935141,0.1422345627,0.1089263123
 S,0,2.5067242222,0.1041696479,0.0448895292
 N,0,3.3032398974,1.2298974173,0.7707622237
 H,0,0.3752741579,-0.6653344173,-0.4132293362
 H,0,0.3242760911,0.9148647349,0.6338600998
 H,0,2.7138421188,1.9201180545,1.2418511706
 Recover connectivity data from disk.
 ITRead=  0  0  0  0  0  0
 MicOpt= -1 -1 -1 -1 -1 -1
 NAtoms=      6 NQM=        6 NQMF=       0 NMMI=      0 NMMIF=      0
                NMic=       0 NMicF=      0.
                    Isotopes and Nuclear Properties:
 (Nuclear quadrupole moments (NQMom) in fm**2, nuclear magnetic moments (NMagM)
  in nuclear magnetons)

  Atom         1           2           3           4           5           6
 IAtWgt=          12          32          14           1           1           1
 AtmWgt=  12.0000000  31.9720718  14.0030740   1.0078250   1.0078250   1.0078250
 NucSpn=           0           0           2           1           1           1
 AtZEff=   3.6000000  13.6000000   4.5500000   1.0000000   1.0000000   1.0000000
 NQMom=    0.0000000   0.0000000   2.0440000   0.0000000   0.0000000   0.0000000
 NMagM=    0.0000000   0.0000000   0.4037610   2.7928460   2.7928460   2.7928460
 AtZNuc=   6.0000000  16.0000000   7.0000000   1.0000000   1.0000000   1.0000000
 Leave Link  101 at Tue Jan  3 09:06:47 2023, MaxMem=   536870912 cpu:               0.4 elap:               0.2
 (Enter /opt/software/gaussian/g16.c01/l103.exe)

 GradGradGradGradGradGradGradGradGradGradGradGradGradGradGradGradGradGrad
 Berny optimization.
 Initialization pass.
 Trust Radius=3.00D-01 FncErr=1.00D-07 GrdErr=1.00D-07 EigMax=2.50D+02 EigMin=1.00D-04
[...]
    27    C    1  f(S1)  Ryd( 4f)     0.00009       3.24139
    28    C    1  f(C2)  Ryd( 4f)     0.00008       3.57321
    29    C    1  f(S2)  Ryd( 4f)     0.00014       3.74170
    30    C    1  f(C3)  Ryd( 4f)     0.00011       3.96543
    31    C    1  f(S3)  Ryd( 4f)     0.00003       3.63434
 
    32    S    2  S      Cor( 1S)     1.00000     -90.62134
    33    S    2  S      Cor( 2S)     0.99964     -10.17576
    34    S    2  S      Val( 3S)     0.75222      -0.76633
    35    S    2  S      Ryd( 4S)     0.01060       1.06748
    36    S    2  S      Ryd( 5S)     0.00000      19.84294
    37    S    2  px     Cor( 2p)     0.99987      -6.69084
    38    S    2  px     Val( 3p)     0.46670      -0.12028
    39    S    2  px     Ryd( 4p)     0.00439       1.01409
    40    S    2  px     Ryd( 5p)     0.00005       2.12106
    41    S    2  px     Ryd( 6p)     0.00000       8.89843
    42    S    2  py     Cor( 2p)     0.99992      -6.69383
    43    S    2  py     Val( 3p)     0.60354      -0.21685
    44    S    2  py     Ryd( 4p)     0.00243       0.88281
    45    S    2  py     Ryd( 5p)     0.00005       1.91568
    46    S    2  py     Ryd( 6p)     0.00000       9.21915
    47    S    2  pz     Cor( 2p)     0.99990      -6.69356
    48    S    2  pz     Val( 3p)     0.60586      -0.22771
    49    S    2  pz     Ryd( 4p)     0.00200       0.78650
    50    S    2  pz     Ryd( 5p)     0.00004       1.98347
    51    S    2  pz     Ryd( 6p)     0.00000       9.26928
    52    S    2  dxy    Ryd( 3d)     0.00621       1.09661
    53    S    2  dxy    Ryd( 4d)     0.00008       1.97800
    54    S    2  dxz    Ryd( 3d)     0.00896       0.98156
    55    S    2  dxz    Ryd( 4d)     0.00007       1.86426
    56    S    2  dyz    Ryd( 3d)     0.00447       0.95378
    57    S    2  dyz    Ryd( 4d)     0.00008       1.97543
    58    S    2  dx2y2  Ryd( 3d)     0.01115       1.20957
    59    S    2  dx2y2  Ryd( 4d)     0.00008       2.15482
    60    S    2  dz2    Ryd( 3d)     0.00762       0.93816
    61    S    2  dz2    Ryd( 4d)     0.00005       1.83206
    62    S    2  f(0)   Ryd( 4f)     0.00008       2.37025
    63    S    2  f(C1)  Ryd( 4f)     0.00020       2.47641
    64    S    2  f(S1)  Ryd( 4f)     0.00012       2.32979
    65    S    2  f(C2)  Ryd( 4f)     0.00012       2.57445
    66    S    2  f(S2)  Ryd( 4f)     0.00010       2.50816
    67    S    2  f(C3)  Ryd( 4f)     0.00030       2.67356
    68    S    2  f(S3)  Ryd( 4f)     0.00010       2.78144
 
    69    N    3  S      Cor( 1S)     0.99987     -15.40571
    70    N    3  S      Val( 2S)     0.78135      -0.78758
    71    N    3  S      Ryd( 3S)     0.00054       1.35858
    72    N    3  S      Ryd( 4S)     0.00002       4.52454
    73    N    3  S      Ryd( 5S)     0.00000      31.01067
    74    N    3  px     Val( 2p)     0.81512      -0.31623
    75    N    3  px     Ryd( 3p)     0.00193       0.73938
    76    N    3  px     Ryd( 4p)     0.00010       2.95485
    77    N    3  py     Val( 2p)     0.55058      -0.16780
    78    N    3  py     Ryd( 3p)     0.00191       0.70711
    79    N    3  py     Ryd( 4p)     0.00005       3.27778
    80    N    3  pz     Val( 2p)     0.49154      -0.11385
    81    N    3  pz     Ryd( 3p)     0.00287       0.67821
    82    N    3  pz     Ryd( 4p)     0.00003       2.83650
    83    N    3  dxy    Ryd( 3d)     0.00595       1.68164
    84    N    3  dxy    Ryd( 4d)     0.00002       5.16683
    85    N    3  dxz    Ryd( 3d)     0.00390       1.51142
    86    N    3  dxz    Ryd( 4d)     0.00001       5.04411
    87    N    3  dyz    Ryd( 3d)     0.00321       1.61760
    88    N    3  dyz    Ryd( 4d)     0.00003       5.14697
    89    N    3  dx2y2  Ryd( 3d)     0.00321       1.46137
    90    N    3  dx2y2  Ryd( 4d)     0.00003       5.06614
    91    N    3  dz2    Ryd( 3d)     0.00295       1.44683
    92    N    3  dz2    Ryd( 4d)     0.00001       5.02675
    93    N    3  f(0)   Ryd( 4f)     0.00013       4.68826
    94    N    3  f(C1)  Ryd( 4f)     0.00002       4.50679
    95    N    3  f(S1)  Ryd( 4f)     0.00010       4.59630
    96    N    3  f(C2)  Ryd( 4f)     0.00007       4.56095
    97    N    3  f(S2)  Ryd( 4f)     0.00017       5.02645
    98    N    3  f(C3)  Ryd( 4f)     0.00005       4.81068
    99    N    3  f(S3)  Ryd( 4f)     0.00001       4.70425
 
   100    H    4  S      Val( 1S)     0.37497       0.05940
   101    H    4  S      Ryd( 2S)     0.00021       0.99549
   102    H    4  S      Ryd( 3S)     0.00006       1.73190
   103    H    4  px     Ryd( 2p)     0.00006       2.73501
   104    H    4  py     Ryd( 2p)     0.00013       2.81087
   105    H    4  pz     Ryd( 2p)     0.00012       2.51406
 
   106    H    5  S      Val( 1S)     0.38052       0.05603
   107    H    5  S      Ryd( 2S)     0.00051       1.07367
   108    H    5  S      Ryd( 3S)     0.00007       1.64977
   109    H    5  px     Ryd( 2p)     0.00009       2.76652
   110    H    5  py     Ryd( 2p)     0.00014       2.78370
   111    H    5  pz     Ryd( 2p)     0.00013       2.51957
 
   112    H    6  S      Val( 1S)     0.34421       0.13239
   113    H    6  S      Ryd( 2S)     0.00063       1.10176
   114    H    6  S      Ryd( 3S)     0.00017       1.75795
   115    H    6  px     Ryd( 2p)     0.00009       2.71757
   116    H    6  py     Ryd( 2p)     0.00006       2.80225
   117    H    6  pz     Ryd( 2p)     0.00006       2.54969


 Summary of Natural Population Analysis:                  
                                                          
                                       Natural Population 
                Natural  -----------------------------------------------
    Atom  No    Charge         Core      Valence    Rydberg      Total
 -----------------------------------------------------------------------
      C    1   -0.74499      0.99979     2.72804    0.01716     3.74499
      S    2    0.51298      4.99934     2.42832    0.05936     7.48702
      N    3   -0.16577      0.99987     2.63859    0.02731     3.66577
      H    4    0.12444      0.00000     0.37497    0.00059     0.37556
      H    5    0.11854      0.00000     0.38052    0.00094     0.38146
      H    6    0.15479      0.00000     0.34421    0.00100     0.34521
 =======================================================================
   * Total *   -0.00000      6.99900     8.89466    0.10635    16.00000

                                 Natural Population      
 --------------------------------------------------------
   Core                       6.99900 ( 99.9856% of   7)
   Valence                    8.89466 ( 98.8295% of   9)
   Natural Minimal Basis     15.89365 ( 99.3353% of  16)
   Natural Rydberg Basis      0.10635 (  0.6647% of  16)
 --------------------------------------------------------

    Atom  No          Natural Electron Configuration
 ----------------------------------------------------------------------------
      C    1      [core]2S( 0.62)2p( 2.10)3p( 0.01)3d( 0.01)
      S    2      [core]3S( 0.75)3p( 1.68)4S( 0.01)3d( 0.04)4p( 0.01)
      N    3      [core]2S( 0.78)2p( 1.86)3p( 0.01)3d( 0.02)
      H    4            1S( 0.37)
      H    5            1S( 0.38)
      H    6            1S( 0.34)


 NBO analysis skipped by request.
 Leave Link  607 at Tue Jan  3 09:06:52 2023, MaxMem=   536870912 cpu:               3.7 elap:               1.8
 (Enter /opt/software/gaussian/g16.c01/l701.exe)
 ... and contract with generalized density number  0.
 Compute integral first derivatives.
 Leave Link  701 at Tue Jan  3 09:06:53 2023, MaxMem=   536870912 cpu:               0.3 elap:               0.2
 (Enter /opt/software/gaussian/g16.c01/l702.exe)
 L702 exits ... SP integral derivatives will be done elsewhere.
 Leave Link  702 at Tue Jan  3 09:06:53 2023, MaxMem=   536870912 cpu:               0.1 elap:               0.0
 (Enter /opt/software/gaussian/g16.c01/l703.exe)
 Integral derivatives from FoFJK, PRISM(SPDF).
 Compute integral first derivatives, UseDBF=F ICtDFT=           0.
 Calling FoFJK, ICntrl=      2127 FMM=F ISym2X=0 I1Cent= 0 IOpClX= 1 NMat=1 NMatS=1 NMatT=0.
 FoFJK:  IHMeth= 1 ICntrl=    2127 DoSepK=F KAlg= 0 I1Cent=           0 FoldK=F
 IRaf=         0 NMat=       1 IRICut=       1 DoRegI=T DoRafI=F ISym2E= 0 IDoP0=0 IntGTp=1.
 FoFCou: FMM=F IPFlag=           0 FMFlag=      100000 FMFlg1=         800
         NFxFlg=           0 DoJE=F BraDBF=F KetDBF=F FulRan=T
         wScrn=  0.000000 ICntrl=      2127 IOpCl=  1 I1Cent=           0 NGrid=           0
         NMat0=    1 NMatS0=      1 NMatT0=    0 NMatD0=    1 NMtDS0=    0 NMtDT0=    0
 Symmetry not used in FoFCou.
 Leave Link  703 at Tue Jan  3 09:06:55 2023, MaxMem=   536870912 cpu:               5.2 elap:               2.6
 (Enter /opt/software/gaussian/g16.c01/l716.exe)
 Dipole        =-1.12124300D+00 2.39731853D-02 4.28848688D-02
 -------------------------------------------------------------------
 Center     Atomic                   Forces (Hartrees/Bohr)
 Number     Number              X              Y              Z
 -------------------------------------------------------------------
      1        6          -0.033621559    0.007197144    0.005573088
      2       16           0.031482450   -0.007225875   -0.005543054
      3        7          -0.017363345    0.010163376    0.007151108
      4        1           0.005678956    0.009976314    0.006467024
      5        1           0.005045161   -0.009967107   -0.006718860
      6        1           0.008778338   -0.010143852   -0.006929307
 -------------------------------------------------------------------
 Cartesian Forces:  Max     0.033621559 RMS     0.013570354
 Z-matrix is all fixed cartesians, so copy forces.
 Force constants in Cartesian coordinates: 
                1             2             3             4             5 
      1  0.814685D+00
      2 -0.103178D-01  0.489891D+00
      3 -0.236660D-01  0.249297D+00  0.279166D+00
      4 -0.473219D+00  0.285194D-01  0.292131D-01  0.664394D+00
      5  0.961866D-02 -0.824860D-01 -0.267353D-01  0.176381D+00  0.396780D+00
      6  0.167037D-01 -0.271885D-01 -0.608333D-01  0.101780D+00  0.230703D+00
      7 -0.980132D-03 -0.200337D-01 -0.128629D-01 -0.210895D+00 -0.175482D+00
      8  0.308076D-03  0.143332D-01 -0.733807D-03 -0.217229D+00 -0.336130D+00
      9  0.597737D-03 -0.245367D-03  0.152527D-01 -0.139479D+00 -0.196571D+00
     10 -0.163349D+00 -0.915366D-01 -0.575233D-01 -0.926052D-03 -0.186700D-01
     11 -0.836129D-01 -0.214907D+00 -0.116374D+00  0.389598D-03  0.844345D-02
     12 -0.522783D-01 -0.116182D+00 -0.111677D+00  0.307294D-03  0.528464D-02
     13 -0.177134D+00  0.932947D-01  0.649511D-01  0.905791D-03  0.178651D-01
     14  0.839304D-01 -0.204801D+00 -0.108521D+00  0.246077D-03  0.152696D-01
     15  0.587541D-01 -0.108748D+00 -0.117275D+00  0.611040D-03 -0.327945D-02
     16 -0.268673D-05  0.740782D-04 -0.111937D-03  0.197412D-01 -0.971277D-02
     17  0.736242D-04 -0.202996D-02  0.306739D-02  0.116927D-01 -0.187726D-02
     18 -0.111233D-03  0.306689D-02 -0.463426D-02  0.756733D-02 -0.940153D-02
                6             7             8             9            10 
      6  0.192015D+00
      7 -0.111851D+00  0.406134D+00
      8 -0.195565D+00  0.534271D-01  0.531518D+00
      9 -0.159476D+00  0.263756D-01  0.328043D+00  0.250445D+00
     10 -0.123067D-01  0.228968D-05 -0.631307D-04  0.953945D-04  0.135830D+00
     11  0.482750D-02 -0.631368D-04  0.174080D-02 -0.263045D-02  0.957457D-01
     12  0.462508D-02  0.953981D-04 -0.263030D-02  0.397455D-02  0.605513D-01
     13  0.122731D-01 -0.247110D-05  0.681327D-04 -0.102953D-03  0.284430D-01
     14 -0.285735D-02  0.681506D-04 -0.187904D-02  0.283934D-02  0.145241D-01
     15  0.173925D-01 -0.102963D-03  0.283889D-02 -0.428974D-02  0.918329D-02
     16 -0.659932D-02 -0.194258D+00  0.163489D+00  0.112513D+00  0.000000D+00
     17 -0.991929D-02  0.142084D+00 -0.209584D+00 -0.131436D+00  0.000000D+00
     18  0.627668D-02  0.983460D-01 -0.131953D+00 -0.105907D+00  0.000000D+00
               11            12            13            14            15 
     11  0.207851D+00
     12  0.122960D+00  0.985155D-01
     13 -0.124593D-01 -0.867575D-02  0.147787D+00
     14 -0.312790D-02 -0.943229D-02 -0.987686D-01  0.194538D+00
     15 -0.878307D-02  0.456134D-02 -0.684455D-01  0.117972D+00  0.996107D-01
     16  0.000000D+00  0.000000D+00  0.000000D+00  0.000000D+00  0.000000D+00
     17  0.000000D+00  0.000000D+00  0.000000D+00  0.000000D+00  0.000000D+00
     18  0.000000D+00  0.000000D+00  0.000000D+00  0.000000D+00  0.000000D+00
               16            17            18 
     16  0.174519D+00
     17 -0.153850D+00  0.213491D+00
     18 -0.105802D+00  0.138288D+00  0.104265D+00
 Leave Link  716 at Tue Jan  3 09:06:55 2023, MaxMem=   536870912 cpu:               0.1 elap:               0.0
 (Enter /opt/software/gaussian/g16.c01/l103.exe)

 GradGradGradGradGradGradGradGradGradGradGradGradGradGradGradGradGradGrad
 Berny optimization.
 Search for a local minimum.
 Step number   1 out of a maximum of    2
 All quantities printed in internal units (Hartrees-Bohrs-Radians)
 Second derivative matrix not updated -- first step.
 The second derivative matrix:
                          X1        Y1        Z1        X2        Y2
           X1           0.81469
           Y1          -0.01032   0.48989
           Z1          -0.02367   0.24930   0.27917
           X2          -0.47322   0.02852   0.02921   0.66439
           Y2           0.00962  -0.08249  -0.02674   0.17638   0.39678
           Z2           0.01670  -0.02719  -0.06083   0.10178   0.23070
           X3          -0.00098  -0.02003  -0.01286  -0.21090  -0.17548
           Y3           0.00031   0.01433  -0.00073  -0.21723  -0.33613
           Z3           0.00060  -0.00025   0.01525  -0.13948  -0.19657
           X4          -0.16335  -0.09154  -0.05752  -0.00093  -0.01867
           Y4          -0.08361  -0.21491  -0.11637   0.00039   0.00844
           Z4          -0.05228  -0.11618  -0.11168   0.00031   0.00528
           X5          -0.17713   0.09329   0.06495   0.00091   0.01787
           Y5           0.08393  -0.20480  -0.10852   0.00025   0.01527
           Z5           0.05875  -0.10875  -0.11727   0.00061  -0.00328
           X6          -0.00000   0.00007  -0.00011   0.01974  -0.00971
           Y6           0.00007  -0.00203   0.00307   0.01169  -0.00188
           Z6          -0.00011   0.00307  -0.00463   0.00757  -0.00940
                          Z2        X3        Y3        Z3        X4
           Z2           0.19201
           X3          -0.11185   0.40613
           Y3          -0.19556   0.05343   0.53152
           Z3          -0.15948   0.02638   0.32804   0.25045
           X4          -0.01231   0.00000  -0.00006   0.00010   0.13583
           Y4           0.00483  -0.00006   0.00174  -0.00263   0.09575
           Z4           0.00463   0.00010  -0.00263   0.00397   0.06055
           X5           0.01227  -0.00000   0.00007  -0.00010   0.02844
           Y5          -0.00286   0.00007  -0.00188   0.00284   0.01452
           Z5           0.01739  -0.00010   0.00284  -0.00429   0.00918
           X6          -0.00660  -0.19426   0.16349   0.11251   0.00000
           Y6          -0.00992   0.14208  -0.20958  -0.13144   0.00000
           Z6           0.00628   0.09835  -0.13195  -0.10591   0.00000
                          Y4        Z4        X5        Y5        Z5
           Y4           0.20785
           Z4           0.12296   0.09852
           X5          -0.01246  -0.00868   0.14779
           Y5          -0.00313  -0.00943  -0.09877   0.19454
           Z5          -0.00878   0.00456  -0.06845   0.11797   0.09961
           X6           0.00000   0.00000   0.00000   0.00000   0.00000
           Y6           0.00000   0.00000   0.00000   0.00000   0.00000
           Z6           0.00000   0.00000   0.00000   0.00000   0.00000
                          X6        Y6        Z6
           X6           0.17452
           Y6          -0.15385   0.21349
           Z6          -0.10580   0.13829   0.10426
 ITU=  0
     Eigenvalues ---    0.01003   0.01738   0.04698   0.06571   0.11631
     Eigenvalues ---    0.13625   0.18094   0.33456   0.69321   0.85789
     Eigenvalues ---    1.12959   1.46007
 Angle between quadratic step and forces=  70.79 degrees.
 Linear search not attempted -- first point.
 B after Tr=     0.017455   -0.017237   -0.011841
         Rot=    0.999999   -0.000029    0.000651   -0.000983 Ang=  -0.14 deg.
 Variable       Old X    -DE/DX   Delta X   Delta X   Delta X     New X
                                 (Linear)    (Quad)   (Total)
    X1        1.67863  -0.03362   0.00000   0.01736   0.03390   1.71253
    Y1        0.26878   0.00720   0.00000   0.03933   0.02541   0.29420
    Z1        0.20584   0.00557   0.00000   0.02562   0.01601   0.22185
    X2        4.73702   0.03148   0.00000   0.06197   0.07905   4.81608
    Y2        0.19685  -0.00723   0.00000  -0.04789  -0.05570   0.14116
    Z2        0.08483  -0.00554   0.00000  -0.03322  -0.03880   0.04603
    X3        6.24222  -0.01736   0.00000  -0.07657  -0.06564   6.17658
    Y3        2.32417   0.01016   0.00000   0.01238   0.00718   2.33135
    Z3        1.45653   0.00715   0.00000   0.01011   0.00643   1.46296
    X4        0.70917   0.00568   0.00000  -0.02047   0.00021   0.70938
    Y4       -1.25730   0.00998   0.00000   0.09148   0.07564  -1.18166
    Z4       -0.78089   0.00647   0.00000   0.06105   0.05004  -0.73085
    X5        0.61279   0.00505   0.00000   0.07181   0.08422   0.69701
    Y5        1.72884  -0.00997   0.00000   0.03112   0.01515   1.74400
    Z5        1.19782  -0.00672   0.00000   0.01891   0.00805   1.20588
    X6        5.12842   0.00878   0.00000  -0.13916  -0.13175   4.99667
    Y6        3.62850  -0.01014   0.00000  -0.06012  -0.06769   3.56081
    Z6        2.34676  -0.00693   0.00000  -0.03659  -0.04173   2.30503
         Item               Value     Threshold  Converged?
 Maximum Force            0.033622     0.000450     NO 
 RMS     Force            0.013570     0.000300     NO 
 Maximum Displacement     0.131748     0.001800     NO 
 RMS     Displacement     0.056078     0.001200     NO 
 Predicted change in Energy=-2.304531D-03
 GradGradGradGradGradGradGradGradGradGradGradGradGradGradGradGradGradGrad

 Leave Link  103 at Tue Jan  3 09:06:55 2023, MaxMem=   536870912 cpu:               0.0 elap:               0.0
 (Enter /opt/software/gaussian/g16.c01/l9999.exe)
 Unable to Open any file for archive entry.
 1\1\GINC-GRA738\Force\UHF\Gen\C1H3N1S1\BHAVUK\03-Jan-2023\0\\#p uhf/ch
 kbasis force guess=read geom=check scf=(maxcycle=900,verytightlineq,xq
 c) integral=grid=ultrafine symmetry=None density=current pop=(cm5,hlyg
 at,mbs,npa) output=wfx\\0004_q000_m01_k00_opt_uwb97xd_def2svpd/0004_q0
 00_m01_k00_force_uhf_def2tzvp stable-force\\0,1\C,0.8882935141,0.14223
 45627,0.1089263123\S,2.5067242222,0.1041696479,0.0448895292\N,3.303239
 8974,1.2298974173,0.7707622237\H,0.3752741579,-0.6653344173,-0.4132293
 362\H,0.3242760911,0.9148647349,0.6338600998\H,2.7138421188,1.92011805
 45,1.2418511706\\Version=ES64L-G16RevC.01\HF=-491.5586459\S2=0.61841\S
 2-1=0.\S2A=0.101868\RMSD=8.465e-11\RMSF=1.357e-02\Dipole=-1.121243,0.0
 239732,0.0428849\Quadrupole=-7.609972,4.4406246,3.1693474,-1.6505152,-
 0.9356587,1.6012656\PG=Unknown\\@
 The archive entry for this job was punched.

 Writing a WFNX file to "0004_q000_m01_k00_force_uhf_def2tzvp.wfx"


 The impersonal hand of government can
 never replace the helping hand of a neighbor.
                        -- Hubert H. Humphrey
 Job cpu time:       0 days  0 hours  0 minutes 15.5 seconds.
 Elapsed time:       0 days  0 hours  0 minutes  7.5 seconds.
 File lengths (MBytes):  RWF=     15 Int=      0 D2E=      0 Chk=      3 Scr=      1
 Normal termination of Gaussian 16 at Tue Jan  3 09:06:55 2023.
