 Entering Gaussian System, Link 0=g16
 Input=0004_q000_m01_k00_force_uwb97xd_def2svpd.com
 Output=0004_q000_m01_k00_force_uwb97xd_def2svpd.log
 Initial command:
 /opt/software/gaussian/g16.c01/l1.exe "/localscratch/bhavuk.2151407.0/Gau-5570.inp" -scrdir="/localscratch/bhavuk.2151407.0/"
 Entering Link 1 = /opt/software/gaussian/g16.c01/l1.exe PID=      5571.
  
 Copyright (c) 1988-2019, Gaussian, Inc.  All Rights Reserved.
  
 This is part of the Gaussian(R) 16 program.  It is based on
 the Gaussian(R) 09 system (copyright 2009, Gaussian, Inc.),
 the Gaussian(R) 03 system (copyright 2003, Gaussian, Inc.),
 the Gaussian(R) 98 system (copyright 1998, Gaussian, Inc.),
 the Gaussian(R) 94 system (copyright 1995, Gaussian, Inc.),
 the Gaussian 92(TM) system (copyright 1992, Gaussian, Inc.),
 the Gaussian 90(TM) system (copyright 1990, Gaussian, Inc.),
 the Gaussian 88(TM) system (copyright 1988, Gaussian, Inc.),
 the Gaussian 86(TM) system (copyright 1986, Carnegie Mellon
 University), and the Gaussian 82(TM) system (copyright 1983,
 Carnegie Mellon University). Gaussian is a federally registered
 trademark of Gaussian, Inc.
  
 This software contains proprietary and confidential information,
 including trade secrets, belonging to Gaussian, Inc.
  
 This software is provided under written license and may be
 used, copied, transmitted, or stored only in accord with that
 written license.
  
 The following legend is applicable only to US Government
 contracts under FAR:
  
                    RESTRICTED RIGHTS LEGEND
  
 Use, reproduction and disclosure by the US Government is
 subject to restrictions as set forth in subparagraphs (a)
 and (c) of the Commercial Computer Software - Restricted
 Rights clause in FAR 52.227-19.
  
 Gaussian, Inc.
 340 Quinnipiac St., Bldg. 40, Wallingford CT 06492
  
  
 ---------------------------------------------------------------
 Warning -- This program may not be used in any manner that
 competes with the business of Gaussian, Inc. or will provide
 assistance to any competitor of Gaussian, Inc.  The licensee
 of this program is prohibited from giving any competitor of
 Gaussian, Inc. access to this program.  By using this program,
 the user acknowledges that Gaussian, Inc. is engaged in the
 business of creating and licensing software in the field of
 computational chemistry and represents and warrants to the
 licensee that it is not a competitor of Gaussian, Inc. and that
 it will not use this program in any manner prohibited above.
 ---------------------------------------------------------------
  

 Cite this work as:
 Gaussian 16, Revision C.01,
 M. J. Frisch, G. W. Trucks, H. B. Schlegel, G. E. Scuseria, 
 M. A. Robb, J. R. Cheeseman, G. Scalmani, V. Barone, 
 G. A. Petersson, H. Nakatsuji, X. Li, M. Caricato, A. V. Marenich, 
 J. Bloino, B. G. Janesko, R. Gomperts, B. Mennucci, H. P. Hratchian, 
 J. V. Ortiz, A. F. Izmaylov, J. L. Sonnenberg, D. Williams-Young, 
 F. Ding, F. Lipparini, F. Egidi, J. Goings, B. Peng, A. Petrone, 
 T. Henderson, D. Ranasinghe, V. G. Zakrzewski, J. Gao, N. Rega, 
 G. Zheng, W. Liang, M. Hada, M. Ehara, K. Toyota, R. Fukuda, 
 J. Hasegawa, M. Ishida, T. Nakajima, Y. Honda, O. Kitao, H. Nakai, 
 T. Vreven, K. Throssell, J. A. Montgomery, Jr., J. E. Peralta, 
 F. Ogliaro, M. J. Bearpark, J. J. Heyd, E. N. Brothers, K. N. Kudin, 
 V. N. Staroverov, T. A. Keith, R. Kobayashi, J. Normand, 
 K. Raghavachari, A. P. Rendell, J. C. Burant, S. S. Iyengar, 
 J. Tomasi, M. Cossi, J. M. Millam, M. Klene, C. Adamo, R. Cammi, 
 J. W. Ochterski, R. L. Martin, K. Morokuma, O. Farkas, 
 J. B. Foresman, and D. J. Fox, Gaussian, Inc., Wallingford CT, 2019.
 
 ******************************************
 Gaussian 16:  ES64L-G16RevC.01  3-Jul-2019
                 3-Jan-2023 
 ******************************************
 %chk=0004_q000_m01_k00_force_uwb97xd_def2svpd.chk
 %nprocshared=2
 Will use up to    2 processors via shared memory.
 %mem=4GB
 ----------------------------------------------------------------------
 #p uwb97xd/gen stable=opt scf=(maxcycle=900,verytightlineq,xqc) integr
 al=grid=ultrafine symmetry=None density=current iop(99/18=-1) output=w
 fn
 ----------------------------------------------------------------------
 1/38=1,172=1/1;
 2/12=2,15=3,17=6,18=5,40=1/2;
 3/5=7,11=2,25=1,30=1,74=-58,75=-5,116=2/1,2,3;
 4//1;
 5/5=2,7=900,8=3,13=1,17=3,38=5/2,8;
 6/7=2,8=2,9=2,10=2,22=-1,28=1/1;
 8/6=1,10=90,11=11/1;
 9/8=-3,42=1,46=1/14;
 5/5=2,7=900,8=3,17=43,38=5/8(-2);
 6/7=2,8=2,9=2,10=2,22=-1,28=1/1;
 99/5=1,6=100,9=1,18=-1/99;
 Leave Link    1 at Tue Jan  3 09:06:51 2023, MaxMem=   536870912 cpu:               0.1 elap:               0.1
 (Enter /opt/software/gaussian/g16.c01/l101.exe)
 ----------------------------------------------------------------------
 0004_q000_m01_k00_opt_uwb97xd_def2svpd/0004_q000_m01_k00_force_uwb97xd
 _def2svpd stable-force
 ----------------------------------------------------------------------
 Symbolic Z-matrix:
 Charge =  0 Multiplicity = 1
 C                     0.88829   0.14223   0.10893 
 S                     2.50672   0.10417   0.04489 
 N                     3.30324   1.2299    0.77076 
 H                     0.37527  -0.66533  -0.41323 
 H                     0.32428   0.91486   0.63386 
 H                     2.71384   1.92012   1.24185 
 
 ITRead=  0  0  0  0  0  0
 MicOpt= -1 -1 -1 -1 -1 -1
 NAtoms=      6 NQM=        6 NQMF=       0 NMMI=      0 NMMIF=      0
                NMic=       0 NMicF=      0.
                    Isotopes and Nuclear Properties:
 (Nuclear quadrupole moments (NQMom) in fm**2, nuclear magnetic moments (NMagM)
  in nuclear magnetons)

  Atom         1           2           3           4           5           6
 IAtWgt=          12          32          14           1           1           1
 AtmWgt=  12.0000000  31.9720718  14.0030740   1.0078250   1.0078250   1.0078250
 NucSpn=           0           0           2           1           1           1
 AtZEff=  -0.0000000  -0.0000000  -0.0000000  -0.0000000  -0.0000000  -0.0000000
 NQMom=    0.0000000   0.0000000   2.0440000   0.0000000   0.0000000   0.0000000
 NMagM=    0.0000000   0.0000000   0.4037610   2.7928460   2.7928460   2.7928460
 AtZNuc=   6.0000000  16.0000000   7.0000000   1.0000000   1.0000000   1.0000000
 Leave Link  101 at Tue Jan  3 09:06:51 2023, MaxMem=   536870912 cpu:               0.5 elap:               0.2
 (Enter /opt/software/gaussian/g16.c01/l202.exe)
                          Input orientation:                          
 ---------------------------------------------------------------------
 Center     Atomic      Atomic             Coordinates (Angstroms)
 Number     Number       Type             X           Y           Z
 ---------------------------------------------------------------------
      1          6           0        0.888294    0.142235    0.108926
      2         16           0        2.506724    0.104170    0.044890
      3          7           0        3.303240    1.229897    0.770762
      4          1           0        0.375274   -0.665334   -0.413229
      5          1           0        0.324276    0.914865    0.633860
      6          1           0        2.713842    1.920118    1.241851
 ---------------------------------------------------------------------
                    Distance matrix (angstroms):
                    1          2          3          4          5
     1  C    0.000000
     2  S    1.620144   0.000000
     3  N    2.730019   1.558394   0.000000
     4  H    1.089956   2.311945   3.683303   0.000000
     5  H    1.091159   2.401498   2.998702   1.896319   0.000000
     6  H    2.788730   2.184785   1.022604   3.859113   2.662745
                    6
     6  H    0.000000
 Symmetry turned off by external request.
 Stoichiometry    CH3NS
 Rotational constants (GHZ):          36.3131241           8.8290023           7.1022055
 Leave Link  202 at Tue Jan  3 09:06:51 2023, MaxMem=   536870912 cpu:               0.0 elap:               0.0
 (Enter /opt/software/gaussian/g16.c01/l301.exe)
 General basis read from cards:  (5D, 7F)
 Centers:       4      5      6
 S 3 1.00
     Exponent=  1.3010701000D+01 Coefficients=  1.9682158000D-02
     Exponent=  1.9622572000D+00 Coefficients=  1.3796524000D-01
     Exponent=  4.4453796000D-01 Coefficients=  4.7831935000D-01
 S 1 1.00
     Exponent=  1.2194962000D-01 Coefficients=  1.0000000000D+00
 P 1 1.00
     Exponent=  8.0000000000D-01 Coefficients=  1.0000000000D+00
 P 1 1.00
     Exponent=  1.1704099050D-01 Coefficients=  1.0000000000D+00
 ****
 Centers:       1
 S 5 1.00
     Exponent=  1.2384016938D+03 Coefficients=  5.4568832082D-03
     Exponent=  1.8629004992D+02 Coefficients=  4.0638409211D-02
     Exponent=  4.2251176346D+01 Coefficients=  1.8025593888D-01
     Exponent=  1.1676557932D+01 Coefficients=  4.6315121755D-01
     Exponent=  3.5930506482D+00 Coefficients=  4.4087173314D-01
 S 1 1.00
     Exponent=  4.0245147363D-01 Coefficients=  1.0000000000D+00
 S 1 1.00
     Exponent=  1.3090182668D-01 Coefficients=  1.0000000000D+00
 S 1 1.00
     Exponent=  6.7053540256D-02 Coefficients=  1.0000000000D+00
 P 3 1.00
     Exponent=  9.4680970621D+00 Coefficients=  3.8387871728D-02
     Exponent=  2.0103545142D+00 Coefficients=  2.1117025112D-01
     Exponent=  5.4771004707D-01 Coefficients=  5.1328172114D-01
 P 1 1.00
     Exponent=  1.5268613795D-01 Coefficients=  1.0000000000D+00
 D 1 1.00
     Exponent=  8.0000000000D-01 Coefficients=  1.0000000000D+00
 D 1 1.00
     Exponent=  1.1713185140D-01 Coefficients=  1.0000000000D+00
 ****
 Centers:       3
 S 5 1.00
     Exponent=  1.7128415853D+03 Coefficients= -5.3934125305D-03
     Exponent=  2.5764812677D+02 Coefficients= -4.0221581118D-02
     Exponent=  5.8458245853D+01 Coefficients= -1.7931144990D-01
     Exponent=  1.6198367905D+01 Coefficients= -4.6376317823D-01
     Exponent=  5.0052600809D+00 Coefficients= -4.4171422662D-01
 S 1 1.00
     Exponent=  5.8731856571D-01 Coefficients=  1.0000000000D+00
 S 1 1.00
     Exponent=  1.8764592253D-01 Coefficients=  1.0000000000D+00
 S 1 1.00
     Exponent=  9.6171241529D-02 Coefficients=  1.0000000000D+00
 P 3 1.00
     Exponent=  1.3571470233D+01 Coefficients= -4.0072398852D-02
     Exponent=  2.9257372874D+00 Coefficients= -2.1807045028D-01
     Exponent=  7.9927750754D-01 Coefficients= -5.1294466049D-01
 P 1 1.00
     Exponent=  2.1954348034D-01 Coefficients=  1.0000000000D+00
 D 1 1.00
     Exponent=  1.0000000000D+00 Coefficients=  1.0000000000D+00
 D 1 1.00
     Exponent=  1.6697708112D-01 Coefficients=  1.0000000000D+00
 ****
 Centers:       2
 S 5 1.00
     Exponent=  9.1849303010D+03 Coefficients= -2.2294387756D-03
     Exponent=  1.3815105503D+03 Coefficients= -1.6683029937D-02
     Exponent=  3.1387147580D+02 Coefficients= -7.5262436116D-02
     Exponent=  8.8053870623D+01 Coefficients= -1.9376827038D-01
     Exponent=  2.7039914905D+01 Coefficients= -1.7718020803D-01
 S 3 1.00
     Exponent=  4.5648731303D+01 Coefficients= -1.0736062573D-01
     Exponent=  4.9664522326D+00 Coefficients=  6.5066293018D-01
     Exponent=  2.0116242047D+00 Coefficients=  5.9712155354D-01
 S 1 1.00
     Exponent=  3.5661077013D-01 Coefficients=  1.0000000000D+00
 S 1 1.00
     Exponent=  1.3507221477D-01 Coefficients=  1.0000000000D+00
 S 1 1.00
     Exponent=  4.4999823506D-02 Coefficients=  1.0000000000D+00
 P 5 1.00
     Exponent=  2.6198233439D+02 Coefficients= -9.2729929822D-03
     Exponent=  6.1306894736D+01 Coefficients= -6.6547669241D-02
     Exponent=  1.9103729887D+01 Coefficients= -2.4828595903D-01
     Exponent=  6.6567720378D+00 Coefficients= -4.8703847402D-01
     Exponent=  2.3959635161D+00 Coefficients= -3.9337850312D-01
 P 1 1.00
     Exponent=  6.1776161679D-01 Coefficients=  1.0000000000D+00
 P 1 1.00
     Exponent=  1.6993376871D-01 Coefficients=  1.0000000000D+00
 P 1 1.00
     Exponent=  4.1706793676D-02 Coefficients=  1.0000000000D+00
 D 1 1.00
     Exponent=  5.5000000000D-01 Coefficients=  1.0000000000D+00
 D 1 1.00
     Exponent=  1.0172853717D-01 Coefficients=  1.0000000000D+00
 ****
 Ernie: Thresh=  0.10000D-02 Tol=  0.10000D-05 Strict=F.
    91 basis functions,   141 primitive gaussians,    97 cartesian basis functions
    16 alpha electrons       16 beta electrons
       nuclear repulsion energy       102.0311797422 Hartrees.
 IExCor= 4639 DFT=T Ex+Corr=wB97XD ExCW=0 ScaHFX=  1.000000
 ScaDFX=  1.000000  1.000000  1.000000  1.000000 ScalE2=  1.000000  1.000000
 IRadAn=      5 IRanWt=     -1 IRanGd=            0 ICorTp=0 IEmpDi=121
 HFx  wShort=  0.000000 wLong=  0.200000 cFull=  0.222036 cShort=  0.000000 cLong=  0.777964
 DFx  wShort=  0.000000 wLong=  0.200000 cFull=  0.000000 cShort=  0.000000 cLong=  1.000000
 NAtoms=    6 NActive=    6 NUniq=    6 SFac= 1.00D+00 NAtFMM=   60 NAOKFM=F Big=F
 Integral buffers will be    131072 words long.
 Raffenetti 2 integral format.
 Two-electron integral symmetry is turned off.
 R6Disp:  Grimme-D2 Dispersion energy=       -0.0009326667 Hartrees.
 Nuclear repulsion after empirical dispersion term =      102.0302470755 Hartrees.
 Leave Link  301 at Tue Jan  3 09:06:51 2023, MaxMem=   536870912 cpu:               0.2 elap:               0.1
 (Enter /opt/software/gaussian/g16.c01/l302.exe)
 NPDir=0 NMtPBC=     1 NCelOv=     1 NCel=       1 NClECP=     1 NCelD=      1
         NCelK=      1 NCelE2=     1 NClLst=     1 CellRange=     0.0.
 One-electron integrals computed using PRISM.
 NBasis=    91 RedAO= T EigKep=  4.68D-04  NBF=    91
 NBsUse=    91 1.00D-06 EigRej= -1.00D+00 NBFU=    91
 Precomputing XC quadrature grid using
 IXCGrd= 4 IRadAn=           5 IRanWt=          -1 IRanGd=           0 AccXCQ= 0.00D+00.
 Generated NRdTot=       0 NPtTot=           0 NUsed=           0 NTot=          32
 NSgBfM=    97    97    97    97    97 MxSgAt=     6 MxSgA2=     6.
 Leave Link  302 at Tue Jan  3 09:06:52 2023, MaxMem=   536870912 cpu:               0.4 elap:               0.2
 (Enter /opt/software/gaussian/g16.c01/l303.exe)
 DipDrv:  MaxL=1.
 Leave Link  303 at Tue Jan  3 09:06:52 2023, MaxMem=   536870912 cpu:               0.1 elap:               0.0
 (Enter /opt/software/gaussian/g16.c01/l401.exe)
 ExpMin= 4.17D-02 ExpMax= 9.18D+03 ExpMxC= 1.38D+03 IAcc=3 IRadAn=         5 AccDes= 0.00D+00
 Harris functional with IExCor= 4639 and IRadAn=       5 diagonalized for initial guess.
 HarFok:  IExCor= 4639 AccDes= 0.00D+00 IRadAn=         5 IDoV= 1 UseB2=F ITyADJ=14
 ICtDFT=  3500011 ScaDFX=  1.000000  1.000000  1.000000  1.000000
 FoFCou: FMM=F IPFlag=           0 FMFlag=      100000 FMFlg1=           0
         NFxFlg=           0 DoJE=T BraDBF=F KetDBF=T FulRan=T
         wScrn=  0.000000 ICntrl=       500 IOpCl=  0 I1Cent=   200000004 NGrid=           0
         NMat0=    1 NMatS0=      1 NMatT0=    0 NMatD0=    1 NMtDS0=    0 NMtDT0=    0
 Symmetry not used in FoFCou.
 Harris En= -481.504217001117    
 JPrj=0 DoOrth=F DoCkMO=F.
 Initial guess <Sx>= 0.0000 <Sy>= 0.0000 <Sz>= 0.0000 <S**2>= 0.0000 S= 0.0000
 Leave Link  401 at Tue Jan  3 09:06:52 2023, MaxMem=   536870912 cpu:               1.1 elap:               0.6
 (Enter /opt/software/gaussian/g16.c01/l502.exe)
 Keep R1 and R2 ints in memory in canonical form, NReq=37288447.
 FoFCou: FMM=F IPFlag=           0 FMFlag=           0 FMFlg1=           0
         NFxFlg=           0 DoJE=F BraDBF=F KetDBF=F FulRan=T
         wScrn=  0.000000 ICntrl=       600 IOpCl=  0 I1Cent=           0 NGrid=           0
         NMat0=    1 NMatS0=   4186 NMatT0=    0 NMatD0=    1 NMtDS0=    0 NMtDT0=    0
 Symmetry not used in FoFCou.
 Two-electron integral symmetry not used.
 UHF open shell SCF:
 Using DIIS extrapolation, IDIIS=  1040.
 NGot=   536870912 LenX=   501796985 LenY=   501787135
 Requested convergence on RMS density matrix=1.00D-08 within 128 cycles.
 Requested convergence on MAX density matrix=1.00D-06.
 Requested convergence on             energy=1.00D-06.
 No special actions if energy rises.

 Cycle   1  Pass 1  IDiag  1:
 E= -492.372211767893    
 DIIS: error= 4.13D-02 at cycle   1 NSaved=   1.
 NSaved= 1 IEnMin= 1 EnMin= -492.372211767893     IErMin= 1 ErrMin= 4.13D-02
 ErrMax= 4.13D-02  0.00D+00 EMaxC= 1.00D-01 BMatC= 1.11D+00 BMatP= 1.11D+00
 IDIUse=3 WtCom= 5.87D-01 WtEn= 4.13D-01
 Coeff-Com:  0.100D+01
 Coeff-En:   0.100D+01
 Coeff:      0.100D+01
 Gap=     0.244 Goal=   None    Shift=    0.000
 Gap=     0.244 Goal=   None    Shift=    0.000
 GapD=    0.244 DampG=1.000 DampE=0.500 DampFc=0.5000 IDamp=-1.
 Damping current iteration by 5.00D-01
 RMSDP=1.21D-02 MaxDP=3.82D-01              OVMax= 2.55D-01

 Cycle   2  Pass 1  IDiag  1:
 E= -492.456490394731     Delta-E=       -0.084278626838 Rises=F Damp=T
 DIIS: error= 1.31D-02 at cycle   2 NSaved=   2.
 NSaved= 2 IEnMin= 2 EnMin= -492.456490394731     IErMin= 2 ErrMin= 1.31D-02
 ErrMax= 1.31D-02  0.00D+00 EMaxC= 1.00D-01 BMatC= 1.15D-01 BMatP= 1.11D+00
 IDIUse=3 WtCom= 8.69D-01 WtEn= 1.31D-01
 Coeff-Com: -0.218D+00 0.122D+01
 Coeff-En:   0.000D+00 0.100D+01
 Coeff:     -0.189D+00 0.119D+01
 Gap=     0.299 Goal=   None    Shift=    0.000
 Gap=     0.299 Goal=   None    Shift=    0.000
 RMSDP=3.41D-03 MaxDP=6.44D-02 DE=-8.43D-02 OVMax= 1.52D-01

 Cycle   3  Pass 1  IDiag  1:
 E= -492.531564596418     Delta-E=       -0.075074201687 Rises=F Damp=F
 DIIS: error= 7.91D-03 at cycle   3 NSaved=   3.
 NSaved= 3 IEnMin= 3 EnMin= -492.531564596418     IErMin= 3 ErrMin= 7.91D-03
 ErrMax= 7.91D-03  0.00D+00 EMaxC= 1.00D-01 BMatC= 4.35D-02 BMatP= 1.15D-01
 IDIUse=3 WtCom= 9.21D-01 WtEn= 7.91D-02
 Coeff-Com: -0.169D+00 0.522D+00 0.647D+00
 Coeff-En:   0.000D+00 0.000D+00 0.100D+01
 Coeff:     -0.156D+00 0.481D+00 0.675D+00
 Gap=     0.312 Goal=   None    Shift=    0.000
 Gap=     0.312 Goal=   None    Shift=    0.000
 RMSDP=1.67D-03 MaxDP=3.59D-02 DE=-7.51D-02 OVMax= 7.51D-02

 Cycle   4  Pass 1  IDiag  1:
 E= -492.540871689763     Delta-E=       -0.009307093345 Rises=F Damp=F
 DIIS: error= 6.01D-03 at cycle   4 NSaved=   4.
 NSaved= 4 IEnMin= 4 EnMin= -492.540871689763     IErMin= 4 ErrMin= 6.01D-03
 ErrMax= 6.01D-03  0.00D+00 EMaxC= 1.00D-01 BMatC= 1.15D-02 BMatP= 4.35D-02
 IDIUse=3 WtCom= 9.40D-01 WtEn= 6.01D-02
 Coeff-Com: -0.791D-01 0.203D+00 0.403D+00 0.473D+00
 Coeff-En:   0.000D+00 0.000D+00 0.161D+00 0.839D+00
 Coeff:     -0.743D-01 0.191D+00 0.388D+00 0.495D+00
 Gap=     0.308 Goal=   None    Shift=    0.000
 Gap=     0.308 Goal=   None    Shift=    0.000
 RMSDP=6.36D-04 MaxDP=1.22D-02 DE=-9.31D-03 OVMax= 2.65D-02

 Cycle   5  Pass 1  IDiag  1:
 E= -492.543575870121     Delta-E=       -0.002704180357 Rises=F Damp=F
 DIIS: error= 1.29D-03 at cycle   5 NSaved=   5.
 NSaved= 5 IEnMin= 5 EnMin= -492.543575870121     IErMin= 5 ErrMin= 1.29D-03
 ErrMax= 1.29D-03  0.00D+00 EMaxC= 1.00D-01 BMatC= 5.27D-04 BMatP= 1.15D-02
 IDIUse=3 WtCom= 9.87D-01 WtEn= 1.29D-02
 Coeff-Com: -0.126D-01 0.239D-01 0.105D+00 0.229D+00 0.655D+00
 Coeff-En:   0.000D+00 0.000D+00 0.000D+00 0.000D+00 0.100D+01
 Coeff:     -0.125D-01 0.235D-01 0.104D+00 0.226D+00 0.659D+00
 Gap=     0.310 Goal=   None    Shift=    0.000
 Gap=     0.310 Goal=   None    Shift=    0.000
 RMSDP=1.70D-04 MaxDP=3.91D-03 DE=-2.70D-03 OVMax= 4.54D-03

 Cycle   6  Pass 1  IDiag  1:
 E= -492.543701727279     Delta-E=       -0.000125857158 Rises=F Damp=F
 DIIS: error= 2.12D-04 at cycle   6 NSaved=   6.
 NSaved= 6 IEnMin= 6 EnMin= -492.543701727279     IErMin= 6 ErrMin= 2.12D-04
 ErrMax= 2.12D-04  0.00D+00 EMaxC= 1.00D-01 BMatC= 1.77D-05 BMatP= 5.27D-04
 IDIUse=3 WtCom= 9.98D-01 WtEn= 2.12D-03
 Coeff-Com:  0.897D-02-0.224D-01-0.274D-01-0.244D-01 0.101D+00 0.964D+00
 Coeff-En:   0.000D+00 0.000D+00 0.000D+00 0.000D+00 0.000D+00 0.100D+01
 Coeff:      0.895D-02-0.224D-01-0.273D-01-0.243D-01 0.101D+00 0.964D+00
 Gap=     0.310 Goal=   None    Shift=    0.000
 Gap=     0.310 Goal=   None    Shift=    0.000
 RMSDP=5.79D-05 MaxDP=9.25D-04 DE=-1.26D-04 OVMax= 1.01D-03

 Cycle   7  Pass 1  IDiag  1:
 E= -492.543708937514     Delta-E=       -0.000007210235 Rises=F Damp=F
 DIIS: error= 2.97D-05 at cycle   7 NSaved=   7.
 NSaved= 7 IEnMin= 7 EnMin= -492.543708937514     IErMin= 7 ErrMin= 2.97D-05
 ErrMax= 2.97D-05  0.00D+00 EMaxC= 1.00D-01 BMatC= 7.27D-07 BMatP= 1.77D-05
 IDIUse=1 WtCom= 1.00D+00 WtEn= 0.00D+00
 Coeff-Com:  0.125D-02-0.254D-02-0.502D-02-0.148D-01-0.281D-01 0.191D-01
 Coeff-Com:  0.103D+01
 Coeff:      0.125D-02-0.254D-02-0.502D-02-0.148D-01-0.281D-01 0.191D-01
 Coeff:      0.103D+01
 Gap=     0.310 Goal=   None    Shift=    0.000
 Gap=     0.310 Goal=   None    Shift=    0.000
 RMSDP=1.24D-05 MaxDP=2.06D-04 DE=-7.21D-06 OVMax= 2.59D-04

 Cycle   8  Pass 1  IDiag  1:
 E= -492.543709283054     Delta-E=       -0.000000345540 Rises=F Damp=F
 DIIS: error= 7.24D-06 at cycle   8 NSaved=   8.
 NSaved= 8 IEnMin= 8 EnMin= -492.543709283054     IErMin= 8 ErrMin= 7.24D-06
 ErrMax= 7.24D-06  0.00D+00 EMaxC= 1.00D-01 BMatC= 2.10D-08 BMatP= 7.27D-07
 IDIUse=1 WtCom= 1.00D+00 WtEn= 0.00D+00
 Coeff-Com: -0.301D-03 0.733D-03 0.137D-02 0.109D-02-0.248D-02-0.257D-01
 Coeff-Com: -0.521D-01 0.108D+01
 Coeff:     -0.301D-03 0.733D-03 0.137D-02 0.109D-02-0.248D-02-0.257D-01
 Coeff:     -0.521D-01 0.108D+01
 Gap=     0.310 Goal=   None    Shift=    0.000
 Gap=     0.310 Goal=   None    Shift=    0.000
 RMSDP=2.58D-06 MaxDP=3.16D-05 DE=-3.46D-07 OVMax= 7.29D-05

 Cycle   9  Pass 1  IDiag  1:
 E= -492.543709298809     Delta-E=       -0.000000015755 Rises=F Damp=F
 DIIS: error= 2.04D-06 at cycle   9 NSaved=   9.
 NSaved= 9 IEnMin= 9 EnMin= -492.543709298809     IErMin= 9 ErrMin= 2.04D-06
 ErrMax= 2.04D-06  0.00D+00 EMaxC= 1.00D-01 BMatC= 3.10D-09 BMatP= 2.10D-08
 IDIUse=1 WtCom= 1.00D+00 WtEn= 0.00D+00
 Coeff-Com: -0.316D-04 0.495D-04 0.294D-03 0.676D-03 0.191D-02 0.144D-02
 Coeff-Com: -0.698D-01-0.198D-01 0.109D+01
 Coeff:     -0.316D-04 0.495D-04 0.294D-03 0.676D-03 0.191D-02 0.144D-02
 Coeff:     -0.698D-01-0.198D-01 0.109D+01
 Gap=     0.310 Goal=   None    Shift=    0.000
 Gap=     0.310 Goal=   None    Shift=    0.000
 RMSDP=9.93D-07 MaxDP=1.37D-05 DE=-1.58D-08 OVMax= 2.78D-05

 Cycle  10  Pass 1  IDiag  1:
 E= -492.543709300846     Delta-E=       -0.000000002037 Rises=F Damp=F
 DIIS: error= 7.03D-07 at cycle  10 NSaved=  10.
 NSaved=10 IEnMin=10 EnMin= -492.543709300846     IErMin=10 ErrMin= 7.03D-07
 ErrMax= 7.03D-07  0.00D+00 EMaxC= 1.00D-01 BMatC= 3.59D-10 BMatP= 3.10D-09
 IDIUse=1 WtCom= 1.00D+00 WtEn= 0.00D+00
 Coeff-Com:  0.286D-04-0.655D-04-0.886D-04-0.180D-03 0.240D-03 0.148D-02
 Coeff-Com:  0.472D-02-0.803D-01-0.256D-01 0.110D+01
 Coeff:      0.286D-04-0.655D-04-0.886D-04-0.180D-03 0.240D-03 0.148D-02
 Coeff:      0.472D-02-0.803D-01-0.256D-01 0.110D+01
 Gap=     0.310 Goal=   None    Shift=    0.000
 Gap=     0.310 Goal=   None    Shift=    0.000
 RMSDP=3.54D-07 MaxDP=4.70D-06 DE=-2.04D-09 OVMax= 1.12D-05

 Cycle  11  Pass 1  IDiag  1:
 E= -492.543709301087     Delta-E=       -0.000000000241 Rises=F Damp=F
 DIIS: error= 2.29D-07 at cycle  11 NSaved=  11.
 NSaved=11 IEnMin=11 EnMin= -492.543709301087     IErMin=11 ErrMin= 2.29D-07
 ErrMax= 2.29D-07  0.00D+00 EMaxC= 1.00D-01 BMatC= 3.19D-11 BMatP= 3.59D-10
 IDIUse=1 WtCom= 1.00D+00 WtEn= 0.00D+00
 Coeff-Com:  0.458D-06-0.644D-06-0.132D-04-0.551D-04-0.594D-04-0.195D-03
 Coeff-Com:  0.529D-02 0.147D-01-0.106D+00-0.176D+00 0.126D+01
 Coeff:      0.458D-06-0.644D-06-0.132D-04-0.551D-04-0.594D-04-0.195D-03
 Coeff:      0.529D-02 0.147D-01-0.106D+00-0.176D+00 0.126D+01
 Gap=     0.310 Goal=   None    Shift=    0.000
 Gap=     0.310 Goal=   None    Shift=    0.000
 RMSDP=1.18D-07 MaxDP=1.43D-06 DE=-2.41D-10 OVMax= 4.20D-06

 Cycle  12  Pass 1  IDiag  1:
 E= -492.543709301111     Delta-E=       -0.000000000024 Rises=F Damp=F
 DIIS: error= 3.11D-08 at cycle  12 NSaved=  12.
 NSaved=12 IEnMin=12 EnMin= -492.543709301111     IErMin=12 ErrMin= 3.11D-08
 ErrMax= 3.11D-08  0.00D+00 EMaxC= 1.00D-01 BMatC= 6.67D-13 BMatP= 3.19D-11
 IDIUse=1 WtCom= 1.00D+00 WtEn= 0.00D+00
 Coeff-Com: -0.759D-06 0.180D-05 0.213D-05 0.128D-05-0.320D-05-0.752D-04
 Coeff-Com: -0.228D-04 0.277D-02-0.127D-02-0.311D-01-0.194D-01 0.105D+01
 Coeff:     -0.759D-06 0.180D-05 0.213D-05 0.128D-05-0.320D-05-0.752D-04
 Coeff:     -0.228D-04 0.277D-02-0.127D-02-0.311D-01-0.194D-01 0.105D+01
 Gap=     0.310 Goal=   None    Shift=    0.000
 Gap=     0.310 Goal=   None    Shift=    0.000
 RMSDP=1.50D-08 MaxDP=1.92D-07 DE=-2.43D-11 OVMax= 4.90D-07

 Cycle  13  Pass 1  IDiag  1:
 E= -492.543709301111     Delta-E=        0.000000000000 Rises=F Damp=F
 DIIS: error= 9.82D-09 at cycle  13 NSaved=  13.
 NSaved=13 IEnMin=12 EnMin= -492.543709301111     IErMin=13 ErrMin= 9.82D-09
 ErrMax= 9.82D-09  0.00D+00 EMaxC= 1.00D-01 BMatC= 5.66D-14 BMatP= 6.67D-13
 IDIUse=1 WtCom= 1.00D+00 WtEn= 0.00D+00
 Coeff-Com: -0.474D-07 0.599D-07 0.121D-05 0.389D-05 0.772D-05 0.965D-05
 Coeff-Com: -0.448D-03-0.101D-02 0.882D-02 0.164D-01-0.120D+00 0.108D+00
 Coeff-Com:  0.988D+00
 Coeff:     -0.474D-07 0.599D-07 0.121D-05 0.389D-05 0.772D-05 0.965D-05
 Coeff:     -0.448D-03-0.101D-02 0.882D-02 0.164D-01-0.120D+00 0.108D+00
 Coeff:      0.988D+00
 Gap=     0.310 Goal=   None    Shift=    0.000
 Gap=     0.310 Goal=   None    Shift=    0.000
 RMSDP=3.94D-09 MaxDP=5.10D-08 DE= 2.27D-13 OVMax= 1.19D-07

 SCF Done:  E(UwB97XD) =  -492.543709301     A.U. after   13 cycles
            NFock= 13  Conv=0.39D-08     -V/T= 2.0042
 <Sx>= 0.0000 <Sy>= 0.0000 <Sz>= 0.0000 <S**2>=-0.0000 S=-0.0000
 <L.S>=  0.00000000000    
 KE= 4.904780256921D+02 PE=-1.368984576022D+03 EE= 2.839325939532D+02
 Annihilation of the first spin contaminant:
 S**2 before annihilation    -0.0000,   after     0.0000
 Leave Link  502 at Tue Jan  3 09:07:02 2023, MaxMem=   536870912 cpu:              20.0 elap:              10.1
 (Enter /opt/software/gaussian/g16.c01/l508.exe)
 QCSCF skips out because SCF is already converged.
 Leave Link  508 at Tue Jan  3 09:07:02 2023, MaxMem=   536870912 cpu:               0.0 elap:               0.0
 (Enter /opt/software/gaussian/g16.c01/l601.exe)
 Copying SCF densities to generalized density rwf, IOpCl= 1 IROHF=0.

 **********************************************************************

            Population analysis using the SCF Density.

 **********************************************************************

 Alpha  occ. eigenvalues --  -89.12097 -14.44338 -10.33767  -8.15983  -6.11318
 Alpha  occ. eigenvalues --   -6.11121  -6.10747  -1.03174  -0.86333  -0.70078
 Alpha  occ. eigenvalues --   -0.58896  -0.56179  -0.47967  -0.44393  -0.37973
 Alpha  occ. eigenvalues --   -0.31693
 Alpha virt. eigenvalues --   -0.00663   0.07848   0.08633   0.09862   0.11802
 Alpha virt. eigenvalues --    0.13054   0.14750   0.15522   0.20592   0.22669
 Alpha virt. eigenvalues --    0.23895   0.24171   0.28146   0.28391   0.29766
 Alpha virt. eigenvalues --    0.29794   0.31963   0.32927   0.36470   0.37050
 Alpha virt. eigenvalues --    0.37980   0.40025   0.41102   0.43401   0.44858
 Alpha virt. eigenvalues --    0.45042   0.47348   0.48653   0.50300   0.52329
 Alpha virt. eigenvalues --    0.54319   0.58927   0.60147   0.63153   0.65504
 Alpha virt. eigenvalues --    0.72676   0.81890   0.84245   0.85697   0.89989
 Alpha virt. eigenvalues --    0.94709   0.96496   0.97517   0.99882   1.05034
 Alpha virt. eigenvalues --    1.05064   1.10436   1.14162   1.19979   1.21744
 Alpha virt. eigenvalues --    1.23627   1.27164   1.34021   1.40890   1.49495
 Alpha virt. eigenvalues --    1.51638   1.58677   1.66112   1.77879   1.81657
 Alpha virt. eigenvalues --    1.88299   2.00198   2.15059   2.15226   2.17757
 Alpha virt. eigenvalues --    2.24114   2.33919   2.47821   2.54863   2.68476
 Alpha virt. eigenvalues --    2.69072   2.92767   3.05616   3.05831   3.45602
  Beta  occ. eigenvalues --  -89.12097 -14.44338 -10.33767  -8.15983  -6.11318
  Beta  occ. eigenvalues --   -6.11121  -6.10747  -1.03174  -0.86333  -0.70078
  Beta  occ. eigenvalues --   -0.58896  -0.56179  -0.47967  -0.44393  -0.37973
  Beta  occ. eigenvalues --   -0.31693
  Beta virt. eigenvalues --   -0.00663   0.07848   0.08633   0.09862   0.11802
  Beta virt. eigenvalues --    0.13054   0.14750   0.15522   0.20592   0.22669
  Beta virt. eigenvalues --    0.23895   0.24171   0.28146   0.28391   0.29766
  Beta virt. eigenvalues --    0.29794   0.31963   0.32927   0.36470   0.37050
  Beta virt. eigenvalues --    0.37980   0.40025   0.41102   0.43401   0.44858
  Beta virt. eigenvalues --    0.45042   0.47348   0.48653   0.50300   0.52329
  Beta virt. eigenvalues --    0.54319   0.58927   0.60147   0.63153   0.65504
  Beta virt. eigenvalues --    0.72676   0.81890   0.84245   0.85697   0.89989
  Beta virt. eigenvalues --    0.94709   0.96496   0.97517   0.99882   1.05034
  Beta virt. eigenvalues --    1.05064   1.10436   1.14162   1.19979   1.21744
  Beta virt. eigenvalues --    1.23627   1.27164   1.34021   1.40890   1.49495
  Beta virt. eigenvalues --    1.51638   1.58677   1.66112   1.77879   1.81657
  Beta virt. eigenvalues --    1.88299   2.00198   2.15059   2.15226   2.17757
  Beta virt. eigenvalues --    2.24114   2.33919   2.47821   2.54863   2.68476
  Beta virt. eigenvalues --    2.69072   2.92767   3.05616   3.05831   3.45602
          Condensed to atoms (all electrons):
               1          2          3          4          5          6
     1  C    4.676707   0.251501   0.006799   0.360539   0.435873  -0.047984
     2  S    0.251501  15.603514   0.037458  -0.026885  -0.055404   0.100126
     3  N    0.006799   0.037458   7.239851   0.007363  -0.016360  -0.009328
     4  H    0.360539  -0.026885   0.007363   0.868920  -0.114819   0.000081
     5  H    0.435873  -0.055404  -0.016360  -0.114819   0.800870   0.007303
     6  H   -0.047984   0.100126  -0.009328   0.000081   0.007303   0.937612
          Atomic-Atomic Spin Densities.
               1          2          3          4          5          6
     1  C    0.000000   0.000000   0.000000   0.000000   0.000000   0.000000
     2  S    0.000000   0.000000   0.000000   0.000000   0.000000   0.000000
     3  N    0.000000   0.000000   0.000000   0.000000   0.000000   0.000000
     4  H    0.000000   0.000000   0.000000   0.000000   0.000000   0.000000
     5  H    0.000000   0.000000   0.000000   0.000000   0.000000   0.000000
     6  H    0.000000   0.000000   0.000000   0.000000   0.000000   0.000000
 Mulliken charges and spin densities:
               1          2
     1  C    0.316565   0.000000
     2  S    0.089691   0.000000
     3  N   -0.265784   0.000000
     4  H   -0.095198   0.000000
     5  H   -0.057464   0.000000
     6  H    0.012190   0.000000
 Sum of Mulliken charges =  -0.00000   0.00000
 Mulliken charges and spin densities with hydrogens summed into heavy atoms:
               1          2
     1  C    0.163903   0.000000
     2  S    0.089691   0.000000
     3  N   -0.253594   0.000000
 Electronic spatial extent (au):  <R**2>=            821.8428
 Charge=             -0.0000 electrons
 Dipole moment (field-independent basis, Debye):
    X=             -2.6695    Y=             -0.2339    Z=             -0.0904  Tot=              2.6812
 Quadrupole moment (field-independent basis, Debye-Ang):
   XX=            -39.2559   YY=            -24.4197   ZZ=            -25.8992
   XY=             -3.1097   XZ=             -1.8645   YZ=              1.9101
 Traceless Quadrupole moment (field-independent basis, Debye-Ang):
   XX=             -9.3976   YY=              5.4386   ZZ=              3.9591
   XY=             -3.1097   XZ=             -1.8645   YZ=              1.9101
 Octapole moment (field-independent basis, Debye-Ang**2):
  XXX=           -233.2066  YYY=            -27.6330  ZZZ=            -19.1927  XYY=            -58.7596
  XXY=            -27.7522  XXZ=            -17.0483  XZZ=            -58.8953  YZZ=             -8.4482
  YYZ=             -2.7799  XYZ=              0.8684
 Hexadecapole moment (field-independent basis, Debye-Ang**3):
 XXXX=          -1194.4730 YYYY=            -91.5633 ZZZZ=            -59.7987 XXXY=           -172.7047
 XXXZ=           -106.0630 YYYX=            -86.6847 YYYZ=            -12.5477 ZZZX=            -57.4246
 ZZZY=            -19.3331 XXYY=           -188.5657 XXZZ=           -174.4324 YYZZ=            -21.0006
 XXYZ=            -12.7933 YYXZ=            -11.2025 ZZXY=            -27.1465
 N-N= 1.020302470755D+02 E-N=-1.368984576097D+03  KE= 4.904780256921D+02
                          Isotropic Fermi Contact Couplings
        Atom                 a.u.       MegaHertz       Gauss      10(-4) cm-1
     1  C(13)              0.00000       0.00000       0.00000       0.00000
     2  S(33)              0.00000       0.00000       0.00000       0.00000
     3  N(14)              0.00000       0.00000       0.00000       0.00000
     4  H(1)               0.00000       0.00000       0.00000       0.00000
     5  H(1)               0.00000       0.00000       0.00000       0.00000
     6  H(1)               0.00000       0.00000       0.00000       0.00000
 --------------------------------------------------------
       Center         ----  Spin Dipole Couplings  ----
                      3XX-RR        3YY-RR        3ZZ-RR
 --------------------------------------------------------
     1   Atom        0.000000      0.000000      0.000000
     2   Atom        0.000000      0.000000      0.000000
     3   Atom        0.000000      0.000000      0.000000
     4   Atom        0.000000      0.000000      0.000000
     5   Atom        0.000000      0.000000      0.000000
     6   Atom        0.000000      0.000000      0.000000
 --------------------------------------------------------
                        XY            XZ            YZ
 --------------------------------------------------------
     1   Atom        0.000000      0.000000      0.000000
     2   Atom        0.000000      0.000000      0.000000
     3   Atom        0.000000      0.000000      0.000000
     4   Atom        0.000000      0.000000      0.000000
     5   Atom        0.000000      0.000000      0.000000
     6   Atom        0.000000      0.000000      0.000000
 --------------------------------------------------------


 ---------------------------------------------------------------------------------
              Anisotropic Spin Dipole Couplings in Principal Axis System
 ---------------------------------------------------------------------------------

       Atom             a.u.   MegaHertz   Gauss  10(-4) cm-1        Axes

              Baa     0.0000     0.000     0.000     0.000  1.0000  0.0000  0.0000
     1 C(13)  Bbb     0.0000     0.000     0.000     0.000 -0.0000  1.0000  0.0000
              Bcc     0.0000     0.000     0.000     0.000  0.0000  0.0000  1.0000
 
              Baa     0.0000     0.000     0.000     0.000  1.0000  0.0000  0.0000
     2 S(33)  Bbb     0.0000     0.000     0.000     0.000 -0.0000  1.0000  0.0000
              Bcc     0.0000     0.000     0.000     0.000  0.0000  0.0000  1.0000
 
              Baa     0.0000     0.000     0.000     0.000  1.0000  0.0000  0.0000
     3 N(14)  Bbb     0.0000     0.000     0.000     0.000 -0.0000  1.0000  0.0000
              Bcc     0.0000     0.000     0.000     0.000  0.0000  0.0000  1.0000
 
              Baa     0.0000     0.000     0.000     0.000  1.0000  0.0000  0.0000
     4 H(1)   Bbb     0.0000     0.000     0.000     0.000 -0.0000  1.0000  0.0000
              Bcc     0.0000     0.000     0.000     0.000  0.0000  0.0000  1.0000
 
              Baa     0.0000     0.000     0.000     0.000  1.0000  0.0000  0.0000
     5 H(1)   Bbb     0.0000     0.000     0.000     0.000 -0.0000  1.0000  0.0000
              Bcc     0.0000     0.000     0.000     0.000  0.0000  0.0000  1.0000
 
              Baa     0.0000     0.000     0.000     0.000  1.0000  0.0000  0.0000
     6 H(1)   Bbb     0.0000     0.000     0.000     0.000 -0.0000  1.0000  0.0000
              Bcc     0.0000     0.000     0.000     0.000  0.0000  0.0000  1.0000
 

 ---------------------------------------------------------------------------------

 No NMR shielding tensors so no spin-rotation constants.
 Leave Link  601 at Tue Jan  3 09:07:03 2023, MaxMem=   536870912 cpu:               0.3 elap:               0.1
 (Enter /opt/software/gaussian/g16.c01/l801.exe)
 DoSCS=F DFT=T ScalE2(SS,OS)=  1.000000  1.000000
 Range of M.O.s used for correlation:     1    91
 NBasis=    91 NAE=    16 NBE=    16 NFC=     0 NFV=     0
 NROrb=     91 NOA=    16 NOB=    16 NVA=    75 NVB=    75

 **** Warning!!: The largest alpha MO coefficient is  0.16298739D+02


 **** Warning!!: The largest beta MO coefficient is  0.16298739D+02

 Leave Link  801 at Tue Jan  3 09:07:03 2023, MaxMem=   536870912 cpu:               0.1 elap:               0.0
 (Enter /opt/software/gaussian/g16.c01/l914.exe)
 UHF ground state
 Doing stability rather than CIS.
 Keep R1 and R2 ints in memory in canonical form, NReq=38667009.
 FoFCou: FMM=F IPFlag=           0 FMFlag=           0 FMFlg1=           0
         NFxFlg=           0 DoJE=F BraDBF=F KetDBF=F FulRan=T
         wScrn=  0.000000 ICntrl=       600 IOpCl=  0 I1Cent=           0 NGrid=           0
         NMat0=    1 NMatS0=   4186 NMatT0=    0 NMatD0=    1 NMtDS0=    0 NMtDT0=    0
 Symmetry not used in FoFCou.
 Two-electron integral symmetry not used.
 MDV=   536870912 DFT=T DoStab=T Mixed=T DoRPA=F DoScal=F NonHer=F
 Making orbital integer symmetry assigments:
    12 initial guesses have been made.
 Convergence on wavefunction:    0.001000000000000
 Davidson Disk Diagonalization:  ConvIn= 1.00D-03 SkipCon=T Conv= 1.00D-03.
 Max sub-space:  2000 roots to seek:    12 dimension of matrix:         2400
 Iteration     1 Dimension    12 NMult     0 NNew     12
 CISAX will form    12 AO SS matrices at one time.
 NMat=    12 NSing=    12 JSym2X= 0.
 Excitation Energies [eV] at current iteration:
 Root      1 :     1.083037367184490
 Root      2 :     4.145907908279350
 Root      3 :     5.574396877806298
 Root      4 :     6.077397811361449
 Root      5 :     6.255359499830472
 Root      6 :     6.761200024610460
 Root      7 :     6.930735131782345
 Root      8 :     7.317199090799797
 Root      9 :     7.378886928339679
 Root     10 :     7.589614702659074
 Root     11 :     7.709383246905487
 Root     12 :    11.454890154240532
 Iteration     2 Dimension    24 NMult    12 NNew     12
 CISAX will form    12 AO SS matrices at one time.
 NMat=    12 NSing=    12 JSym2X= 0.
 Root      1 not converged, maximum delta is    0.069541052686830
 Excitation Energies [eV] at current iteration:
 Root      1 :     0.617832272267331   Change is   -0.465205094917159
 Root      2 :     3.761688015474435   Change is   -0.384219892804914
 Root      3 :     5.163840457355356   Change is   -0.410556420450942
 Root      4 :     5.573325946192507   Change is   -0.504071865168942
 Root      5 :     5.640561953948808   Change is   -5.814328200291725
 Root      6 :     6.060420592960862   Change is   -0.194938906869609
 Root      7 :     6.387252932661974   Change is   -0.373947091948486
 Root      8 :     6.685580916128861   Change is   -0.245154215653484
 Root      9 :     7.130395850835120   Change is   -0.186803239964677
 Root     10 :     7.236387045699320   Change is   -0.142499882640360
 Root     11 :     7.625350003247304   Change is   -0.084033243658183
 Root     12 :     7.722157857837784   Change is    0.132543155178710
 Iteration     3 Dimension    27 NMult    24 NNew      3
 CISAX will form     3 AO SS matrices at one time.
 NMat=     3 NSing=     3 JSym2X= 0.
 Root      1 not converged, maximum delta is    0.007370268706591
 Excitation Energies [eV] at current iteration:
 Root      1 :     0.608485724735872   Change is   -0.009346547531459
 Root      2 :     3.724452388836694   Change is   -0.037235626637741
 Root      3 :     5.123432143079301   Change is   -0.040408314276055
 Iteration     4 Dimension    30 NMult    27 NNew      3
 CISAX will form     3 AO SS matrices at one time.
 NMat=     3 NSing=     3 JSym2X= 0.
 Root      1 not converged, maximum delta is    0.002616571446643
 Excitation Energies [eV] at current iteration:
 Root      1 :     0.608012317678316   Change is   -0.000473407057557
 Root      2 :     3.718886019523207   Change is   -0.005566369313487
 Root      3 :     5.116013680953428   Change is   -0.007418462125873
 Iteration     5 Dimension    33 NMult    30 NNew      3
 CISAX will form     3 AO SS matrices at one time.
 NMat=     3 NSing=     3 JSym2X= 0.
 Root      1 not converged, maximum delta is    0.001071260747348
 Excitation Energies [eV] at current iteration:
 Root      1 :     0.607977864965502   Change is   -0.000034452712814
 Root      2 :     3.718154435435068   Change is   -0.000731584088139
 Root      3 :     5.114371249111487   Change is   -0.001642431841940
 Iteration     6 Dimension    36 NMult    33 NNew      3
 CISAX will form     3 AO SS matrices at one time.
 NMat=     3 NSing=     3 JSym2X= 0.
 Root      1 has converged.
 Excitation Energies [eV] at current iteration:
 Root      1 :     0.607975001346231   Change is   -0.000002863619271
 Root      2 :     3.717936230184752   Change is   -0.000218205250316
 Root      3 :     5.114254068877686   Change is   -0.000117180233802
 Convergence achieved on expansion vectors.
 ***********************************************************************
 Stability analysis using <AA,BB:AA,BB> singles matrix:
 ***********************************************************************
 1PDM for each excited state written to RWF  633
 Ground to excited state transition densities written to RWF  633

 Eigenvectors of the stability matrix:
 
 Excited state symmetry could not be determined.
 Eigenvector   1:  3.000-?Sym  Eigenvalue= 0.0223427  <S**2>=2.000
     16A -> 17A        0.69253
     16B -> 17B       -0.69253
 The wavefunction is stable under the perturbations considered.
 Leave Link  914 at Tue Jan  3 09:07:44 2023, MaxMem=   536870912 cpu:              81.8 elap:              41.0
 (Enter /opt/software/gaussian/g16.c01/l508.exe)
 The wavefunction is already stable.
 Leave Link  508 at Tue Jan  3 09:07:44 2023, MaxMem=   536870912 cpu:               0.0 elap:               0.0
 (Enter /opt/software/gaussian/g16.c01/l601.exe)
 Copying SCF densities to generalized density rwf, IOpCl= 1 IROHF=0.

 **********************************************************************

            Population analysis using the SCF Density.

 **********************************************************************

 Alpha  occ. eigenvalues --  -89.12097 -14.44338 -10.33767  -8.15983  -6.11318
 Alpha  occ. eigenvalues --   -6.11121  -6.10747  -1.03174  -0.86333  -0.70078
 Alpha  occ. eigenvalues --   -0.58896  -0.56179  -0.47967  -0.44393  -0.37973
 Alpha  occ. eigenvalues --   -0.31693
 Alpha virt. eigenvalues --   -0.00663   0.07848   0.08633   0.09862   0.11802
 Alpha virt. eigenvalues --    0.13054   0.14750   0.15522   0.20592   0.22669
 Alpha virt. eigenvalues --    0.23895   0.24171   0.28146   0.28391   0.29766
 Alpha virt. eigenvalues --    0.29794   0.31963   0.32927   0.36470   0.37050
 Alpha virt. eigenvalues --    0.37980   0.40025   0.41102   0.43401   0.44858
 Alpha virt. eigenvalues --    0.45042   0.47348   0.48653   0.50300   0.52329
 Alpha virt. eigenvalues --    0.54319   0.58927   0.60147   0.63153   0.65504
 Alpha virt. eigenvalues --    0.72676   0.81890   0.84245   0.85697   0.89989
 Alpha virt. eigenvalues --    0.94709   0.96496   0.97517   0.99882   1.05034
 Alpha virt. eigenvalues --    1.05064   1.10436   1.14162   1.19979   1.21744
 Alpha virt. eigenvalues --    1.23627   1.27164   1.34021   1.40890   1.49495
 Alpha virt. eigenvalues --    1.51638   1.58677   1.66112   1.77879   1.81657
 Alpha virt. eigenvalues --    1.88299   2.00198   2.15059   2.15226   2.17757
 Alpha virt. eigenvalues --    2.24114   2.33919   2.47821   2.54863   2.68476
 Alpha virt. eigenvalues --    2.69072   2.92767   3.05616   3.05831   3.45602
  Beta  occ. eigenvalues --  -89.12097 -14.44338 -10.33767  -8.15983  -6.11318
  Beta  occ. eigenvalues --   -6.11121  -6.10747  -1.03174  -0.86333  -0.70078
  Beta  occ. eigenvalues --   -0.58896  -0.56179  -0.47967  -0.44393  -0.37973
  Beta  occ. eigenvalues --   -0.31693
  Beta virt. eigenvalues --   -0.00663   0.07848   0.08633   0.09862   0.11802
  Beta virt. eigenvalues --    0.13054   0.14750   0.15522   0.20592   0.22669
  Beta virt. eigenvalues --    0.23895   0.24171   0.28146   0.28391   0.29766
  Beta virt. eigenvalues --    0.29794   0.31963   0.32927   0.36470   0.37050
  Beta virt. eigenvalues --    0.37980   0.40025   0.41102   0.43401   0.44858
  Beta virt. eigenvalues --    0.45042   0.47348   0.48653   0.50300   0.52329
  Beta virt. eigenvalues --    0.54319   0.58927   0.60147   0.63153   0.65504
  Beta virt. eigenvalues --    0.72676   0.81890   0.84245   0.85697   0.89989
  Beta virt. eigenvalues --    0.94709   0.96496   0.97517   0.99882   1.05034
  Beta virt. eigenvalues --    1.05064   1.10436   1.14162   1.19979   1.21744
  Beta virt. eigenvalues --    1.23627   1.27164   1.34021   1.40890   1.49495
  Beta virt. eigenvalues --    1.51638   1.58677   1.66112   1.77879   1.81657
  Beta virt. eigenvalues --    1.88299   2.00198   2.15059   2.15226   2.17757
  Beta virt. eigenvalues --    2.24114   2.33919   2.47821   2.54863   2.68476
  Beta virt. eigenvalues --    2.69072   2.92767   3.05616   3.05831   3.45602
          Condensed to atoms (all electrons):
               1          2          3          4          5          6
     1  C    4.676707   0.251501   0.006799   0.360539   0.435873  -0.047984
     2  S    0.251501  15.603514   0.037458  -0.026885  -0.055404   0.100126
     3  N    0.006799   0.037458   7.239851   0.007363  -0.016360  -0.009328
     4  H    0.360539  -0.026885   0.007363   0.868920  -0.114819   0.000081
     5  H    0.435873  -0.055404  -0.016360  -0.114819   0.800870   0.007303
     6  H   -0.047984   0.100126  -0.009328   0.000081   0.007303   0.937612
          Atomic-Atomic Spin Densities.
               1          2          3          4          5          6
     1  C    0.000000   0.000000   0.000000   0.000000   0.000000   0.000000
     2  S    0.000000   0.000000   0.000000   0.000000   0.000000   0.000000
     3  N    0.000000   0.000000   0.000000   0.000000   0.000000   0.000000
     4  H    0.000000   0.000000   0.000000   0.000000   0.000000   0.000000
     5  H    0.000000   0.000000   0.000000   0.000000   0.000000   0.000000
     6  H    0.000000   0.000000   0.000000   0.000000   0.000000   0.000000
 Mulliken charges and spin densities:
               1          2
     1  C    0.316565   0.000000
     2  S    0.089691   0.000000
     3  N   -0.265784   0.000000
     4  H   -0.095198   0.000000
     5  H   -0.057464   0.000000
     6  H    0.012190   0.000000
 Sum of Mulliken charges =  -0.00000   0.00000
 Mulliken charges and spin densities with hydrogens summed into heavy atoms:
               1          2
     1  C    0.163903   0.000000
     2  S    0.089691   0.000000
     3  N   -0.253594   0.000000
 Electronic spatial extent (au):  <R**2>=            821.8428
 Charge=             -0.0000 electrons
 Dipole moment (field-independent basis, Debye):
    X=             -2.6695    Y=             -0.2339    Z=             -0.0904  Tot=              2.6812
 Quadrupole moment (field-independent basis, Debye-Ang):
   XX=            -39.2559   YY=            -24.4197   ZZ=            -25.8992
   XY=             -3.1097   XZ=             -1.8645   YZ=              1.9101
 Traceless Quadrupole moment (field-independent basis, Debye-Ang):
   XX=             -9.3976   YY=              5.4386   ZZ=              3.9591
   XY=             -3.1097   XZ=             -1.8645   YZ=              1.9101
 Octapole moment (field-independent basis, Debye-Ang**2):
  XXX=           -233.2066  YYY=            -27.6330  ZZZ=            -19.1927  XYY=            -58.7596
  XXY=            -27.7522  XXZ=            -17.0483  XZZ=            -58.8953  YZZ=             -8.4482
  YYZ=             -2.7799  XYZ=              0.8684
 Hexadecapole moment (field-independent basis, Debye-Ang**3):
 XXXX=          -1194.4730 YYYY=            -91.5633 ZZZZ=            -59.7987 XXXY=           -172.7047
 XXXZ=           -106.0630 YYYX=            -86.6847 YYYZ=            -12.5477 ZZZX=            -57.4246
 ZZZY=            -19.3331 XXYY=           -188.5657 XXZZ=           -174.4324 YYZZ=            -21.0006
 XXYZ=            -12.7933 YYXZ=            -11.2025 ZZXY=            -27.1465
 N-N= 1.020302470755D+02 E-N=-1.368984576097D+03  KE= 4.904780256921D+02
                          Isotropic Fermi Contact Couplings
        Atom                 a.u.       MegaHertz       Gauss      10(-4) cm-1
     1  C(13)              0.00000       0.00000       0.00000       0.00000
     2  S(33)              0.00000       0.00000       0.00000       0.00000
     3  N(14)              0.00000       0.00000       0.00000       0.00000
     4  H(1)               0.00000       0.00000       0.00000       0.00000
     5  H(1)               0.00000       0.00000       0.00000       0.00000
     6  H(1)               0.00000       0.00000       0.00000       0.00000
 --------------------------------------------------------
       Center         ----  Spin Dipole Couplings  ----
                      3XX-RR        3YY-RR        3ZZ-RR
 --------------------------------------------------------
     1   Atom        0.000000      0.000000      0.000000
     2   Atom        0.000000      0.000000      0.000000
     3   Atom        0.000000      0.000000      0.000000
     4   Atom        0.000000      0.000000      0.000000
     5   Atom        0.000000      0.000000      0.000000
     6   Atom        0.000000      0.000000      0.000000
 --------------------------------------------------------
                        XY            XZ            YZ
 --------------------------------------------------------
     1   Atom        0.000000      0.000000      0.000000
     2   Atom        0.000000      0.000000      0.000000
     3   Atom        0.000000      0.000000      0.000000
     4   Atom        0.000000      0.000000      0.000000
     5   Atom        0.000000      0.000000      0.000000
     6   Atom        0.000000      0.000000      0.000000
 --------------------------------------------------------


 ---------------------------------------------------------------------------------
              Anisotropic Spin Dipole Couplings in Principal Axis System
 ---------------------------------------------------------------------------------

       Atom             a.u.   MegaHertz   Gauss  10(-4) cm-1        Axes

              Baa     0.0000     0.000     0.000     0.000  1.0000  0.0000  0.0000
     1 C(13)  Bbb     0.0000     0.000     0.000     0.000 -0.0000  1.0000  0.0000
              Bcc     0.0000     0.000     0.000     0.000  0.0000  0.0000  1.0000
 
              Baa     0.0000     0.000     0.000     0.000  1.0000  0.0000  0.0000
     2 S(33)  Bbb     0.0000     0.000     0.000     0.000 -0.0000  1.0000  0.0000
              Bcc     0.0000     0.000     0.000     0.000  0.0000  0.0000  1.0000
 
              Baa     0.0000     0.000     0.000     0.000  1.0000  0.0000  0.0000
     3 N(14)  Bbb     0.0000     0.000     0.000     0.000 -0.0000  1.0000  0.0000
              Bcc     0.0000     0.000     0.000     0.000  0.0000  0.0000  1.0000
 
              Baa     0.0000     0.000     0.000     0.000  1.0000  0.0000  0.0000
     4 H(1)   Bbb     0.0000     0.000     0.000     0.000 -0.0000  1.0000  0.0000
              Bcc     0.0000     0.000     0.000     0.000  0.0000  0.0000  1.0000
 
              Baa     0.0000     0.000     0.000     0.000  1.0000  0.0000  0.0000
     5 H(1)   Bbb     0.0000     0.000     0.000     0.000 -0.0000  1.0000  0.0000
              Bcc     0.0000     0.000     0.000     0.000  0.0000  0.0000  1.0000
 
              Baa     0.0000     0.000     0.000     0.000  1.0000  0.0000  0.0000
     6 H(1)   Bbb     0.0000     0.000     0.000     0.000 -0.0000  1.0000  0.0000
              Bcc     0.0000     0.000     0.000     0.000  0.0000  0.0000  1.0000
 

 ---------------------------------------------------------------------------------

 No NMR shielding tensors so no spin-rotation constants.
 Leave Link  601 at Tue Jan  3 09:07:44 2023, MaxMem=   536870912 cpu:               0.3 elap:               0.2
 (Enter /opt/software/gaussian/g16.c01/l9999.exe)

 Test job not archived.
 1\1\GINC-GRA1085\Stability\UwB97XD\Gen\C1H3N1S1\BHAVUK\03-Jan-2023\0\\
 #p uwb97xd/gen stable=opt scf=(maxcycle=900,verytightlineq,xqc) integr
 al=grid=ultrafine symmetry=None density=current iop(99/18=-1) output=w
 fn\\0004_q000_m01_k00_opt_uwb97xd_def2svpd/0004_q000_m01_k00_force_uwb
 97xd_def2svpd stable-force\\0,1\C,0,0.8882935141,0.1422345627,0.108926
 3123\S,0,2.5067242222,0.1041696479,0.0448895292\N,0,3.3032398974,1.229
 8974173,0.7707622237\H,0,0.3752741579,-0.6653344173,-0.4132293362\H,0,
 0.3242760911,0.9148647349,0.6338600998\H,0,2.7138421188,1.9201180545,1
 .2418511706\\Version=ES64L-G16RevC.01\HF=-492.5437093\S2=0.\S2-1=0.\S2
 A=0.\RMSD=3.944e-09\Dipole=-1.0502574,-0.0920134,-0.035584\Quadrupole=
 -6.9869203,4.0434499,2.9434704,-2.3119718,-1.3862284,1.4201352\PG=Unkn
 own\\@

 Writing a WFN file to "0004_q000_m01_k00_force_uwb97xd_def2svpd.wfn"


 AN AIRPLANE IS A COLLECTION OF SPARE PARTS
 FLYING IN CLOSE FORMATION.
 Job cpu time:       0 days  0 hours  1 minutes 45.4 seconds.
 Elapsed time:       0 days  0 hours  0 minutes 52.9 seconds.
 File lengths (MBytes):  RWF=     79 Int=      0 D2E=      0 Chk=      2 Scr=      1
 Normal termination of Gaussian 16 at Tue Jan  3 09:07:44 2023.
 Initial command:
 /opt/software/gaussian/g16.c01/l1.exe "/localscratch/bhavuk.2151407.0/Gau-5570.inp" -scrdir="/localscratch/bhavuk.2151407.0/"
 Entering Link 1 = /opt/software/gaussian/g16.c01/l1.exe PID=      6417.
  
 Copyright (c) 1988-2019, Gaussian, Inc.  All Rights Reserved.
  
 This is part of the Gaussian(R) 16 program.  It is based on
 the Gaussian(R) 09 system (copyright 2009, Gaussian, Inc.),
 the Gaussian(R) 03 system (copyright 2003, Gaussian, Inc.),
 the Gaussian(R) 98 system (copyright 1998, Gaussian, Inc.),
 the Gaussian(R) 94 system (copyright 1995, Gaussian, Inc.),
 the Gaussian 92(TM) system (copyright 1992, Gaussian, Inc.),
 the Gaussian 90(TM) system (copyright 1990, Gaussian, Inc.),
 the Gaussian 88(TM) system (copyright 1988, Gaussian, Inc.),
 the Gaussian 86(TM) system (copyright 1986, Carnegie Mellon
 University), and the Gaussian 82(TM) system (copyright 1983,
 Carnegie Mellon University). Gaussian is a federally registered
 trademark of Gaussian, Inc.
  
 This software contains proprietary and confidential information,
 including trade secrets, belonging to Gaussian, Inc.
  
 This software is provided under written license and may be
 used, copied, transmitted, or stored only in accord with that
 written license.
  
 The following legend is applicable only to US Government
 contracts under FAR:
  
                    RESTRICTED RIGHTS LEGEND
  
 Use, reproduction and disclosure by the US Government is
 subject to restrictions as set forth in subparagraphs (a)
 and (c) of the Commercial Computer Software - Restricted
 Rights clause in FAR 52.227-19.
  
 Gaussian, Inc.
 340 Quinnipiac St., Bldg. 40, Wallingford CT 06492
  
  
 ---------------------------------------------------------------
 Warning -- This program may not be used in any manner that
 competes with the business of Gaussian, Inc. or will provide
 assistance to any competitor of Gaussian, Inc.  The licensee
 of this program is prohibited from giving any competitor of
 Gaussian, Inc. access to this program.  By using this program,
 the user acknowledges that Gaussian, Inc. is engaged in the
 business of creating and licensing software in the field of
 computational chemistry and represents and warrants to the
 licensee that it is not a competitor of Gaussian, Inc. and that
 it will not use this program in any manner prohibited above.
 ---------------------------------------------------------------
  

 Cite this work as:
 Gaussian 16, Revision C.01,
 M. J. Frisch, G. W. Trucks, H. B. Schlegel, G. E. Scuseria, 
 M. A. Robb, J. R. Cheeseman, G. Scalmani, V. Barone, 
 G. A. Petersson, H. Nakatsuji, X. Li, M. Caricato, A. V. Marenich, 
 J. Bloino, B. G. Janesko, R. Gomperts, B. Mennucci, H. P. Hratchian, 
 J. V. Ortiz, A. F. Izmaylov, J. L. Sonnenberg, D. Williams-Young, 
 F. Ding, F. Lipparini, F. Egidi, J. Goings, B. Peng, A. Petrone, 
 T. Henderson, D. Ranasinghe, V. G. Zakrzewski, J. Gao, N. Rega, 
 G. Zheng, W. Liang, M. Hada, M. Ehara, K. Toyota, R. Fukuda, 
 J. Hasegawa, M. Ishida, T. Nakajima, Y. Honda, O. Kitao, H. Nakai, 
 T. Vreven, K. Throssell, J. A. Montgomery, Jr., J. E. Peralta, 
 F. Ogliaro, M. J. Bearpark, J. J. Heyd, E. N. Brothers, K. N. Kudin, 
 V. N. Staroverov, T. A. Keith, R. Kobayashi, J. Normand, 
 K. Raghavachari, A. P. Rendell, J. C. Burant, S. S. Iyengar, 
 J. Tomasi, M. Cossi, J. M. Millam, M. Klene, C. Adamo, R. Cammi, 
 J. W. Ochterski, R. L. Martin, K. Morokuma, O. Farkas, 
 J. B. Foresman, and D. J. Fox, Gaussian, Inc., Wallingford CT, 2019.
 
 ******************************************
 Gaussian 16:  ES64L-G16RevC.01  3-Jul-2019
                 3-Jan-2023 
 ******************************************
 %chk=0004_q000_m01_k00_force_uwb97xd_def2svpd.chk
 %nprocshared=2
 Will use up to    2 processors via shared memory.
 %mem=4GB
 ----------------------------------------------------------------------
 #p uwb97xd/chkbasis force guess=read geom=check scf=(maxcycle=900,very
 tightlineq,xqc) integral=grid=ultrafine symmetry=None density=current 
 pop=(cm5,hlygat,mbs,npa) output=wfx
 ----------------------------------------------------------------------
 1/10=7,29=2,30=1,38=1/1,3;
 2/12=2,15=3,40=1/2;
 3/5=7,6=2,11=2,14=-4,25=1,30=1,67=1,71=1,74=-58,75=-5,116=2/1,2,3;
 4/5=1/1;
 5/5=2,7=900,8=3,13=1,17=3,38=6/2,8;
 6/7=2,8=2,9=2,10=2,15=8,20=15,22=-1,27=100,28=1,40=-1,79=1/1,2,7;
 7/29=1,30=1/1,2,3,16;
 1/10=7,30=1/3;
 99/6=200/99;
 Leave Link    1 at Tue Jan  3 09:07:44 2023, MaxMem=   536870912 cpu:               0.2 elap:               0.1
 (Enter /opt/software/gaussian/g16.c01/l101.exe)
 ----------------------------------------------------------------------
 0004_q000_m01_k00_opt_uwb97xd_def2svpd/0004_q000_m01_k00_force_uwb97xd
 _def2svpd stable-force
 ----------------------------------------------------------------------
 Structure from the checkpoint file:  "0004_q000_m01_k00_force_uwb97xd_def2svpd.chk"
 Charge =  0 Multiplicity = 1
 Z-Matrix found in chk file.
 C,0,0.8882935141,0.1422345627,0.1089263123
 S,0,2.5067242222,0.1041696479,0.0448895292
 N,0,3.3032398974,1.2298974173,0.7707622237
 H,0,0.3752741579,-0.6653344173,-0.4132293362
 H,0,0.3242760911,0.9148647349,0.6338600998
 H,0,2.7138421188,1.9201180545,1.2418511706
 Recover connectivity data from disk.
 ITRead=  0  0  0  0  0  0
 MicOpt= -1 -1 -1 -1 -1 -1
 NAtoms=      6 NQM=        6 NQMF=       0 NMMI=      0 NMMIF=      0
                NMic=       0 NMicF=      0.
                    Isotopes and Nuclear Properties:
 (Nuclear quadrupole moments (NQMom) in fm**2, nuclear magnetic moments (NMagM)
  in nuclear magnetons)

  Atom         1           2           3           4           5           6
 IAtWgt=          12          32          14           1           1           1
 AtmWgt=  12.0000000  31.9720718  14.0030740   1.0078250   1.0078250   1.0078250
 NucSpn=           0           0           2           1           1           1
 AtZEff=   3.6000000  13.6000000   4.5500000   1.0000000   1.0000000   1.0000000
 NQMom=    0.0000000   0.0000000   2.0440000   0.0000000   0.0000000   0.0000000
 NMagM=    0.0000000   0.0000000   0.4037610   2.7928460   2.7928460   2.7928460
 AtZNuc=   6.0000000  16.0000000   7.0000000   1.0000000   1.0000000   1.0000000
 Leave Link  101 at Tue Jan  3 09:07:44 2023, MaxMem=   536870912 cpu:               0.4 elap:               0.2
 (Enter /opt/software/gaussian/g16.c01/l103.exe)

 GradGradGradGradGradGradGradGradGradGradGradGradGradGradGradGradGradGrad
 Berny optimization.
 Initialization pass.
 Trust Radius=3.00D-01 FncErr=1.00D-07 GrdErr=1.00D-07 EigMax=2.50D+02 EigMin=1.00D-04
 Number of steps in this run=      2 maximum allowed number of steps=      2.
 GradGradGradGradGradGradGradGradGradGradGradGradGradGradGradGradGradGrad

 Leave Link  103 at Tue Jan  3 09:07:44 2023, MaxMem=   536870912 cpu:               0.1 elap:               0.0
 (Enter /opt/software/gaussian/g16.c01/l202.exe)
                          Input orientation:                          
 ---------------------------------------------------------------------
 Center     Atomic      Atomic             Coordinates (Angstroms)
 Number     Number       Type             X           Y           Z
 ---------------------------------------------------------------------
      1          6           0        0.888294    0.142235    0.108926
      2         16           0        2.506724    0.104170    0.044890
      3          7           0        3.303240    1.229897    0.770762
      4          1           0        0.375274   -0.665334   -0.413229
      5          1           0        0.324276    0.914865    0.633860
      6          1           0        2.713842    1.920118    1.241851
 ---------------------------------------------------------------------
                    Distance matrix (angstroms):
                    1          2          3          4          5
     1  C    0.000000
     2  S    1.620144   0.000000
     3  N    2.730019   1.558394   0.000000
     4  H    1.089956   2.311945   3.683303   0.000000
     5  H    1.091159   2.401498   2.998702   1.896319   0.000000
     6  H    2.788730   2.184785   1.022604   3.859113   2.662745
                    6
     6  H    0.000000
 Symmetry turned off by external request.
 Stoichiometry    CH3NS
 Rotational constants (GHZ):          36.3131241           8.8290023           7.1022055
 Leave Link  202 at Tue Jan  3 09:07:44 2023, MaxMem=   536870912 cpu:               0.0 elap:               0.0
 (Enter /opt/software/gaussian/g16.c01/l301.exe)
 Basis read from chk: "0004_q000_m01_k00_force_uwb97xd_def2svpd.chk" (5D, 7F)
 No pseudopotential information found on chk file.
    91 basis functions,   141 primitive gaussians,    97 cartesian basis functions
    16 alpha electrons       16 beta electrons
       nuclear repulsion energy       102.0311797422 Hartrees.
 IExCor= 4639 DFT=T Ex+Corr=wB97XD ExCW=0 ScaHFX=  1.000000
 ScaDFX=  1.000000  1.000000  1.000000  1.000000 ScalE2=  1.000000  1.000000
 IRadAn=      5 IRanWt=     -1 IRanGd=            0 ICorTp=0 IEmpDi=121
 HFx  wShort=  0.000000 wLong=  0.200000 cFull=  0.222036 cShort=  0.000000 cLong=  0.777964
 DFx  wShort=  0.000000 wLong=  0.200000 cFull=  0.000000 cShort=  0.000000 cLong=  1.000000
 NAtoms=    6 NActive=    6 NUniq=    6 SFac= 1.00D+00 NAtFMM=   60 NAOKFM=F Big=F
 Integral buffers will be    131072 words long.
 Raffenetti 2 integral format.
 Two-electron integral symmetry is turned off.
 R6Disp:  Grimme-D2 Dispersion energy=       -0.0009326667 Hartrees.
 Nuclear repulsion after empirical dispersion term =      102.0302470755 Hartrees.
 No density basis found on file  20724.
 Leave Link  301 at Tue Jan  3 09:07:44 2023, MaxMem=   536870912 cpu:               0.1 elap:               0.1
 (Enter /opt/software/gaussian/g16.c01/l302.exe)
 NPDir=0 NMtPBC=     1 NCelOv=     1 NCel=       1 NClECP=     1 NCelD=      1
         NCelK=      1 NCelE2=     1 NClLst=     1 CellRange=     0.0.
 One-electron integrals computed using PRISM.
 NBasis=    91 RedAO= T EigKep=  4.68D-04  NBF=    91
 NBsUse=    91 1.00D-06 EigRej= -1.00D+00 NBFU=    91
 Precomputing XC quadrature grid using
 IXCGrd= 4 IRadAn=           5 IRanWt=          -1 IRanGd=           0 AccXCQ= 0.00D+00.
 Generated NRdTot=       0 NPtTot=           0 NUsed=           0 NTot=          32
 NSgBfM=    97    97    97    97    97 MxSgAt=     6 MxSgA2=     6.
 Leave Link  302 at Tue Jan  3 09:07:45 2023, MaxMem=   536870912 cpu:               0.3 elap:               0.2
 (Enter /opt/software/gaussian/g16.c01/l303.exe)
 DipDrv:  MaxL=1.
 Leave Link  303 at Tue Jan  3 09:07:45 2023, MaxMem=   536870912 cpu:               0.1 elap:               0.0
 (Enter /opt/software/gaussian/g16.c01/l401.exe)
 Initial guess from the checkpoint file:  "0004_q000_m01_k00_force_uwb97xd_def2svpd.chk"
 B after Tr=     0.000000    0.000000    0.000000
         Rot=    1.000000    0.000000    0.000000    0.000000 Ang=   0.00 deg.
 Guess basis will be translated and rotated to current coordinates.
 JPrj=2 DoOrth=T DoCkMO=T.
 Initial guess <Sx>= 0.0000 <Sy>= 0.0000 <Sz>= 0.0000 <S**2>=-0.0000 S=-0.0000
 Leave Link  401 at Tue Jan  3 09:07:45 2023, MaxMem=   536870912 cpu:               0.2 elap:               0.1
 (Enter /opt/software/gaussian/g16.c01/l502.exe)
 Keep R1 and R2 ints in memory in canonical form, NReq=37288447.
 FoFCou: FMM=F IPFlag=           0 FMFlag=           0 FMFlg1=           0
         NFxFlg=           0 DoJE=F BraDBF=F KetDBF=F FulRan=T
         wScrn=  0.000000 ICntrl=       600 IOpCl=  0 I1Cent=           0 NGrid=           0
         NMat0=    1 NMatS0=   4186 NMatT0=    0 NMatD0=    1 NMtDS0=    0 NMtDT0=    0
 Symmetry not used in FoFCou.
 Two-electron integral symmetry not used.
 UHF open shell SCF:
 Using DIIS extrapolation, IDIIS=  1040.
 NGot=   536870912 LenX=   501796985 LenY=   501787135
 Requested convergence on RMS density matrix=1.00D-08 within 128 cycles.
 Requested convergence on MAX density matrix=1.00D-06.
 Requested convergence on             energy=1.00D-06.
 No special actions if energy rises.

 Cycle   1  Pass 1  IDiag  1:
 E= -492.543709301111    
 DIIS: error= 2.24D-09 at cycle   1 NSaved=   1.
 NSaved= 1 IEnMin= 1 EnMin= -492.543709301111     IErMin= 1 ErrMin= 2.24D-09
 ErrMax= 2.24D-09  0.00D+00 EMaxC= 1.00D-01 BMatC= 1.95D-15 BMatP= 1.95D-15
 IDIUse=1 WtCom= 1.00D+00 WtEn= 0.00D+00
 Coeff-Com:  0.100D+01
 Coeff:      0.100D+01
 Gap=     0.310 Goal=   None    Shift=    0.000
 Gap=     0.310 Goal=   None    Shift=    0.000
 RMSDP=8.81D-10 MaxDP=2.21D-08              OVMax= 2.34D-08

 SCF Done:  E(UwB97XD) =  -492.543709301     A.U. after    1 cycles
            NFock=  1  Conv=0.88D-09     -V/T= 2.0042
 <Sx>= 0.0000 <Sy>= 0.0000 <Sz>= 0.0000 <S**2>=-0.0000 S=-0.0000
 <L.S>=  0.00000000000    
 KE= 4.904780256202D+02 PE=-1.368984576026D+03 EE= 2.839325940288D+02
 Annihilation of the first spin contaminant:
 S**2 before annihilation    -0.0000,   after    -0.0000
 Leave Link  502 at Tue Jan  3 09:07:46 2023, MaxMem=   536870912 cpu:               3.1 elap:               1.6
 (Enter /opt/software/gaussian/g16.c01/l508.exe)
 QCSCF skips out because SCF is already converged.
 Leave Link  508 at Tue Jan  3 09:07:46 2023, MaxMem=   536870912 cpu:               0.0 elap:               0.0
 (Enter /opt/software/gaussian/g16.c01/l601.exe)
 Copying SCF densities to generalized density rwf, IOpCl= 1 IROHF=0.

 **********************************************************************

            Population analysis using the SCF Density.

 **********************************************************************

 Alpha  occ. eigenvalues --  -89.12097 -14.44338 -10.33767  -8.15983  -6.11318
 Alpha  occ. eigenvalues --   -6.11121  -6.10747  -1.03174  -0.86333  -0.70078
 Alpha  occ. eigenvalues --   -0.58896  -0.56179  -0.47967  -0.44393  -0.37973
 Alpha  occ. eigenvalues --   -0.31693
 Alpha virt. eigenvalues --   -0.00663   0.07848   0.08633   0.09862   0.11802
 Alpha virt. eigenvalues --    0.13054   0.14750   0.15522   0.20592   0.22669
 Alpha virt. eigenvalues --    0.23895   0.24171   0.28146   0.28391   0.29766
 Alpha virt. eigenvalues --    0.29794   0.31963   0.32927   0.36470   0.37050
 Alpha virt. eigenvalues --    0.37980   0.40025   0.41102   0.43401   0.44858
 Alpha virt. eigenvalues --    0.45042   0.47348   0.48653   0.50300   0.52329
 Alpha virt. eigenvalues --    0.54319   0.58927   0.60147   0.63153   0.65504
 Alpha virt. eigenvalues --    0.72676   0.81890   0.84245   0.85697   0.89989
 Alpha virt. eigenvalues --    0.94709   0.96496   0.97517   0.99882   1.05034
 Alpha virt. eigenvalues --    1.05064   1.10436   1.14162   1.19979   1.21744
 Alpha virt. eigenvalues --    1.23627   1.27164   1.34021   1.40890   1.49495
 Alpha virt. eigenvalues --    1.51638   1.58677   1.66112   1.77879   1.81657
 Alpha virt. eigenvalues --    1.88299   2.00198   2.15059   2.15226   2.17757
 Alpha virt. eigenvalues --    2.24114   2.33919   2.47821   2.54863   2.68476
 Alpha virt. eigenvalues --    2.69072   2.92767   3.05616   3.05831   3.45602
  Beta  occ. eigenvalues --  -89.12097 -14.44338 -10.33767  -8.15983  -6.11318
  Beta  occ. eigenvalues --   -6.11121  -6.10747  -1.03174  -0.86333  -0.70078
  Beta  occ. eigenvalues --   -0.58896  -0.56179  -0.47967  -0.44393  -0.37973
  Beta  occ. eigenvalues --   -0.31693
  Beta virt. eigenvalues --   -0.00663   0.07848   0.08633   0.09862   0.11802
  Beta virt. eigenvalues --    0.13054   0.14750   0.15522   0.20592   0.22669
  Beta virt. eigenvalues --    0.23895   0.24171   0.28146   0.28391   0.29766
  Beta virt. eigenvalues --    0.29794   0.31963   0.32927   0.36470   0.37050
  Beta virt. eigenvalues --    0.37980   0.40025   0.41102   0.43401   0.44858
  Beta virt. eigenvalues --    0.45042   0.47348   0.48653   0.50300   0.52329
  Beta virt. eigenvalues --    0.54319   0.58927   0.60147   0.63153   0.65504
  Beta virt. eigenvalues --    0.72676   0.81890   0.84245   0.85697   0.89989
  Beta virt. eigenvalues --    0.94709   0.96496   0.97517   0.99882   1.05034
  Beta virt. eigenvalues --    1.05064   1.10436   1.14162   1.19979   1.21744
  Beta virt. eigenvalues --    1.23627   1.27164   1.34021   1.40890   1.49495
  Beta virt. eigenvalues --    1.51638   1.58677   1.66112   1.77879   1.81657
  Beta virt. eigenvalues --    1.88299   2.00198   2.15059   2.15226   2.17757
  Beta virt. eigenvalues --    2.24114   2.33919   2.47821   2.54863   2.68476
  Beta virt. eigenvalues --    2.69072   2.92767   3.05616   3.05831   3.45602
          Condensed to atoms (all electrons):
               1          2          3          4          5          6
     1  C    4.676707   0.251501   0.006799   0.360539   0.435873  -0.047984
     2  S    0.251501  15.603514   0.037458  -0.026885  -0.055404   0.100126
     3  N    0.006799   0.037458   7.239851   0.007363  -0.016360  -0.009328
     4  H    0.360539  -0.026885   0.007363   0.868920  -0.114819   0.000081
     5  H    0.435873  -0.055404  -0.016360  -0.114819   0.800870   0.007303
     6  H   -0.047984   0.100126  -0.009328   0.000081   0.007303   0.937612
          Atomic-Atomic Spin Densities.
               1          2          3          4          5          6
     1  C    0.000000   0.000000   0.000000   0.000000   0.000000   0.000000
     2  S    0.000000   0.000000   0.000000   0.000000   0.000000   0.000000
     3  N    0.000000   0.000000   0.000000   0.000000   0.000000   0.000000
     4  H    0.000000   0.000000   0.000000   0.000000   0.000000   0.000000
     5  H    0.000000   0.000000   0.000000   0.000000   0.000000   0.000000
     6  H    0.000000   0.000000   0.000000   0.000000   0.000000   0.000000
 Mulliken charges and spin densities:
               1          2
     1  C    0.316565   0.000000
     2  S    0.089691   0.000000
     3  N   -0.265784   0.000000
     4  H   -0.095198   0.000000
     5  H   -0.057464   0.000000
     6  H    0.012190   0.000000
 Sum of Mulliken charges =  -0.00000   0.00000
 Mulliken charges and spin densities with hydrogens summed into heavy atoms:
               1          2
     1  C    0.163903   0.000000
     2  S    0.089691   0.000000
     3  N   -0.253594   0.000000
 Electronic spatial extent (au):  <R**2>=            821.8428
 Charge=             -0.0000 electrons
 Dipole moment (field-independent basis, Debye):
    X=             -2.6695    Y=             -0.2339    Z=             -0.0904  Tot=              2.6812
 Quadrupole moment (field-independent basis, Debye-Ang):
   XX=            -39.2559   YY=            -24.4197   ZZ=            -25.8992
   XY=             -3.1097   XZ=             -1.8645   YZ=              1.9101
 Traceless Quadrupole moment (field-independent basis, Debye-Ang):
   XX=             -9.3976   YY=              5.4386   ZZ=              3.9591
   XY=             -3.1097   XZ=             -1.8645   YZ=              1.9101
 Octapole moment (field-independent basis, Debye-Ang**2):
  XXX=           -233.2066  YYY=            -27.6330  ZZZ=            -19.1927  XYY=            -58.7596
  XXY=            -27.7522  XXZ=            -17.0483  XZZ=            -58.8953  YZZ=             -8.4482
  YYZ=             -2.7799  XYZ=              0.8684
 Hexadecapole moment (field-independent basis, Debye-Ang**3):
 XXXX=          -1194.4730 YYYY=            -91.5633 ZZZZ=            -59.7987 XXXY=           -172.7047
 XXXZ=           -106.0630 YYYX=            -86.6847 YYYZ=            -12.5477 ZZZX=            -57.4246
 ZZZY=            -19.3331 XXYY=           -188.5657 XXZZ=           -174.4324 YYZZ=            -21.0006
 XXYZ=            -12.7933 YYXZ=            -11.2025 ZZXY=            -27.1465
 N-N= 1.020302470755D+02 E-N=-1.368984575946D+03  KE= 4.904780256202D+02
 There are a total of      136008 grid points.
 ElSum from          density=       32.0000001353
 ElSum from atomic densities=       32.0000004807

 Hirshfeld populations at iteration   1 (CX, CA, CB, DipXYZ):
               1          2          3          4          5          6
     1  C    0.000000   3.063664   3.063664  -0.082506   0.018558   0.014264
     2  S    0.000006   7.885444   7.885444   0.002876   0.040140   0.026506
     3  N    0.000008   3.647382   3.647382  -0.234826   0.030324   0.025724
     4  H    0.000001   0.475144   0.475144  -0.098588  -0.125896  -0.080957
     5  H    0.000000   0.473665   0.473665  -0.100328   0.119286   0.081362
     6  H    0.000001   0.454702   0.454702  -0.100622   0.142492   0.096747
       Tot   0.000016  16.000000  16.000000  -0.613994   0.224904   0.163646

 Dip from Atomic Chgs             -0.436263  -0.316918  -0.199227
         Total Dipole             -1.050257  -0.092014  -0.035582

 Hirshfeld charges, spin densities, dipoles, and CM5 charges using IRadAn=      5:
              Q-H        S-H        Dx         Dy         Dz        Q-CM5   
     1  C   -0.127327   0.000000  -0.082506   0.018558   0.014264  -0.202946
     2  S    0.229111   0.000000   0.002876   0.040140   0.026506   0.273759
     3  N   -0.294764   0.000000  -0.234826   0.030324   0.025724  -0.558125
     4  H    0.049712   0.000000  -0.098588  -0.125896  -0.080957   0.103632
     5  H    0.052671   0.000000  -0.100328   0.119286   0.081362   0.106372
     6  H    0.090597   0.000000  -0.100622   0.142492   0.096747   0.277308
       Tot  -0.000000   0.000000  -0.613994   0.224904   0.163646  -0.000000
 Hirshfeld charges and spin densities with hydrogens summed into heavy atoms:
              Q-H        S-H       Q-CM5   
     1  C   -0.024944   0.000000   0.007058
     2  S    0.229111   0.000000   0.273759
     3  N   -0.204167   0.000000  -0.280818
 
 EQQ=  0.00000000000     EQD=  0.00000000000     EDD= 0.667531348769E-02
 EQQ+QD+DD= 0.667531348769E-02
 
 GSVD:  LWork=        -945 too small for GESVD, short by        4050 words or        4050 for optimal perf.
          MBS Condensed to atoms (all electrons):
               1          2          3          4          5          6
     1  C    5.041253   0.477279  -0.013388   0.380899   0.376501  -0.003810
     2  S    0.477279  14.894854   0.459106  -0.021234  -0.015998  -0.025022
     3  N   -0.013388   0.459106   6.729553   0.000469  -0.001212   0.309261
     4  H    0.380899  -0.021234   0.000469   0.519240  -0.017013   0.000014
     5  H    0.376501  -0.015998  -0.001212  -0.017013   0.527412   0.001749
     6  H   -0.003810  -0.025022   0.309261   0.000014   0.001749   0.472487
          MBS Atomic-Atomic Spin Densities.
               1          2          3          4          5          6
     1  C    0.000000   0.000000  -0.000000   0.000000   0.000000  -0.000000
     2  S    0.000000  -0.000000   0.000000  -0.000000  -0.000000   0.000000
     3  N   -0.000000   0.000000   0.000000  -0.000000   0.000000   0.000000
     4  H    0.000000  -0.000000  -0.000000   0.000000   0.000000  -0.000000
     5  H    0.000000  -0.000000   0.000000   0.000000   0.000000   0.000000
     6  H   -0.000000   0.000000   0.000000  -0.000000   0.000000   0.000000
 MBS Mulliken charges and spin densities:
               1          2
     1  C   -0.258734   0.000000
     2  S    0.231016  -0.000000
     3  N   -0.483789  -0.000000
     4  H    0.137625   0.000000
     5  H    0.128561   0.000000
     6  H    0.245321   0.000000
 Sum of MBS Mulliken charges =  -0.00000  -0.00000
 MBS Mulliken charges and spin densities with hydrogens summed into heavy atoms:
               1          2
     1  C    0.007452   0.000000
     2  S    0.231016  -0.000000
     3  N   -0.238468  -0.000000
 MBS Atomic Valencies and Mayer Atomic Bond Orders:
               1          2          3          4          5          6
     1  C    3.911470   1.714354   0.302066   0.943809   0.947251   0.003990
     2  S    1.714354   3.583089   1.778426   0.017999   0.028047   0.044262
     3  N    0.302066   1.778426   2.989106   0.016521   0.002985   0.889107
     4  H    0.943809   0.017999   0.016521   0.981059   0.002730   0.000000
     5  H    0.947251   0.028047   0.002985   0.002730   0.983472   0.002458
     6  H    0.003990   0.044262   0.889107   0.000000   0.002458   0.939818
 MBS Mayer-style numbers of lone pairs (16.000 valence pairs, 9.306 lone pairs):
               1
     1  C    1.173632
     2  S    6.092948
     3  N    2.247342
     4  H   -0.059342
     5  H   -0.056017
     6  H   -0.092569
 BEBO parameters in MulMin, MxElBE=  0:
 ELP=  0.00000000000     EBEBO=  11.9806518612     Sum=  11.9806518612    
 ELP=  0.00000000000     EBEBO=  11.9806518612     EJK=  11.9806518612      0.00000000000     Sum=  11.9806518612    
 0 EA=  5.99032593059     EB=  5.99032593059     ETot=  11.9806518612    
 1 EA=  5.99032593059     EB=  5.99032593059     ETot=  11.9806518612    
 2 EA=  5.99032593059     EB=  5.99032593059     ETot=  11.9806518612    
 3 EJ=  11.9806518612     EK=  0.00000000000     ETot=  11.9806518612    
 4 EJ=  11.9806518612     EK=  0.00000000000     ETot=  11.9806518612    
 5 EA=  5.99032593059     EB=  5.99032593059     ETot=  11.9806518612    
                          Isotropic Fermi Contact Couplings
        Atom                 a.u.       MegaHertz       Gauss      10(-4) cm-1
     1  C(13)              0.00000       0.00000       0.00000       0.00000
     2  S(33)              0.00000       0.00000       0.00000       0.00000
     3  N(14)              0.00000       0.00000       0.00000       0.00000
     4  H(1)               0.00000       0.00000       0.00000       0.00000
     5  H(1)               0.00000       0.00000       0.00000       0.00000
     6  H(1)               0.00000       0.00000       0.00000       0.00000
 --------------------------------------------------------
       Center         ----  Spin Dipole Couplings  ----
                      3XX-RR        3YY-RR        3ZZ-RR
 --------------------------------------------------------
     1   Atom        0.000000      0.000000      0.000000
     2   Atom        0.000000      0.000000      0.000000
     3   Atom        0.000000      0.000000      0.000000
     4   Atom        0.000000      0.000000      0.000000
     5   Atom        0.000000      0.000000      0.000000
[...]
     5    C    1  px     Val( 2p)     0.54269      -0.18296
     6    C    1  px     Ryd( 3p)     0.00311       0.76149
     7    C    1  py     Val( 2p)     0.63068      -0.16076
     8    C    1  py     Ryd( 3p)     0.00143       0.84144
     9    C    1  pz     Val( 2p)     0.62433      -0.18791
    10    C    1  pz     Ryd( 3p)     0.00231       0.75413
    11    C    1  dxy    Ryd( 4d)     0.00056       2.02083
    12    C    1  dxy    Ryd( 3d)     0.00014       1.00239
    13    C    1  dxz    Ryd( 4d)     0.00089       1.73621
    14    C    1  dxz    Ryd( 3d)     0.00013       0.94965
    15    C    1  dyz    Ryd( 4d)     0.00031       1.63129
    16    C    1  dyz    Ryd( 3d)     0.00019       1.11104
    17    C    1  dx2y2  Ryd( 4d)     0.00169       2.06201
    18    C    1  dx2y2  Ryd( 3d)     0.00004       0.81814
    19    C    1  dz2    Ryd( 4d)     0.00071       1.61516
    20    C    1  dz2    Ryd( 3d)     0.00005       0.89910
 
    21    S    2  S      Cor( 1S)     1.00000     -88.43256
    22    S    2  S      Cor( 2S)     0.99956      -8.57235
    23    S    2  S      Val( 3S)     0.75948      -0.75527
    24    S    2  S      Ryd( 5S)     0.00767       0.71565
    25    S    2  S      Ryd( 4S)     0.00020       0.35969
    26    S    2  px     Cor( 2p)     0.99984      -6.10105
    27    S    2  px     Val( 3p)     0.50789      -0.17034
    28    S    2  px     Ryd( 5p)     0.00429       0.90471
    29    S    2  px     Ryd( 4p)     0.00027       0.25685
    30    S    2  py     Cor( 2p)     0.99991      -6.10176
    31    S    2  py     Val( 3p)     0.59556      -0.23977
    32    S    2  py     Ryd( 5p)     0.00242       0.85826
    33    S    2  py     Ryd( 4p)     0.00004       0.29423
    34    S    2  pz     Cor( 2p)     0.99991      -6.10369
    35    S    2  pz     Val( 3p)     0.59448      -0.26168
    36    S    2  pz     Ryd( 5p)     0.00126       0.82598
    37    S    2  pz     Ryd( 4p)     0.00004       0.27880
    38    S    2  dxy    Ryd( 4d)     0.00690       0.95683
    39    S    2  dxy    Ryd( 3d)     0.00006       0.70900
    40    S    2  dxz    Ryd( 4d)     0.00994       0.85155
    41    S    2  dxz    Ryd( 3d)     0.00004       0.66166
    42    S    2  dyz    Ryd( 4d)     0.00407       0.82153
    43    S    2  dyz    Ryd( 3d)     0.00009       0.66450
    44    S    2  dx2y2  Ryd( 4d)     0.01011       1.04539
    45    S    2  dx2y2  Ryd( 3d)     0.00009       0.74703
    46    S    2  dz2    Ryd( 4d)     0.00648       0.80741
    47    S    2  dz2    Ryd( 3d)     0.00006       0.66329
 
    48    N    3  S      Cor( 1S)     0.99985     -14.31092
    49    N    3  S      Val( 2S)     0.79402      -0.69694
    50    N    3  S      Ryd( 4S)     0.00156       1.18421
    51    N    3  S      Ryd( 3S)     0.00005       1.10557
    52    N    3  px     Val( 2p)     0.81862      -0.29722
    53    N    3  px     Ryd( 3p)     0.00142       1.04467
    54    N    3  py     Val( 2p)     0.66470      -0.25732
    55    N    3  py     Ryd( 3p)     0.00201       1.15260
    56    N    3  pz     Val( 2p)     0.72111      -0.26494
    57    N    3  pz     Ryd( 3p)     0.00153       1.04833
    58    N    3  dxy    Ryd( 3d)     0.00392       1.72497
    59    N    3  dxy    Ryd( 4d)     0.00014       1.79426
    60    N    3  dxz    Ryd( 3d)     0.00333       1.35798
    61    N    3  dxz    Ryd( 4d)     0.00007       1.86935
    62    N    3  dyz    Ryd( 3d)     0.00193       1.47556
    63    N    3  dyz    Ryd( 4d)     0.00015       1.84242
    64    N    3  dx2y2  Ryd( 3d)     0.00313       1.37150
    65    N    3  dx2y2  Ryd( 4d)     0.00009       1.76686
    66    N    3  dz2    Ryd( 3d)     0.00223       1.25518
    67    N    3  dz2    Ryd( 4d)     0.00011       1.85115
 
    68    H    4  S      Val( 1S)     0.37120       0.05123
    69    H    4  S      Ryd( 2S)     0.00051       0.49021
    70    H    4  px     Ryd( 2p)     0.00128       0.70738
    71    H    4  px     Ryd( 3p)     0.00015       1.84537
    72    H    4  py     Ryd( 2p)     0.00044       0.79800
    73    H    4  py     Ryd( 3p)     0.00014       1.84596
    74    H    4  pz     Ryd( 2p)     0.00023       0.69576
    75    H    4  pz     Ryd( 3p)     0.00010       1.73364
 
    76    H    5  S      Val( 1S)     0.37843       0.04847
    77    H    5  S      Ryd( 2S)     0.00058       0.54387
    78    H    5  px     Ryd( 2p)     0.00113       0.67012
    79    H    5  px     Ryd( 3p)     0.00012       1.95522
    80    H    5  py     Ryd( 2p)     0.00047       0.64353
    81    H    5  py     Ryd( 3p)     0.00017       2.02124
    82    H    5  pz     Ryd( 2p)     0.00030       0.58149
    83    H    5  pz     Ryd( 3p)     0.00014       1.86580
 
    84    H    6  S      Val( 1S)     0.30977       0.10111
    85    H    6  S      Ryd( 2S)     0.00069       0.58977
    86    H    6  px     Ryd( 2p)     0.00112       1.27344
    87    H    6  px     Ryd( 3p)     0.00010       1.58343
    88    H    6  py     Ryd( 2p)     0.00072       1.26850
    89    H    6  py     Ryd( 3p)     0.00018       1.47139
    90    H    6  pz     Ryd( 2p)     0.00080       1.12875
    91    H    6  pz     Ryd( 3p)     0.00009       1.45044

 WARNING:  Population inversion found on atom  C    1
           Population inversion found on atom  S    2
           Population inversion found on atom  N    3


 Summary of Natural Population Analysis:                  
                                                          
                                       Natural Population 
                Natural  -----------------------------------------------
    Atom  No    Charge         Core      Valence    Rydberg      Total
 -----------------------------------------------------------------------
      C    1   -0.40049      0.99977     2.38854    0.01218     3.40049
      S    2    0.48934      4.99922     2.45741    0.05403     7.51066
      N    3   -0.51999      0.99985     2.99845    0.02169     4.01999
      H    4    0.12595      0.00000     0.37120    0.00285     0.37405
      H    5    0.11866      0.00000     0.37843    0.00291     0.38134
      H    6    0.18653      0.00000     0.30977    0.00370     0.31347
 =======================================================================
   * Total *   -0.00000      6.99883     8.90381    0.09736    16.00000

                                 Natural Population      
 --------------------------------------------------------
   Core                       6.99883 ( 99.9833% of   7)
   Valence                    8.90381 ( 98.9312% of   9)
   Natural Minimal Basis     15.90264 ( 99.3915% of  16)
   Natural Rydberg Basis      0.09736 (  0.6085% of  16)
 --------------------------------------------------------

    Atom  No          Natural Electron Configuration
 ----------------------------------------------------------------------------
      C    1      [core]2S( 0.59)2p( 1.80)3p( 0.01)
      S    2      [core]3S( 0.76)3p( 1.70)5S( 0.01)4d( 0.04)5p( 0.01)
      N    3      [core]2S( 0.79)2p( 2.20)3d( 0.01)
      H    4            1S( 0.37)
      H    5            1S( 0.38)
      H    6            1S( 0.31)


 NBO analysis skipped by request.
 Leave Link  607 at Tue Jan  3 09:07:49 2023, MaxMem=   536870912 cpu:               3.7 elap:               1.8
 (Enter /opt/software/gaussian/g16.c01/l701.exe)
 ... and contract with generalized density number  0.
 Compute integral first derivatives.
 R6Disp: Adding Grimme-D2 dispersion energy 1st derivatives to the gradient.
 Leave Link  701 at Tue Jan  3 09:07:49 2023, MaxMem=   536870912 cpu:               0.3 elap:               0.1
 (Enter /opt/software/gaussian/g16.c01/l702.exe)
 L702 exits ... SP integral derivatives will be done elsewhere.
 Leave Link  702 at Tue Jan  3 09:07:50 2023, MaxMem=   536870912 cpu:               0.1 elap:               0.0
 (Enter /opt/software/gaussian/g16.c01/l703.exe)
 Integral derivatives from FoFJK, PRISM(SPDF).
 Compute integral first derivatives, UseDBF=F ICtDFT=           0.
 Calling FoFJK, ICntrl=      2127 FMM=F ISym2X=0 I1Cent= 0 IOpClX= 1 NMat=1 NMatS=1 NMatT=0.
 FoFJK:  IHMeth= 1 ICntrl=    2127 DoSepK=T KAlg= 0 I1Cent=           0 FoldK=F
 IRaf=         1 NMat=       1 IRICut=       1 DoRegI=T DoRafI=F ISym2E= 0 IDoP0=0 IntGTp=1.
 FoFCou: FMM=F IPFlag=           0 FMFlag=      100000 FMFlg1=         800
         NFxFlg=           0 DoJE=F BraDBF=F KetDBF=F FulRan=T
         wScrn=  0.000000 ICntrl=      2527 IOpCl=  0 I1Cent=           0 NGrid=           0
         NMat0=    1 NMatS0=      1 NMatT0=    0 NMatD0=    1 NMtDS0=    0 NMtDT0=    0
 Symmetry not used in FoFCou.
 Leave Link  703 at Tue Jan  3 09:07:52 2023, MaxMem=   536870912 cpu:               5.7 elap:               2.9
 (Enter /opt/software/gaussian/g16.c01/l716.exe)
 Dipole        =-1.05025732D+00-9.20133643D-02-3.55840282D-02
 -------------------------------------------------------------------
 Center     Atomic                   Forces (Hartrees/Bohr)
 Number     Number              X              Y              Z
 -------------------------------------------------------------------
      1        6           0.000001184   -0.000000504    0.000000003
      2       16          -0.000001795   -0.000002235    0.000000385
      3        7           0.000000427    0.000001719    0.000001238
      4        1           0.000000200   -0.000000865    0.000001095
      5        1           0.000000052    0.000000806   -0.000001472
      6        1          -0.000000068    0.000001080   -0.000001248
 -------------------------------------------------------------------
 Cartesian Forces:  Max     0.000002235 RMS     0.000001111
 Z-matrix is all fixed cartesians, so copy forces.
 Force constants in Cartesian coordinates: 
                1             2             3             4             5 
      1  0.814685D+00
      2 -0.103178D-01  0.489891D+00
      3 -0.236660D-01  0.249297D+00  0.279166D+00
      4 -0.473219D+00  0.285194D-01  0.292131D-01  0.664394D+00
      5  0.961866D-02 -0.824860D-01 -0.267353D-01  0.176381D+00  0.396780D+00
      6  0.167037D-01 -0.271885D-01 -0.608333D-01  0.101780D+00  0.230703D+00
      7 -0.980132D-03 -0.200337D-01 -0.128629D-01 -0.210895D+00 -0.175482D+00
      8  0.308076D-03  0.143332D-01 -0.733807D-03 -0.217229D+00 -0.336130D+00
      9  0.597737D-03 -0.245367D-03  0.152527D-01 -0.139479D+00 -0.196571D+00
     10 -0.163349D+00 -0.915366D-01 -0.575233D-01 -0.926052D-03 -0.186700D-01
     11 -0.836129D-01 -0.214907D+00 -0.116374D+00  0.389598D-03  0.844345D-02
     12 -0.522783D-01 -0.116182D+00 -0.111677D+00  0.307294D-03  0.528464D-02
     13 -0.177134D+00  0.932947D-01  0.649511D-01  0.905791D-03  0.178651D-01
     14  0.839304D-01 -0.204801D+00 -0.108521D+00  0.246077D-03  0.152696D-01
     15  0.587541D-01 -0.108748D+00 -0.117275D+00  0.611040D-03 -0.327945D-02
     16 -0.268673D-05  0.740782D-04 -0.111937D-03  0.197412D-01 -0.971277D-02
     17  0.736242D-04 -0.202996D-02  0.306739D-02  0.116927D-01 -0.187726D-02
     18 -0.111233D-03  0.306689D-02 -0.463426D-02  0.756733D-02 -0.940153D-02
                6             7             8             9            10 
      6  0.192015D+00
      7 -0.111851D+00  0.406134D+00
      8 -0.195565D+00  0.534271D-01  0.531518D+00
      9 -0.159476D+00  0.263756D-01  0.328043D+00  0.250445D+00
     10 -0.123067D-01  0.228968D-05 -0.631307D-04  0.953945D-04  0.135830D+00
     11  0.482750D-02 -0.631368D-04  0.174080D-02 -0.263045D-02  0.957457D-01
     12  0.462508D-02  0.953981D-04 -0.263030D-02  0.397455D-02  0.605513D-01
     13  0.122731D-01 -0.247110D-05  0.681327D-04 -0.102953D-03  0.284430D-01
     14 -0.285735D-02  0.681506D-04 -0.187904D-02  0.283934D-02  0.145241D-01
     15  0.173925D-01 -0.102963D-03  0.283889D-02 -0.428974D-02  0.918329D-02
     16 -0.659932D-02 -0.194258D+00  0.163489D+00  0.112513D+00  0.000000D+00
     17 -0.991929D-02  0.142084D+00 -0.209584D+00 -0.131436D+00  0.000000D+00
     18  0.627668D-02  0.983460D-01 -0.131953D+00 -0.105907D+00  0.000000D+00
               11            12            13            14            15 
     11  0.207851D+00
     12  0.122960D+00  0.985155D-01
     13 -0.124593D-01 -0.867575D-02  0.147787D+00
     14 -0.312790D-02 -0.943229D-02 -0.987686D-01  0.194538D+00
     15 -0.878307D-02  0.456134D-02 -0.684455D-01  0.117972D+00  0.996107D-01
     16  0.000000D+00  0.000000D+00  0.000000D+00  0.000000D+00  0.000000D+00
     17  0.000000D+00  0.000000D+00  0.000000D+00  0.000000D+00  0.000000D+00
     18  0.000000D+00  0.000000D+00  0.000000D+00  0.000000D+00  0.000000D+00
               16            17            18 
     16  0.174519D+00
     17 -0.153850D+00  0.213491D+00
     18 -0.105802D+00  0.138288D+00  0.104265D+00
 Leave Link  716 at Tue Jan  3 09:07:52 2023, MaxMem=   536870912 cpu:               0.1 elap:               0.0
 (Enter /opt/software/gaussian/g16.c01/l103.exe)

 GradGradGradGradGradGradGradGradGradGradGradGradGradGradGradGradGradGrad
 Berny optimization.
 Search for a local minimum.
 Step number   1 out of a maximum of    2
 All quantities printed in internal units (Hartrees-Bohrs-Radians)
 Second derivative matrix not updated -- first step.
 The second derivative matrix:
                          X1        Y1        Z1        X2        Y2
           X1           0.81469
           Y1          -0.01032   0.48989
           Z1          -0.02367   0.24930   0.27917
           X2          -0.47322   0.02852   0.02921   0.66439
           Y2           0.00962  -0.08249  -0.02674   0.17638   0.39678
           Z2           0.01670  -0.02719  -0.06083   0.10178   0.23070
           X3          -0.00098  -0.02003  -0.01286  -0.21090  -0.17548
           Y3           0.00031   0.01433  -0.00073  -0.21723  -0.33613
           Z3           0.00060  -0.00025   0.01525  -0.13948  -0.19657
           X4          -0.16335  -0.09154  -0.05752  -0.00093  -0.01867
           Y4          -0.08361  -0.21491  -0.11637   0.00039   0.00844
           Z4          -0.05228  -0.11618  -0.11168   0.00031   0.00528
           X5          -0.17713   0.09329   0.06495   0.00091   0.01787
           Y5           0.08393  -0.20480  -0.10852   0.00025   0.01527
           Z5           0.05875  -0.10875  -0.11727   0.00061  -0.00328
           X6          -0.00000   0.00007  -0.00011   0.01974  -0.00971
           Y6           0.00007  -0.00203   0.00307   0.01169  -0.00188
           Z6          -0.00011   0.00307  -0.00463   0.00757  -0.00940
                          Z2        X3        Y3        Z3        X4
           Z2           0.19201
           X3          -0.11185   0.40613
           Y3          -0.19556   0.05343   0.53152
           Z3          -0.15948   0.02638   0.32804   0.25045
           X4          -0.01231   0.00000  -0.00006   0.00010   0.13583
           Y4           0.00483  -0.00006   0.00174  -0.00263   0.09575
           Z4           0.00463   0.00010  -0.00263   0.00397   0.06055
           X5           0.01227  -0.00000   0.00007  -0.00010   0.02844
           Y5          -0.00286   0.00007  -0.00188   0.00284   0.01452
           Z5           0.01739  -0.00010   0.00284  -0.00429   0.00918
           X6          -0.00660  -0.19426   0.16349   0.11251   0.00000
           Y6          -0.00992   0.14208  -0.20958  -0.13144   0.00000
           Z6           0.00628   0.09835  -0.13195  -0.10591   0.00000
                          Y4        Z4        X5        Y5        Z5
           Y4           0.20785
           Z4           0.12296   0.09852
           X5          -0.01246  -0.00868   0.14779
           Y5          -0.00313  -0.00943  -0.09877   0.19454
           Z5          -0.00878   0.00456  -0.06845   0.11797   0.09961
           X6           0.00000   0.00000   0.00000   0.00000   0.00000
           Y6           0.00000   0.00000   0.00000   0.00000   0.00000
           Z6           0.00000   0.00000   0.00000   0.00000   0.00000
                          X6        Y6        Z6
           X6           0.17452
           Y6          -0.15385   0.21349
           Z6          -0.10580   0.13829   0.10426
 ITU=  0
     Eigenvalues ---    0.01003   0.01738   0.04698   0.06571   0.11631
     Eigenvalues ---    0.13625   0.18094   0.33456   0.69321   0.85789
     Eigenvalues ---    1.12959   1.46007
 Angle between quadratic step and forces=  73.76 degrees.
 Linear search not attempted -- first point.
 B after Tr=    -0.000001    0.000001   -0.000002
         Rot=    1.000000   -0.000003   -0.000001   -0.000001 Ang=  -0.00 deg.
 Variable       Old X    -DE/DX   Delta X   Delta X   Delta X     New X
                                 (Linear)    (Quad)   (Total)
    X1        1.67863   0.00000   0.00000   0.00000   0.00000   1.67863
    Y1        0.26878  -0.00000   0.00000   0.00000   0.00000   0.26879
    Z1        0.20584   0.00000   0.00000  -0.00000  -0.00001   0.20583
    X2        4.73702  -0.00000   0.00000  -0.00000  -0.00000   4.73702
    Y2        0.19685  -0.00000   0.00000   0.00001   0.00001   0.19687
    Z2        0.08483   0.00000   0.00000  -0.00001  -0.00003   0.08480
    X3        6.24222   0.00000   0.00000  -0.00000  -0.00000   6.24222
    Y3        2.32417   0.00000   0.00000  -0.00000  -0.00000   2.32417
    Z3        1.45653   0.00000   0.00000   0.00001   0.00000   1.45653
    X4        0.70917   0.00000   0.00000   0.00000  -0.00000   0.70916
    Y4       -1.25730  -0.00000   0.00000  -0.00003  -0.00002  -1.25732
    Z4       -0.78089   0.00000   0.00000   0.00004   0.00003  -0.78086
    X5        0.61279   0.00000   0.00000   0.00000   0.00000   0.61280
    Y5        1.72884   0.00000   0.00000   0.00002   0.00001   1.72886
    Z5        1.19782  -0.00000   0.00000  -0.00003  -0.00002   1.19780
    X6        5.12842  -0.00000   0.00000   0.00000   0.00000   5.12842
    Y6        3.62850   0.00000   0.00000  -0.00001  -0.00001   3.62849
    Z6        2.34676  -0.00000   0.00000   0.00002   0.00002   2.34678
         Item               Value     Threshold  Converged?
 Maximum Force            0.000002     0.000450     YES
 RMS     Force            0.000001     0.000300     YES
 Maximum Displacement     0.000029     0.001800     YES
 RMS     Displacement     0.000014     0.001200     YES
 Predicted change in Energy=-2.593656D-11
 Optimization completed.
    -- Stationary point found.
 GradGradGradGradGradGradGradGradGradGradGradGradGradGradGradGradGradGrad

 Leave Link  103 at Tue Jan  3 09:07:52 2023, MaxMem=   536870912 cpu:               0.0 elap:               0.0
 (Enter /opt/software/gaussian/g16.c01/l9999.exe)
 Unable to Open any file for archive entry.
 1\1\GINC-GRA1085\Force\UwB97XD\Gen\C1H3N1S1\BHAVUK\03-Jan-2023\0\\#p u
 wb97xd/chkbasis force guess=read geom=check scf=(maxcycle=900,verytigh
 tlineq,xqc) integral=grid=ultrafine symmetry=None density=current pop=
 (cm5,hlygat,mbs,npa) output=wfx\\0004_q000_m01_k00_opt_uwb97xd_def2svp
 d/0004_q000_m01_k00_force_uwb97xd_def2svpd stable-force\\0,1\C,0.88829
 35141,0.1422345627,0.1089263123\S,2.5067242222,0.1041696479,0.04488952
 92\N,3.3032398974,1.2298974173,0.7707622237\H,0.3752741579,-0.66533441
 73,-0.4132293362\H,0.3242760911,0.9148647349,0.6338600998\H,2.71384211
 88,1.9201180545,1.2418511706\\Version=ES64L-G16RevC.01\HF=-492.5437093
 \S2=0.\S2-1=0.\S2A=0.\RMSD=8.812e-10\RMSF=1.111e-06\Dipole=-1.0502573,
 -0.0920134,-0.035584\Quadrupole=-6.9869199,4.0434497,2.9434702,-2.3119
 717,-1.3862283,1.4201352\PG=Unknown\\@
 The archive entry for this job was punched.

 Writing a WFNX file to "0004_q000_m01_k00_force_uwb97xd_def2svpd.wfx"


 ... IT IS NO ONE DREAME THAT
     CAN PLEASE THESE ALL ...

                -- BEN JONSON
 Job cpu time:       0 days  0 hours  0 minutes 16.3 seconds.
 Elapsed time:       0 days  0 hours  0 minutes  7.9 seconds.
 File lengths (MBytes):  RWF=     10 Int=      0 D2E=      0 Chk=      2 Scr=      1
 Normal termination of Gaussian 16 at Tue Jan  3 09:07:53 2023.
