 Entering Gaussian System, Link 0=g16
 Input=0005_q000_m01_k00_force_uwb97xd_def2svp.com
 Output=0005_q000_m01_k00_force_uwb97xd_def2svp.log
 Initial command:
 /opt/software/gaussian/g16.c01/l1.exe "/localscratch/bhavuk.2151424.0/Gau-20154.inp" -scrdir="/localscratch/bhavuk.2151424.0/"
 Entering Link 1 = /opt/software/gaussian/g16.c01/l1.exe PID=     20155.
  
 Copyright (c) 1988-2019, Gaussian, Inc.  All Rights Reserved.
  
 This is part of the Gaussian(R) 16 program.  It is based on
 the Gaussian(R) 09 system (copyright 2009, Gaussian, Inc.),
 the Gaussian(R) 03 system (copyright 2003, Gaussian, Inc.),
 the Gaussian(R) 98 system (copyright 1998, Gaussian, Inc.),
 the Gaussian(R) 94 system (copyright 1995, Gaussian, Inc.),
 the Gaussian 92(TM) system (copyright 1992, Gaussian, Inc.),
 the Gaussian 90(TM) system (copyright 1990, Gaussian, Inc.),
 the Gaussian 88(TM) system (copyright 1988, Gaussian, Inc.),
 the Gaussian 86(TM) system (copyright 1986, Carnegie Mellon
 University), and the Gaussian 82(TM) system (copyright 1983,
 Carnegie Mellon University). Gaussian is a federally registered
 trademark of Gaussian, Inc.
  
 This software contains proprietary and confidential information,
 including trade secrets, belonging to Gaussian, Inc.
  
 This software is provided under written license and may be
 used, copied, transmitted, or stored only in accord with that
 written license.
  
 The following legend is applicable only to US Government
 contracts under FAR:
  
                    RESTRICTED RIGHTS LEGEND
  
 Use, reproduction and disclosure by the US Government is
 subject to restrictions as set forth in subparagraphs (a)
 and (c) of the Commercial Computer Software - Restricted
 Rights clause in FAR 52.227-19.
  
 Gaussian, Inc.
 340 Quinnipiac St., Bldg. 40, Wallingford CT 06492
  
  
 ---------------------------------------------------------------
 Warning -- This program may not be used in any manner that
 competes with the business of Gaussian, Inc. or will provide
 assistance to any competitor of Gaussian, Inc.  The licensee
 of this program is prohibited from giving any competitor of
 Gaussian, Inc. access to this program.  By using this program,
 the user acknowledges that Gaussian, Inc. is engaged in the
 business of creating and licensing software in the field of
 computational chemistry and represents and warrants to the
 licensee that it is not a competitor of Gaussian, Inc. and that
 it will not use this program in any manner prohibited above.
 ---------------------------------------------------------------
  

 Cite this work as:
 Gaussian 16, Revision C.01,
 M. J. Frisch, G. W. Trucks, H. B. Schlegel, G. E. Scuseria, 
 M. A. Robb, J. R. Cheeseman, G. Scalmani, V. Barone, 
 G. A. Petersson, H. Nakatsuji, X. Li, M. Caricato, A. V. Marenich, 
 J. Bloino, B. G. Janesko, R. Gomperts, B. Mennucci, H. P. Hratchian, 
 J. V. Ortiz, A. F. Izmaylov, J. L. Sonnenberg, D. Williams-Young, 
 F. Ding, F. Lipparini, F. Egidi, J. Goings, B. Peng, A. Petrone, 
 T. Henderson, D. Ranasinghe, V. G. Zakrzewski, J. Gao, N. Rega, 
 G. Zheng, W. Liang, M. Hada, M. Ehara, K. Toyota, R. Fukuda, 
 J. Hasegawa, M. Ishida, T. Nakajima, Y. Honda, O. Kitao, H. Nakai, 
 T. Vreven, K. Throssell, J. A. Montgomery, Jr., J. E. Peralta, 
 F. Ogliaro, M. J. Bearpark, J. J. Heyd, E. N. Brothers, K. N. Kudin, 
 V. N. Staroverov, T. A. Keith, R. Kobayashi, J. Normand, 
 K. Raghavachari, A. P. Rendell, J. C. Burant, S. S. Iyengar, 
 J. Tomasi, M. Cossi, J. M. Millam, M. Klene, C. Adamo, R. Cammi, 
 J. W. Ochterski, R. L. Martin, K. Morokuma, O. Farkas, 
 J. B. Foresman, and D. J. Fox, Gaussian, Inc., Wallingford CT, 2019.
 
 ******************************************
 Gaussian 16:  ES64L-G16RevC.01  3-Jul-2019
                 3-Jan-2023 
 ******************************************
 %chk=0005_q000_m01_k00_force_uwb97xd_def2svp.chk
 %nprocshared=2
 Will use up to    2 processors via shared memory.
 %mem=4GB
 ----------------------------------------------------------------------
 #p uwb97xd/gen stable=opt scf=(maxcycle=900,verytightlineq,xqc) integr
 al=grid=ultrafine symmetry=None density=current iop(99/18=-1) output=w
 fn
 ----------------------------------------------------------------------
 1/38=1,172=1/1;
 2/12=2,15=3,17=6,18=5,40=1/2;
 3/5=7,11=2,25=1,30=1,74=-58,75=-5,116=2/1,2,3;
 4//1;
 5/5=2,7=900,8=3,13=1,17=3,38=5/2,8;
 6/7=2,8=2,9=2,10=2,22=-1,28=1/1;
 8/6=1,10=90,11=11/1;
 9/8=-3,42=1,46=1/14;
 5/5=2,7=900,8=3,17=43,38=5/8(-2);
 6/7=2,8=2,9=2,10=2,22=-1,28=1/1;
 99/5=1,6=100,9=1,18=-1/99;
 Leave Link    1 at Tue Jan  3 09:07:44 2023, MaxMem=   536870912 cpu:               0.1 elap:               0.1
 (Enter /opt/software/gaussian/g16.c01/l101.exe)
 ----------------------------------------------------------------------
 0005_q000_m01_k00_opt_uwb97xd_def2svpd/0005_q000_m01_k00_force_uwb97xd
 _def2svp stable-force
 ----------------------------------------------------------------------
 Symbolic Z-matrix:
 Charge =  0 Multiplicity = 1
 C                     0.97702  -0.0198   -0.10083 
 S                     2.588    -0.03457  -0.12644 
 O                     3.17124  -0.71431  -1.31649 
 H                     0.51807   0.47159   0.7589 
 H                     0.3708   -0.4702   -0.88905 
 
 ITRead=  0  0  0  0  0
 MicOpt= -1 -1 -1 -1 -1
 NAtoms=      5 NQM=        5 NQMF=       0 NMMI=      0 NMMIF=      0
                NMic=       0 NMicF=      0.
                    Isotopes and Nuclear Properties:
 (Nuclear quadrupole moments (NQMom) in fm**2, nuclear magnetic moments (NMagM)
  in nuclear magnetons)

  Atom         1           2           3           4           5
 IAtWgt=          12          32          16           1           1
 AtmWgt=  12.0000000  31.9720718  15.9949146   1.0078250   1.0078250
 NucSpn=           0           0           0           1           1
 AtZEff=  -0.0000000  -0.0000000  -0.0000000  -0.0000000  -0.0000000
 NQMom=    0.0000000   0.0000000   0.0000000   0.0000000   0.0000000
 NMagM=    0.0000000   0.0000000   0.0000000   2.7928460   2.7928460
 AtZNuc=   6.0000000  16.0000000   8.0000000   1.0000000   1.0000000
 Leave Link  101 at Tue Jan  3 09:07:44 2023, MaxMem=   536870912 cpu:               0.5 elap:               0.2
 (Enter /opt/software/gaussian/g16.c01/l202.exe)
                          Input orientation:                          
 ---------------------------------------------------------------------
 Center     Atomic      Atomic             Coordinates (Angstroms)
 Number     Number       Type             X           Y           Z
 ---------------------------------------------------------------------
      1          6           0        0.977025   -0.019796   -0.100827
      2         16           0        2.588002   -0.034566   -0.126439
      3          8           0        3.171240   -0.714312   -1.316494
      4          1           0        0.518072    0.471588    0.758898
      5          1           0        0.370802   -0.470204   -0.889047
 ---------------------------------------------------------------------
                    Distance matrix (angstroms):
                    1          2          3          4          5
     1  C    0.000000
     2  S    1.611249   0.000000
     3  O    2.602840   1.489446   0.000000
     4  H    1.091432   2.307515   3.571121   0.000000
     5  H    1.091634   2.384812   2.843370   1.903781   0.000000
 Symmetry turned off by external request.
 Stoichiometry    CH2OS
 Rotational constants (GHZ):          39.0370487           9.3459813           7.5406507
 Leave Link  202 at Tue Jan  3 09:07:44 2023, MaxMem=   536870912 cpu:               0.0 elap:               0.0
 (Enter /opt/software/gaussian/g16.c01/l301.exe)
 General basis read from cards:  (5D, 7F)
 Centers:       4      5
 S 3 1.00
     Exponent=  1.3010701000D+01 Coefficients=  1.9682158000D-02
     Exponent=  1.9622572000D+00 Coefficients=  1.3796524000D-01
     Exponent=  4.4453796000D-01 Coefficients=  4.7831935000D-01
 S 1 1.00
     Exponent=  1.2194962000D-01 Coefficients=  1.0000000000D+00
 P 1 1.00
     Exponent=  8.0000000000D-01 Coefficients=  1.0000000000D+00
 ****
 Centers:       1
 S 5 1.00
     Exponent=  1.2384016938D+03 Coefficients=  5.4568832082D-03
     Exponent=  1.8629004992D+02 Coefficients=  4.0638409211D-02
     Exponent=  4.2251176346D+01 Coefficients=  1.8025593888D-01
     Exponent=  1.1676557932D+01 Coefficients=  4.6315121755D-01
     Exponent=  3.5930506482D+00 Coefficients=  4.4087173314D-01
 S 1 1.00
     Exponent=  4.0245147363D-01 Coefficients=  1.0000000000D+00
 S 1 1.00
     Exponent=  1.3090182668D-01 Coefficients=  1.0000000000D+00
 P 3 1.00
     Exponent=  9.4680970621D+00 Coefficients=  3.8387871728D-02
     Exponent=  2.0103545142D+00 Coefficients=  2.1117025112D-01
     Exponent=  5.4771004707D-01 Coefficients=  5.1328172114D-01
 P 1 1.00
     Exponent=  1.5268613795D-01 Coefficients=  1.0000000000D+00
 D 1 1.00
     Exponent=  8.0000000000D-01 Coefficients=  1.0000000000D+00
 ****
 Centers:       3
 S 5 1.00
     Exponent=  2.2661767785D+03 Coefficients= -5.3431809926D-03
     Exponent=  3.4087010191D+02 Coefficients= -3.9890039230D-02
     Exponent=  7.7363135167D+01 Coefficients= -1.7853911985D-01
     Exponent=  2.1479644940D+01 Coefficients= -4.6427684959D-01
     Exponent=  6.6589433124D+00 Coefficients= -4.4309745172D-01
 S 1 1.00
     Exponent=  8.0975975668D-01 Coefficients=  1.0000000000D+00
 S 1 1.00
     Exponent=  2.5530772234D-01 Coefficients=  1.0000000000D+00
 P 3 1.00
     Exponent=  1.7721504317D+01 Coefficients=  4.3394573193D-02
     Exponent=  3.8635505440D+00 Coefficients=  2.3094120765D-01
     Exponent=  1.0480920883D+00 Coefficients=  5.1375311064D-01
 P 1 1.00
     Exponent=  2.7641544411D-01 Coefficients=  1.0000000000D+00
 D 1 1.00
     Exponent=  1.2000000000D+00 Coefficients=  1.0000000000D+00
 ****
 Centers:       2
 S 5 1.00
     Exponent=  9.1849303010D+03 Coefficients= -2.2294387756D-03
     Exponent=  1.3815105503D+03 Coefficients= -1.6683029937D-02
     Exponent=  3.1387147580D+02 Coefficients= -7.5262436116D-02
     Exponent=  8.8053870623D+01 Coefficients= -1.9376827038D-01
     Exponent=  2.7039914905D+01 Coefficients= -1.7718020803D-01
 S 3 1.00
     Exponent=  4.5648731303D+01 Coefficients= -1.0736062573D-01
     Exponent=  4.9664522326D+00 Coefficients=  6.5066293018D-01
     Exponent=  2.0116242047D+00 Coefficients=  5.9712155354D-01
 S 1 1.00
     Exponent=  3.5661077013D-01 Coefficients=  1.0000000000D+00
 S 1 1.00
     Exponent=  1.3507221477D-01 Coefficients=  1.0000000000D+00
 P 5 1.00
     Exponent=  2.6198233439D+02 Coefficients= -9.2729929822D-03
     Exponent=  6.1306894736D+01 Coefficients= -6.6547669241D-02
     Exponent=  1.9103729887D+01 Coefficients= -2.4828595903D-01
     Exponent=  6.6567720378D+00 Coefficients= -4.8703847402D-01
     Exponent=  2.3959635161D+00 Coefficients= -3.9337850312D-01
 P 1 1.00
     Exponent=  6.1776161679D-01 Coefficients=  1.0000000000D+00
 P 1 1.00
     Exponent=  1.6993376871D-01 Coefficients=  1.0000000000D+00
 D 1 1.00
     Exponent=  5.5000000000D-01 Coefficients=  1.0000000000D+00
 ****
 Ernie: Thresh=  0.10000D-02 Tol=  0.10000D-05 Strict=F.
    56 basis functions,   101 primitive gaussians,    59 cartesian basis functions
    16 alpha electrons       16 beta electrons
       nuclear repulsion energy       102.7536228800 Hartrees.
 IExCor= 4639 DFT=T Ex+Corr=wB97XD ExCW=0 ScaHFX=  1.000000
 ScaDFX=  1.000000  1.000000  1.000000  1.000000 ScalE2=  1.000000  1.000000
 IRadAn=      5 IRanWt=     -1 IRanGd=            0 ICorTp=0 IEmpDi=121
 HFx  wShort=  0.000000 wLong=  0.200000 cFull=  0.222036 cShort=  0.000000 cLong=  0.777964
 DFx  wShort=  0.000000 wLong=  0.200000 cFull=  0.000000 cShort=  0.000000 cLong=  1.000000
 NAtoms=    5 NActive=    5 NUniq=    5 SFac= 1.00D+00 NAtFMM=   60 NAOKFM=F Big=F
 Integral buffers will be    131072 words long.
 Raffenetti 2 integral format.
 Two-electron integral symmetry is turned off.
 R6Disp:  Grimme-D2 Dispersion energy=       -0.0005194017 Hartrees.
 Nuclear repulsion after empirical dispersion term =      102.7531034782 Hartrees.
 Leave Link  301 at Tue Jan  3 09:07:44 2023, MaxMem=   536870912 cpu:               0.1 elap:               0.1
 (Enter /opt/software/gaussian/g16.c01/l302.exe)
 NPDir=0 NMtPBC=     1 NCelOv=     1 NCel=       1 NClECP=     1 NCelD=      1
         NCelK=      1 NCelE2=     1 NClLst=     1 CellRange=     0.0.
 One-electron integrals computed using PRISM.
 NBasis=    56 RedAO= T EigKep=  8.61D-03  NBF=    56
 NBsUse=    56 1.00D-06 EigRej= -1.00D+00 NBFU=    56
 Precomputing XC quadrature grid using
 IXCGrd= 4 IRadAn=           5 IRanWt=          -1 IRanGd=           0 AccXCQ= 0.00D+00.
 Generated NRdTot=       0 NPtTot=           0 NUsed=           0 NTot=          32
 NSgBfM=    59    59    59    59    59 MxSgAt=     5 MxSgA2=     5.
 Leave Link  302 at Tue Jan  3 09:07:44 2023, MaxMem=   536870912 cpu:               0.3 elap:               0.1
 (Enter /opt/software/gaussian/g16.c01/l303.exe)
 DipDrv:  MaxL=1.
 Leave Link  303 at Tue Jan  3 09:07:44 2023, MaxMem=   536870912 cpu:               0.1 elap:               0.0
 (Enter /opt/software/gaussian/g16.c01/l401.exe)
 ExpMin= 1.22D-01 ExpMax= 9.18D+03 ExpMxC= 1.38D+03 IAcc=3 IRadAn=         5 AccDes= 0.00D+00
 Harris functional with IExCor= 4639 and IRadAn=       5 diagonalized for initial guess.
 HarFok:  IExCor= 4639 AccDes= 0.00D+00 IRadAn=         5 IDoV= 1 UseB2=F ITyADJ=14
 ICtDFT=  3500011 ScaDFX=  1.000000  1.000000  1.000000  1.000000
 FoFCou: FMM=F IPFlag=           0 FMFlag=      100000 FMFlg1=           0
         NFxFlg=           0 DoJE=T BraDBF=F KetDBF=T FulRan=T
         wScrn=  0.000000 ICntrl=       500 IOpCl=  0 I1Cent=   200000004 NGrid=           0
         NMat0=    1 NMatS0=      1 NMatT0=    0 NMatD0=    1 NMtDS0=    0 NMtDT0=    0
 Symmetry not used in FoFCou.
 Harris En= -501.048211094811    
 JPrj=0 DoOrth=F DoCkMO=F.
 Initial guess <Sx>= 0.0000 <Sy>= 0.0000 <Sz>= 0.0000 <S**2>= 0.0000 S= 0.0000
 Leave Link  401 at Tue Jan  3 09:07:45 2023, MaxMem=   536870912 cpu:               0.8 elap:               0.4
 (Enter /opt/software/gaussian/g16.c01/l502.exe)
 Keep R1 and R2 ints in memory in canonical form, NReq=6952907.
 FoFCou: FMM=F IPFlag=           0 FMFlag=           0 FMFlg1=           0
         NFxFlg=           0 DoJE=F BraDBF=F KetDBF=F FulRan=T
         wScrn=  0.000000 ICntrl=       600 IOpCl=  0 I1Cent=           0 NGrid=           0
         NMat0=    1 NMatS0=   1596 NMatT0=    0 NMatD0=    1 NMtDS0=    0 NMtDT0=    0
 Symmetry not used in FoFCou.
 Two-electron integral symmetry not used.
 UHF open shell SCF:
 Using DIIS extrapolation, IDIIS=  1040.
 NGot=   536870912 LenX=   531765251 LenY=   531761329
 Requested convergence on RMS density matrix=1.00D-08 within 128 cycles.
 Requested convergence on MAX density matrix=1.00D-06.
 Requested convergence on             energy=1.00D-06.
 No special actions if energy rises.
 Integral accuracy reduced to 1.0D-05 until final iterations.

 Cycle   1  Pass 0  IDiag  1:
 E= -512.228026081821    
 DIIS: error= 8.35D-02 at cycle   1 NSaved=   1.
 NSaved= 1 IEnMin= 1 EnMin= -512.228026081821     IErMin= 1 ErrMin= 8.35D-02
 ErrMax= 8.35D-02  0.00D+00 EMaxC= 1.00D-01 BMatC= 1.04D+00 BMatP= 1.04D+00
 IDIUse=3 WtCom= 1.65D-01 WtEn= 8.35D-01
 Coeff-Com:  0.100D+01
 Coeff-En:   0.100D+01
 Coeff:      0.100D+01
 Gap=     0.355 Goal=   None    Shift=    0.000
 Gap=     0.355 Goal=   None    Shift=    0.000
 GapD=    0.355 DampG=1.000 DampE=0.500 DampFc=0.5000 IDamp=-1.
 Damping current iteration by 5.00D-01
 RMSDP=1.58D-02 MaxDP=3.40D-01              OVMax= 2.84D-01

 Cycle   2  Pass 0  IDiag  1:
 E= -512.306786931843     Delta-E=       -0.078760850022 Rises=F Damp=T
 DIIS: error= 2.74D-02 at cycle   2 NSaved=   2.
 NSaved= 2 IEnMin= 2 EnMin= -512.306786931843     IErMin= 2 ErrMin= 2.74D-02
 ErrMax= 2.74D-02  0.00D+00 EMaxC= 1.00D-01 BMatC= 1.08D-01 BMatP= 1.04D+00
 IDIUse=3 WtCom= 7.26D-01 WtEn= 2.74D-01
 Coeff-Com: -0.194D+00 0.119D+01
 Coeff-En:   0.000D+00 0.100D+01
 Coeff:     -0.141D+00 0.114D+01
 Gap=     0.305 Goal=   None    Shift=    0.000
 Gap=     0.305 Goal=   None    Shift=    0.000
 RMSDP=3.41D-03 MaxDP=5.19D-02 DE=-7.88D-02 OVMax= 1.87D-01

 Cycle   3  Pass 0  IDiag  1:
 E= -512.379762073526     Delta-E=       -0.072975141683 Rises=F Damp=F
 DIIS: error= 1.15D-02 at cycle   3 NSaved=   3.
 NSaved= 3 IEnMin= 3 EnMin= -512.379762073526     IErMin= 3 ErrMin= 1.15D-02
 ErrMax= 1.15D-02  0.00D+00 EMaxC= 1.00D-01 BMatC= 4.24D-02 BMatP= 1.08D-01
 IDIUse=3 WtCom= 8.85D-01 WtEn= 1.15D-01
 Coeff-Com: -0.157D+00 0.512D+00 0.645D+00
 Coeff-En:   0.000D+00 0.000D+00 0.100D+01
 Coeff:     -0.139D+00 0.453D+00 0.686D+00
 Gap=     0.358 Goal=   None    Shift=    0.000
 Gap=     0.358 Goal=   None    Shift=    0.000
 RMSDP=2.41D-03 MaxDP=3.71D-02 DE=-7.30D-02 OVMax= 7.92D-02

 Cycle   4  Pass 0  IDiag  1:
 E= -512.388246830672     Delta-E=       -0.008484757145 Rises=F Damp=F
 DIIS: error= 8.16D-03 at cycle   4 NSaved=   4.
 NSaved= 4 IEnMin= 4 EnMin= -512.388246830672     IErMin= 4 ErrMin= 8.16D-03
 ErrMax= 8.16D-03  0.00D+00 EMaxC= 1.00D-01 BMatC= 1.55D-02 BMatP= 4.24D-02
 IDIUse=3 WtCom= 9.18D-01 WtEn= 8.16D-02
 Coeff-Com: -0.770D-01 0.213D+00 0.428D+00 0.436D+00
 Coeff-En:   0.000D+00 0.000D+00 0.208D+00 0.792D+00
 Coeff:     -0.707D-01 0.196D+00 0.410D+00 0.465D+00
 Gap=     0.330 Goal=   None    Shift=    0.000
 Gap=     0.330 Goal=   None    Shift=    0.000
 RMSDP=9.53D-04 MaxDP=1.38D-02 DE=-8.48D-03 OVMax= 2.35D-02

 Cycle   5  Pass 0  IDiag  1:
 E= -512.391398356978     Delta-E=       -0.003151526307 Rises=F Damp=F
 DIIS: error= 1.63D-03 at cycle   5 NSaved=   5.
 NSaved= 5 IEnMin= 5 EnMin= -512.391398356978     IErMin= 5 ErrMin= 1.63D-03
 ErrMax= 1.63D-03  0.00D+00 EMaxC= 1.00D-01 BMatC= 5.56D-04 BMatP= 1.55D-02
 IDIUse=3 WtCom= 9.84D-01 WtEn= 1.63D-02
 Coeff-Com: -0.121D-01 0.238D-01 0.117D+00 0.213D+00 0.659D+00
 Coeff-En:   0.000D+00 0.000D+00 0.000D+00 0.000D+00 0.100D+01
 Coeff:     -0.119D-01 0.234D-01 0.115D+00 0.210D+00 0.664D+00
 Gap=     0.332 Goal=   None    Shift=    0.000
 Gap=     0.332 Goal=   None    Shift=    0.000
 RMSDP=2.11D-04 MaxDP=2.75D-03 DE=-3.15D-03 OVMax= 4.37D-03

 Cycle   6  Pass 0  IDiag  1:
 E= -512.391511536589     Delta-E=       -0.000113179610 Rises=F Damp=F
 DIIS: error= 2.22D-04 at cycle   6 NSaved=   6.
 NSaved= 6 IEnMin= 6 EnMin= -512.391511536589     IErMin= 6 ErrMin= 2.22D-04
 ErrMax= 2.22D-04  0.00D+00 EMaxC= 1.00D-01 BMatC= 1.82D-05 BMatP= 5.56D-04
 IDIUse=3 WtCom= 9.98D-01 WtEn= 2.22D-03
 Coeff-Com:  0.826D-02-0.204D-01-0.263D-01-0.418D-01 0.181D-01 0.106D+01
 Coeff-En:   0.000D+00 0.000D+00 0.000D+00 0.000D+00 0.000D+00 0.100D+01
 Coeff:      0.824D-02-0.203D-01-0.262D-01-0.418D-01 0.181D-01 0.106D+01
 Gap=     0.332 Goal=   None    Shift=    0.000
 Gap=     0.332 Goal=   None    Shift=    0.000
 RMSDP=5.97D-05 MaxDP=6.05D-04 DE=-1.13D-04 OVMax= 1.04D-03

 Cycle   7  Pass 0  IDiag  1:
 E= -512.391518546359     Delta-E=       -0.000007009770 Rises=F Damp=F
 DIIS: error= 6.10D-05 at cycle   7 NSaved=   7.
 NSaved= 7 IEnMin= 7 EnMin= -512.391518546359     IErMin= 7 ErrMin= 6.10D-05
 ErrMax= 6.10D-05  0.00D+00 EMaxC= 1.00D-01 BMatC= 1.42D-06 BMatP= 1.82D-05
 IDIUse=1 WtCom= 1.00D+00 WtEn= 0.00D+00
 Coeff-Com:  0.747D-03-0.131D-02-0.192D-02-0.102D-01-0.255D-01-0.994D-01
 Coeff-Com:  0.114D+01
 Coeff:      0.747D-03-0.131D-02-0.192D-02-0.102D-01-0.255D-01-0.994D-01
 Coeff:      0.114D+01
 Gap=     0.332 Goal=   None    Shift=    0.000
 Gap=     0.332 Goal=   None    Shift=    0.000
 RMSDP=2.19D-05 MaxDP=1.96D-04 DE=-7.01D-06 OVMax= 3.62D-04

 Cycle   8  Pass 0  IDiag  1:
 E= -512.391519155428     Delta-E=       -0.000000609069 Rises=F Damp=F
 DIIS: error= 1.34D-05 at cycle   8 NSaved=   8.
 NSaved= 8 IEnMin= 8 EnMin= -512.391519155428     IErMin= 8 ErrMin= 1.34D-05
 ErrMax= 1.34D-05  0.00D+00 EMaxC= 1.00D-01 BMatC= 7.91D-08 BMatP= 1.42D-06
 IDIUse=1 WtCom= 1.00D+00 WtEn= 0.00D+00
 Coeff-Com: -0.368D-03 0.853D-03 0.192D-02 0.217D-02 0.334D-02-0.582D-01
 Coeff-Com: -0.562D-01 0.111D+01
 Coeff:     -0.368D-03 0.853D-03 0.192D-02 0.217D-02 0.334D-02-0.582D-01
 Coeff:     -0.562D-01 0.111D+01
 Gap=     0.332 Goal=   None    Shift=    0.000
 Gap=     0.332 Goal=   None    Shift=    0.000
 RMSDP=7.40D-06 MaxDP=6.80D-05 DE=-6.09D-07 OVMax= 1.29D-04

 Initial convergence to 1.0D-05 achieved.  Increase integral accuracy.
 Cycle   9  Pass 1  IDiag  1:
 E= -512.391565714814     Delta-E=       -0.000046559386 Rises=F Damp=F
 DIIS: error= 3.28D-05 at cycle   1 NSaved=   1.
 NSaved= 1 IEnMin= 1 EnMin= -512.391565714814     IErMin= 1 ErrMin= 3.28D-05
 ErrMax= 3.28D-05  0.00D+00 EMaxC= 1.00D-01 BMatC= 3.68D-07 BMatP= 3.68D-07
 IDIUse=1 WtCom= 1.00D+00 WtEn= 0.00D+00
 Coeff-Com:  0.100D+01
 Coeff:      0.100D+01
 Gap=     0.332 Goal=   None    Shift=    0.000
 Gap=     0.332 Goal=   None    Shift=    0.000
 RMSDP=7.40D-06 MaxDP=6.80D-05 DE=-4.66D-05 OVMax= 6.51D-05

 Cycle  10  Pass 1  IDiag  1:
 E= -512.391565791762     Delta-E=       -0.000000076948 Rises=F Damp=F
 DIIS: error= 5.12D-06 at cycle   2 NSaved=   2.
 NSaved= 2 IEnMin= 2 EnMin= -512.391565791762     IErMin= 2 ErrMin= 5.12D-06
 ErrMax= 5.12D-06  0.00D+00 EMaxC= 1.00D-01 BMatC= 1.10D-08 BMatP= 3.68D-07
 IDIUse=1 WtCom= 1.00D+00 WtEn= 0.00D+00
 Coeff-Com: -0.448D-01 0.104D+01
 Coeff:     -0.448D-01 0.104D+01
 Gap=     0.332 Goal=   None    Shift=    0.000
 Gap=     0.332 Goal=   None    Shift=    0.000
 RMSDP=1.67D-06 MaxDP=2.06D-05 DE=-7.69D-08 OVMax= 4.84D-05

 Cycle  11  Pass 1  IDiag  1:
 E= -512.391565791988     Delta-E=       -0.000000000226 Rises=F Damp=F
 DIIS: error= 7.70D-06 at cycle   3 NSaved=   3.
 NSaved= 3 IEnMin= 3 EnMin= -512.391565791988     IErMin= 2 ErrMin= 5.12D-06
 ErrMax= 7.70D-06  0.00D+00 EMaxC= 1.00D-01 BMatC= 1.38D-08 BMatP= 1.10D-08
 IDIUse=1 WtCom= 1.00D+00 WtEn= 0.00D+00
 Coeff-Com: -0.459D-01 0.578D+00 0.467D+00
 Coeff:     -0.459D-01 0.578D+00 0.467D+00
 Gap=     0.332 Goal=   None    Shift=    0.000
 Gap=     0.332 Goal=   None    Shift=    0.000
 RMSDP=1.10D-06 MaxDP=1.29D-05 DE=-2.26D-10 OVMax= 3.14D-05

 Cycle  12  Pass 1  IDiag  1:
 E= -512.391565795098     Delta-E=       -0.000000003110 Rises=F Damp=F
 DIIS: error= 2.10D-06 at cycle   4 NSaved=   4.
 NSaved= 4 IEnMin= 4 EnMin= -512.391565795098     IErMin= 4 ErrMin= 2.10D-06
 ErrMax= 2.10D-06  0.00D+00 EMaxC= 1.00D-01 BMatC= 1.06D-09 BMatP= 1.10D-08
 IDIUse=1 WtCom= 1.00D+00 WtEn= 0.00D+00
 Coeff-Com: -0.177D-01 0.142D+00 0.236D+00 0.640D+00
 Coeff:     -0.177D-01 0.142D+00 0.236D+00 0.640D+00
 Gap=     0.332 Goal=   None    Shift=    0.000
 Gap=     0.332 Goal=   None    Shift=    0.000
 RMSDP=2.70D-07 MaxDP=4.00D-06 DE=-3.11D-09 OVMax= 7.32D-06

 Cycle  13  Pass 1  IDiag  1:
 E= -512.391565795322     Delta-E=       -0.000000000224 Rises=F Damp=F
 DIIS: error= 4.31D-07 at cycle   5 NSaved=   5.
 NSaved= 5 IEnMin= 5 EnMin= -512.391565795322     IErMin= 5 ErrMin= 4.31D-07
 ErrMax= 4.31D-07  0.00D+00 EMaxC= 1.00D-01 BMatC= 9.51D-11 BMatP= 1.06D-09
 IDIUse=1 WtCom= 1.00D+00 WtEn= 0.00D+00
 Coeff-Com: -0.166D-02-0.104D-01 0.422D-01 0.269D+00 0.701D+00
 Coeff:     -0.166D-02-0.104D-01 0.422D-01 0.269D+00 0.701D+00
 Gap=     0.332 Goal=   None    Shift=    0.000
 Gap=     0.332 Goal=   None    Shift=    0.000
 RMSDP=1.27D-07 MaxDP=1.19D-06 DE=-2.24D-10 OVMax= 2.39D-06

 Cycle  14  Pass 1  IDiag  1:
 E= -512.391565795348     Delta-E=       -0.000000000026 Rises=F Damp=F
 DIIS: error= 1.66D-07 at cycle   6 NSaved=   6.
 NSaved= 6 IEnMin= 6 EnMin= -512.391565795348     IErMin= 6 ErrMin= 1.66D-07
 ErrMax= 1.66D-07  0.00D+00 EMaxC= 1.00D-01 BMatC= 9.61D-12 BMatP= 9.51D-11
 IDIUse=1 WtCom= 1.00D+00 WtEn= 0.00D+00
 Coeff-Com:  0.209D-02-0.244D-01-0.313D-01-0.135D-01 0.208D+00 0.859D+00
 Coeff:      0.209D-02-0.244D-01-0.313D-01-0.135D-01 0.208D+00 0.859D+00
 Gap=     0.332 Goal=   None    Shift=    0.000
 Gap=     0.332 Goal=   None    Shift=    0.000
 RMSDP=6.37D-08 MaxDP=5.51D-07 DE=-2.57D-11 OVMax= 1.11D-06

 Cycle  15  Pass 1  IDiag  1:
 E= -512.391565795353     Delta-E=       -0.000000000005 Rises=F Damp=F
 DIIS: error= 4.11D-08 at cycle   7 NSaved=   7.
 NSaved= 7 IEnMin= 7 EnMin= -512.391565795353     IErMin= 7 ErrMin= 4.11D-08
 ErrMax= 4.11D-08  0.00D+00 EMaxC= 1.00D-01 BMatC= 7.74D-13 BMatP= 9.61D-12
 IDIUse=1 WtCom= 1.00D+00 WtEn= 0.00D+00
 Coeff-Com: -0.239D-03 0.576D-02-0.299D-03-0.448D-02-0.105D+00-0.229D+00
 Coeff-Com:  0.133D+01
 Coeff:     -0.239D-03 0.576D-02-0.299D-03-0.448D-02-0.105D+00-0.229D+00
 Coeff:      0.133D+01
 Gap=     0.332 Goal=   None    Shift=    0.000
 Gap=     0.332 Goal=   None    Shift=    0.000
 RMSDP=3.27D-08 MaxDP=2.31D-07 DE=-5.23D-12 OVMax= 6.74D-07

 Cycle  16  Pass 1  IDiag  1:
 E= -512.391565795354     Delta-E=       -0.000000000001 Rises=F Damp=F
 DIIS: error= 7.52D-09 at cycle   8 NSaved=   8.
 NSaved= 8 IEnMin= 8 EnMin= -512.391565795354     IErMin= 8 ErrMin= 7.52D-09
 ErrMax= 7.52D-09  0.00D+00 EMaxC= 1.00D-01 BMatC= 3.16D-14 BMatP= 7.74D-13
 IDIUse=1 WtCom= 1.00D+00 WtEn= 0.00D+00
 Coeff-Com: -0.178D-03 0.246D-02 0.183D-02 0.144D-02-0.266D-01-0.961D-01
 Coeff-Com:  0.162D+00 0.955D+00
 Coeff:     -0.178D-03 0.246D-02 0.183D-02 0.144D-02-0.266D-01-0.961D-01
 Coeff:      0.162D+00 0.955D+00
 Gap=     0.332 Goal=   None    Shift=    0.000
 Gap=     0.332 Goal=   None    Shift=    0.000
 RMSDP=6.23D-09 MaxDP=6.56D-08 DE=-7.96D-13 OVMax= 1.33D-07

 SCF Done:  E(UwB97XD) =  -512.391565795     A.U. after   16 cycles
            NFock= 16  Conv=0.62D-08     -V/T= 2.0034
 <Sx>= 0.0000 <Sy>= 0.0000 <Sz>= 0.0000 <S**2>=-0.0000 S=-0.0000
 <L.S>=  0.00000000000    
 KE= 5.106302216998D+02 PE=-1.419534963266D+03 EE= 2.937600722922D+02
 Annihilation of the first spin contaminant:
 S**2 before annihilation    -0.0000,   after     0.0000
 Leave Link  502 at Tue Jan  3 09:07:49 2023, MaxMem=   536870912 cpu:               9.0 elap:               4.5
 (Enter /opt/software/gaussian/g16.c01/l508.exe)
 QCSCF skips out because SCF is already converged.
 Leave Link  508 at Tue Jan  3 09:07:49 2023, MaxMem=   536870912 cpu:               0.0 elap:               0.0
 (Enter /opt/software/gaussian/g16.c01/l601.exe)
 Copying SCF densities to generalized density rwf, IOpCl= 1 IROHF=0.

 **********************************************************************

            Population analysis using the SCF Density.

 **********************************************************************

 Alpha  occ. eigenvalues --  -89.12772 -19.24508 -10.34582  -8.17065  -6.12366
 Alpha  occ. eigenvalues --   -6.12180  -6.11801  -1.13247  -0.89390  -0.68846
 Alpha  occ. eigenvalues --   -0.57479  -0.54359  -0.50598  -0.46835  -0.35890
 Alpha  occ. eigenvalues --   -0.34471
 Alpha virt. eigenvalues --   -0.01279   0.11712   0.15369   0.21058   0.23093
 Alpha virt. eigenvalues --    0.38892   0.48059   0.55667   0.56861   0.56910
 Alpha virt. eigenvalues --    0.66690   0.70591   0.71464   0.72613   0.73746
 Alpha virt. eigenvalues --    0.80066   0.83772   0.93093   1.02823   1.09379
 Alpha virt. eigenvalues --    1.11462   1.16790   1.24276   1.26207   1.40155
 Alpha virt. eigenvalues --    1.61244   1.61929   1.73499   2.04913   2.08751
 Alpha virt. eigenvalues --    2.09395   2.26711   2.45079   2.73080   2.73514
 Alpha virt. eigenvalues --    2.80388   2.85493   2.92600   2.99704   3.38582
  Beta  occ. eigenvalues --  -89.12772 -19.24508 -10.34582  -8.17065  -6.12366
  Beta  occ. eigenvalues --   -6.12180  -6.11801  -1.13247  -0.89390  -0.68846
  Beta  occ. eigenvalues --   -0.57479  -0.54359  -0.50598  -0.46835  -0.35890
  Beta  occ. eigenvalues --   -0.34471
  Beta virt. eigenvalues --   -0.01279   0.11712   0.15369   0.21058   0.23093
  Beta virt. eigenvalues --    0.38892   0.48059   0.55667   0.56861   0.56910
  Beta virt. eigenvalues --    0.66690   0.70591   0.71464   0.72613   0.73746
  Beta virt. eigenvalues --    0.80066   0.83772   0.93093   1.02823   1.09379
  Beta virt. eigenvalues --    1.11462   1.16790   1.24276   1.26207   1.40155
  Beta virt. eigenvalues --    1.61244   1.61929   1.73499   2.04913   2.08751
  Beta virt. eigenvalues --    2.09395   2.26711   2.45079   2.73080   2.73514
  Beta virt. eigenvalues --    2.80388   2.85493   2.92600   2.99704   3.38582
          Condensed to atoms (all electrons):
               1          2          3          4          5
     1  C    5.216765   0.341921  -0.056397   0.355661   0.383606
     2  S    0.341921  14.823963   0.328301  -0.006165  -0.007612
     3  O   -0.056397   0.328301   8.236990   0.002583   0.003108
     4  H    0.355661  -0.006165   0.002583   0.550990  -0.012090
     5  H    0.383606  -0.007612   0.003108  -0.012090   0.505464
          Atomic-Atomic Spin Densities.
               1          2          3          4          5
     1  C    0.000000   0.000000   0.000000   0.000000   0.000000
     2  S    0.000000   0.000000   0.000000   0.000000   0.000000
     3  O    0.000000   0.000000   0.000000   0.000000   0.000000
     4  H    0.000000   0.000000   0.000000   0.000000   0.000000
     5  H    0.000000   0.000000   0.000000   0.000000   0.000000
 Mulliken charges and spin densities:
               1          2
     1  C   -0.241556   0.000000
     2  S    0.519593   0.000000
     3  O   -0.514584   0.000000
     4  H    0.109023   0.000000
     5  H    0.127525   0.000000
 Sum of Mulliken charges =  -0.00000   0.00000
 Mulliken charges and spin densities with hydrogens summed into heavy atoms:
               1          2
     1  C   -0.005009   0.000000
     2  S    0.519593   0.000000
     3  O   -0.514584   0.000000
 Electronic spatial extent (au):  <R**2>=            826.8958
 Charge=             -0.0000 electrons
 Dipole moment (field-independent basis, Debye):
    X=             -2.2034    Y=              1.1479    Z=              2.0096  Tot=              3.1955
 Quadrupole moment (field-independent basis, Debye-Ang):
   XX=            -33.2353   YY=            -25.0277   ZZ=            -26.7904
   XY=              3.8786   XZ=              6.9359   YZ=             -1.3443
 Traceless Quadrupole moment (field-independent basis, Debye-Ang):
   XX=             -4.8842   YY=              3.3234   ZZ=              1.5607
   XY=              3.8786   XZ=              6.9359   YZ=             -1.3443
 Octapole moment (field-independent basis, Debye-Ang**2):
  XXX=           -195.4881  YYY=             13.5461  ZZZ=             32.5807  XYY=            -56.4981
  XXY=             16.9593  XXZ=             31.8847  XZZ=            -65.2860  YZZ=              7.3984
  YYZ=             10.7156  XYZ=             -6.9384
 Hexadecapole moment (field-independent basis, Debye-Ang**3):
 XXXX=           -982.7022 YYYY=            -43.7873 ZZZZ=            -94.0972 XXXY=             81.3230
 XXXZ=            155.2673 YYYX=             41.6473 YYYZ=            -17.9663 ZZZX=             96.7504
 ZZZY=            -20.3327 XXYY=           -158.9132 XXZZ=           -196.0527 YYZZ=            -23.6370
 XXYZ=            -29.1640 YYXZ=             31.5858 ZZXY=             23.1000
 N-N= 1.027531034782D+02 E-N=-1.419534962382D+03  KE= 5.106302216998D+02
                          Isotropic Fermi Contact Couplings
        Atom                 a.u.       MegaHertz       Gauss      10(-4) cm-1
     1  C(13)              0.00000       0.00000       0.00000       0.00000
     2  S(33)              0.00000       0.00000       0.00000       0.00000
     3  O(17)              0.00000      -0.00000      -0.00000      -0.00000
     4  H(1)               0.00000       0.00000       0.00000       0.00000
     5  H(1)               0.00000       0.00000       0.00000       0.00000
 --------------------------------------------------------
       Center         ----  Spin Dipole Couplings  ----
                      3XX-RR        3YY-RR        3ZZ-RR
 --------------------------------------------------------
     1   Atom        0.000000      0.000000      0.000000
     2   Atom        0.000000      0.000000      0.000000
     3   Atom        0.000000      0.000000      0.000000
     4   Atom        0.000000      0.000000      0.000000
     5   Atom        0.000000      0.000000      0.000000
 --------------------------------------------------------
                        XY            XZ            YZ
 --------------------------------------------------------
     1   Atom        0.000000      0.000000      0.000000
     2   Atom        0.000000      0.000000      0.000000
     3   Atom        0.000000      0.000000      0.000000
     4   Atom        0.000000      0.000000      0.000000
     5   Atom        0.000000      0.000000      0.000000
 --------------------------------------------------------


 ---------------------------------------------------------------------------------
              Anisotropic Spin Dipole Couplings in Principal Axis System
 ---------------------------------------------------------------------------------

       Atom             a.u.   MegaHertz   Gauss  10(-4) cm-1        Axes

              Baa     0.0000     0.000     0.000     0.000  1.0000  0.0000  0.0000
     1 C(13)  Bbb     0.0000     0.000     0.000     0.000 -0.0000  1.0000  0.0000
              Bcc     0.0000     0.000     0.000     0.000  0.0000  0.0000  1.0000
 
              Baa     0.0000     0.000     0.000     0.000  1.0000  0.0000  0.0000
     2 S(33)  Bbb     0.0000     0.000     0.000     0.000 -0.0000  1.0000  0.0000
              Bcc     0.0000     0.000     0.000     0.000  0.0000  0.0000  1.0000
 
              Baa     0.0000    -0.000    -0.000    -0.000  1.0000  0.0000  0.0000
     3 O(17)  Bbb     0.0000    -0.000    -0.000    -0.000 -0.0000  1.0000  0.0000
              Bcc     0.0000    -0.000    -0.000    -0.000  0.0000  0.0000  1.0000
 
              Baa     0.0000     0.000     0.000     0.000  1.0000  0.0000  0.0000
     4 H(1)   Bbb     0.0000     0.000     0.000     0.000 -0.0000  1.0000  0.0000
              Bcc     0.0000     0.000     0.000     0.000  0.0000  0.0000  1.0000
 
              Baa     0.0000     0.000     0.000     0.000  1.0000  0.0000  0.0000
     5 H(1)   Bbb     0.0000     0.000     0.000     0.000 -0.0000  1.0000  0.0000
              Bcc     0.0000     0.000     0.000     0.000  0.0000  0.0000  1.0000
 

 ---------------------------------------------------------------------------------

 No NMR shielding tensors so no spin-rotation constants.
 Leave Link  601 at Tue Jan  3 09:07:49 2023, MaxMem=   536870912 cpu:               0.3 elap:               0.1
 (Enter /opt/software/gaussian/g16.c01/l801.exe)
 DoSCS=F DFT=T ScalE2(SS,OS)=  1.000000  1.000000
 Range of M.O.s used for correlation:     1    56
 NBasis=    56 NAE=    16 NBE=    16 NFC=     0 NFV=     0
 NROrb=     56 NOA=    16 NOB=    16 NVA=    40 NVB=    40
 Leave Link  801 at Tue Jan  3 09:07:50 2023, MaxMem=   536870912 cpu:               0.1 elap:               0.0
 (Enter /opt/software/gaussian/g16.c01/l914.exe)
 UHF ground state
 Doing stability rather than CIS.
 Keep R1 and R2 ints in memory in canonical form, NReq=7484317.
 FoFCou: FMM=F IPFlag=           0 FMFlag=           0 FMFlg1=           0
         NFxFlg=           0 DoJE=F BraDBF=F KetDBF=F FulRan=T
         wScrn=  0.000000 ICntrl=       600 IOpCl=  0 I1Cent=           0 NGrid=           0
         NMat0=    1 NMatS0=   1596 NMatT0=    0 NMatD0=    1 NMtDS0=    0 NMtDT0=    0
 Symmetry not used in FoFCou.
 Two-electron integral symmetry not used.
 MDV=   536870912 DFT=T DoStab=T Mixed=T DoRPA=F DoScal=F NonHer=F
 Making orbital integer symmetry assigments:
    12 initial guesses have been made.
 Convergence on wavefunction:    0.001000000000000
 Davidson Disk Diagonalization:  ConvIn= 1.00D-03 SkipCon=T Conv= 1.00D-03.
 Max sub-space:  2000 roots to seek:    12 dimension of matrix:         1280
 Iteration     1 Dimension    12 NMult     0 NNew     12
 CISAX will form    12 AO SS matrices at one time.
 NMat=    12 NSing=    12 JSym2X= 0.
 Excitation Energies [eV] at current iteration:
 Root      1 :     1.192296771202313
 Root      2 :     3.090882500482918
 Root      3 :     4.420438984112675
 Root      4 :     5.896860068460401
 Root      5 :     6.065167906796116
 Root      6 :     6.549418977984950
 Root      7 :     6.759554681717795
 Root      8 :     6.904863439439266
 Root      9 :     7.745295481057512
 Root     10 :     7.922859946498497
 Root     11 :    13.139982113771918
 Root     12 :    13.937844761118383
 Iteration     2 Dimension    24 NMult    12 NNew     12
 CISAX will form    12 AO SS matrices at one time.
 NMat=    12 NSing=    12 JSym2X= 0.
 Root      1 not converged, maximum delta is    0.044087521127453
 Excitation Energies [eV] at current iteration:
 Root      1 :     0.873218983932394   Change is   -0.319077787269919
 Root      2 :     2.844719803758489   Change is   -0.246162696724430
 Root      3 :     4.163348430164379   Change is   -0.257090553948296
 Root      4 :     5.597623867215213   Change is   -0.299236201245189
 Root      5 :     5.740204761983146   Change is   -0.324963144812970
 Root      6 :     6.034804184420826   Change is   -0.514614793564124
 Root      7 :     6.379620053678638   Change is   -6.760362060093279
 Root      8 :     6.611743931018126   Change is   -0.147810750699668
 Root      9 :     6.724776402070343   Change is   -0.180087037368923
 Root     10 :     7.672880097849497   Change is   -0.072415383208015
 Root     11 :     7.692861358784000   Change is   -0.229998587714497
 Root     12 :    10.145683806322694
 Iteration     3 Dimension    27 NMult    24 NNew      3
 CISAX will form     3 AO SS matrices at one time.
 NMat=     3 NSing=     3 JSym2X= 0.
 Root      1 not converged, maximum delta is    0.005359314667306
 Excitation Energies [eV] at current iteration:
 Root      1 :     0.865922949635161   Change is   -0.007296034297233
 Root      2 :     2.830747153784930   Change is   -0.013972649973559
 Root      3 :     4.151272894400231   Change is   -0.012075535764148
 Iteration     4 Dimension    30 NMult    27 NNew      3
 CISAX will form     3 AO SS matrices at one time.
 NMat=     3 NSing=     3 JSym2X= 0.
 Root      1 not converged, maximum delta is    0.001819755874288
 Excitation Energies [eV] at current iteration:
 Root      1 :     0.865595763906352   Change is   -0.000327185728809
 Root      2 :     2.830044655541768   Change is   -0.000702498243162
 Root      3 :     4.150712115012229   Change is   -0.000560779388002
 Iteration     5 Dimension    33 NMult    30 NNew      3
 CISAX will form     3 AO SS matrices at one time.
 NMat=     3 NSing=     3 JSym2X= 0.
 Root      1 has converged.
 Excitation Energies [eV] at current iteration:
 Root      1 :     0.865589441696230   Change is   -0.000006322210122
 Root      2 :     2.830015319259202   Change is   -0.000029336282566
 Root      3 :     4.150676607625746   Change is   -0.000035507386482
 Convergence achieved on expansion vectors.
 ***********************************************************************
 Stability analysis using <AA,BB:AA,BB> singles matrix:
 ***********************************************************************
 1PDM for each excited state written to RWF  633
 Ground to excited state transition densities written to RWF  633

 Eigenvectors of the stability matrix:
 
 Excited state symmetry could not be determined.
 Eigenvector   1:  3.000-?Sym  Eigenvalue= 0.0318098  <S**2>=2.000
     16A -> 17A        0.69946
     16B -> 17B       -0.69946
 The wavefunction is stable under the perturbations considered.
 Leave Link  914 at Tue Jan  3 09:08:01 2023, MaxMem=   536870912 cpu:              23.7 elap:              11.8
 (Enter /opt/software/gaussian/g16.c01/l508.exe)
 The wavefunction is already stable.
 Leave Link  508 at Tue Jan  3 09:08:01 2023, MaxMem=   536870912 cpu:               0.0 elap:               0.0
 (Enter /opt/software/gaussian/g16.c01/l601.exe)
 Copying SCF densities to generalized density rwf, IOpCl= 1 IROHF=0.

 **********************************************************************

            Population analysis using the SCF Density.

 **********************************************************************

 Alpha  occ. eigenvalues --  -89.12772 -19.24508 -10.34582  -8.17065  -6.12366
 Alpha  occ. eigenvalues --   -6.12180  -6.11801  -1.13247  -0.89390  -0.68846
 Alpha  occ. eigenvalues --   -0.57479  -0.54359  -0.50598  -0.46835  -0.35890
 Alpha  occ. eigenvalues --   -0.34471
 Alpha virt. eigenvalues --   -0.01279   0.11712   0.15369   0.21058   0.23093
 Alpha virt. eigenvalues --    0.38892   0.48059   0.55667   0.56861   0.56910
 Alpha virt. eigenvalues --    0.66690   0.70591   0.71464   0.72613   0.73746
 Alpha virt. eigenvalues --    0.80066   0.83772   0.93093   1.02823   1.09379
 Alpha virt. eigenvalues --    1.11462   1.16790   1.24276   1.26207   1.40155
 Alpha virt. eigenvalues --    1.61244   1.61929   1.73499   2.04913   2.08751
 Alpha virt. eigenvalues --    2.09395   2.26711   2.45079   2.73080   2.73514
 Alpha virt. eigenvalues --    2.80388   2.85493   2.92600   2.99704   3.38582
  Beta  occ. eigenvalues --  -89.12772 -19.24508 -10.34582  -8.17065  -6.12366
  Beta  occ. eigenvalues --   -6.12180  -6.11801  -1.13247  -0.89390  -0.68846
  Beta  occ. eigenvalues --   -0.57479  -0.54359  -0.50598  -0.46835  -0.35890
  Beta  occ. eigenvalues --   -0.34471
  Beta virt. eigenvalues --   -0.01279   0.11712   0.15369   0.21058   0.23093
  Beta virt. eigenvalues --    0.38892   0.48059   0.55667   0.56861   0.56910
  Beta virt. eigenvalues --    0.66690   0.70591   0.71464   0.72613   0.73746
  Beta virt. eigenvalues --    0.80066   0.83772   0.93093   1.02823   1.09379
  Beta virt. eigenvalues --    1.11462   1.16790   1.24276   1.26207   1.40155
  Beta virt. eigenvalues --    1.61244   1.61929   1.73499   2.04913   2.08751
  Beta virt. eigenvalues --    2.09395   2.26711   2.45079   2.73080   2.73514
  Beta virt. eigenvalues --    2.80388   2.85493   2.92600   2.99704   3.38582
          Condensed to atoms (all electrons):
               1          2          3          4          5
     1  C    5.216765   0.341921  -0.056397   0.355661   0.383606
     2  S    0.341921  14.823963   0.328301  -0.006165  -0.007612
     3  O   -0.056397   0.328301   8.236990   0.002583   0.003108
     4  H    0.355661  -0.006165   0.002583   0.550990  -0.012090
     5  H    0.383606  -0.007612   0.003108  -0.012090   0.505464
          Atomic-Atomic Spin Densities.
               1          2          3          4          5
     1  C    0.000000   0.000000   0.000000   0.000000   0.000000
     2  S    0.000000   0.000000   0.000000   0.000000   0.000000
     3  O    0.000000   0.000000   0.000000   0.000000   0.000000
     4  H    0.000000   0.000000   0.000000   0.000000   0.000000
     5  H    0.000000   0.000000   0.000000   0.000000   0.000000
 Mulliken charges and spin densities:
               1          2
     1  C   -0.241556   0.000000
     2  S    0.519593   0.000000
     3  O   -0.514584   0.000000
     4  H    0.109023   0.000000
     5  H    0.127525   0.000000
 Sum of Mulliken charges =  -0.00000   0.00000
 Mulliken charges and spin densities with hydrogens summed into heavy atoms:
               1          2
     1  C   -0.005009   0.000000
     2  S    0.519593   0.000000
     3  O   -0.514584   0.000000
 Electronic spatial extent (au):  <R**2>=            826.8958
 Charge=             -0.0000 electrons
 Dipole moment (field-independent basis, Debye):
    X=             -2.2034    Y=              1.1479    Z=              2.0096  Tot=              3.1955
 Quadrupole moment (field-independent basis, Debye-Ang):
   XX=            -33.2353   YY=            -25.0277   ZZ=            -26.7904
   XY=              3.8786   XZ=              6.9359   YZ=             -1.3443
 Traceless Quadrupole moment (field-independent basis, Debye-Ang):
   XX=             -4.8842   YY=              3.3234   ZZ=              1.5607
   XY=              3.8786   XZ=              6.9359   YZ=             -1.3443
 Octapole moment (field-independent basis, Debye-Ang**2):
  XXX=           -195.4881  YYY=             13.5461  ZZZ=             32.5807  XYY=            -56.4981
  XXY=             16.9593  XXZ=             31.8847  XZZ=            -65.2860  YZZ=              7.3984
  YYZ=             10.7156  XYZ=             -6.9384
 Hexadecapole moment (field-independent basis, Debye-Ang**3):
 XXXX=           -982.7022 YYYY=            -43.7873 ZZZZ=            -94.0972 XXXY=             81.3230
 XXXZ=            155.2673 YYYX=             41.6473 YYYZ=            -17.9663 ZZZX=             96.7504
 ZZZY=            -20.3327 XXYY=           -158.9132 XXZZ=           -196.0527 YYZZ=            -23.6370
 XXYZ=            -29.1640 YYXZ=             31.5858 ZZXY=             23.1000
 N-N= 1.027531034782D+02 E-N=-1.419534962382D+03  KE= 5.106302216998D+02
                          Isotropic Fermi Contact Couplings
        Atom                 a.u.       MegaHertz       Gauss      10(-4) cm-1
     1  C(13)              0.00000       0.00000       0.00000       0.00000
     2  S(33)              0.00000       0.00000       0.00000       0.00000
     3  O(17)              0.00000      -0.00000      -0.00000      -0.00000
     4  H(1)               0.00000       0.00000       0.00000       0.00000
     5  H(1)               0.00000       0.00000       0.00000       0.00000
 --------------------------------------------------------
       Center         ----  Spin Dipole Couplings  ----
                      3XX-RR        3YY-RR        3ZZ-RR
 --------------------------------------------------------
     1   Atom        0.000000      0.000000      0.000000
     2   Atom        0.000000      0.000000      0.000000
     3   Atom        0.000000      0.000000      0.000000
     4   Atom        0.000000      0.000000      0.000000
     5   Atom        0.000000      0.000000      0.000000
 --------------------------------------------------------
                        XY            XZ            YZ
 --------------------------------------------------------
     1   Atom        0.000000      0.000000      0.000000
     2   Atom        0.000000      0.000000      0.000000
     3   Atom        0.000000      0.000000      0.000000
     4   Atom        0.000000      0.000000      0.000000
     5   Atom        0.000000      0.000000      0.000000
 --------------------------------------------------------


 ---------------------------------------------------------------------------------
              Anisotropic Spin Dipole Couplings in Principal Axis System
 ---------------------------------------------------------------------------------

       Atom             a.u.   MegaHertz   Gauss  10(-4) cm-1        Axes

              Baa     0.0000     0.000     0.000     0.000  1.0000  0.0000  0.0000
     1 C(13)  Bbb     0.0000     0.000     0.000     0.000 -0.0000  1.0000  0.0000
              Bcc     0.0000     0.000     0.000     0.000  0.0000  0.0000  1.0000
 
              Baa     0.0000     0.000     0.000     0.000  1.0000  0.0000  0.0000
     2 S(33)  Bbb     0.0000     0.000     0.000     0.000 -0.0000  1.0000  0.0000
              Bcc     0.0000     0.000     0.000     0.000  0.0000  0.0000  1.0000
 
              Baa     0.0000    -0.000    -0.000    -0.000  1.0000  0.0000  0.0000
     3 O(17)  Bbb     0.0000    -0.000    -0.000    -0.000 -0.0000  1.0000  0.0000
              Bcc     0.0000    -0.000    -0.000    -0.000  0.0000  0.0000  1.0000
 
              Baa     0.0000     0.000     0.000     0.000  1.0000  0.0000  0.0000
     4 H(1)   Bbb     0.0000     0.000     0.000     0.000 -0.0000  1.0000  0.0000
              Bcc     0.0000     0.000     0.000     0.000  0.0000  0.0000  1.0000
 
              Baa     0.0000     0.000     0.000     0.000  1.0000  0.0000  0.0000
     5 H(1)   Bbb     0.0000     0.000     0.000     0.000 -0.0000  1.0000  0.0000
              Bcc     0.0000     0.000     0.000     0.000  0.0000  0.0000  1.0000
 

 ---------------------------------------------------------------------------------

 No NMR shielding tensors so no spin-rotation constants.
 Leave Link  601 at Tue Jan  3 09:08:02 2023, MaxMem=   536870912 cpu:               0.3 elap:               0.1
 (Enter /opt/software/gaussian/g16.c01/l9999.exe)

 Test job not archived.
 1\1\GINC-GRA607\Stability\UwB97XD\Gen\C1H2O1S1\BHAVUK\03-Jan-2023\0\\#
 p uwb97xd/gen stable=opt scf=(maxcycle=900,verytightlineq,xqc) integra
 l=grid=ultrafine symmetry=None density=current iop(99/18=-1) output=wf
 n\\0005_q000_m01_k00_opt_uwb97xd_def2svpd/0005_q000_m01_k00_force_uwb9
 7xd_def2svp stable-force\\0,1\C,0,0.9770245042,-0.0197961728,-0.100827
 3286\S,0,2.5880021429,-0.0345660623,-0.126439068\O,0,3.1712397907,-0.7
 143116203,-1.3164938758\H,0,0.5180717789,0.4715880124,0.7588975415\H,0
 ,0.3708017881,-0.4702041579,-0.8890472689\\Version=ES64L-G16RevC.01\HF
 =-512.3915658\S2=0.\S2-1=0.\S2A=0.\RMSD=6.232e-09\Dipole=-0.8668802,0.
 4516305,0.7906346\Quadrupole=-3.6312458,2.4708748,1.1603711,2.8836505,
 5.156693,-0.9994677\PG=Unknown\\@

 Writing a WFN file to "0005_q000_m01_k00_force_uwb97xd_def2svp.wfn"


 ORIGINALITY CONSISTS NOT IN SAYING WHAT NO ONE HAS EVER SAID BEFORE, 
 BUT IN SAYING WHAT YOU THINK YOUR SELF.

                                    -- JAMES F. STEPHEN
 Job cpu time:       0 days  0 hours  0 minutes 35.6 seconds.
 Elapsed time:       0 days  0 hours  0 minutes 17.8 seconds.
 File lengths (MBytes):  RWF=     50 Int=      0 D2E=      0 Chk=      2 Scr=      1
 Normal termination of Gaussian 16 at Tue Jan  3 09:08:02 2023.
 Initial command:
 /opt/software/gaussian/g16.c01/l1.exe "/localscratch/bhavuk.2151424.0/Gau-20154.inp" -scrdir="/localscratch/bhavuk.2151424.0/"
 Entering Link 1 = /opt/software/gaussian/g16.c01/l1.exe PID=     20388.
  
 Copyright (c) 1988-2019, Gaussian, Inc.  All Rights Reserved.
  
 This is part of the Gaussian(R) 16 program.  It is based on
 the Gaussian(R) 09 system (copyright 2009, Gaussian, Inc.),
 the Gaussian(R) 03 system (copyright 2003, Gaussian, Inc.),
 the Gaussian(R) 98 system (copyright 1998, Gaussian, Inc.),
 the Gaussian(R) 94 system (copyright 1995, Gaussian, Inc.),
 the Gaussian 92(TM) system (copyright 1992, Gaussian, Inc.),
 the Gaussian 90(TM) system (copyright 1990, Gaussian, Inc.),
 the Gaussian 88(TM) system (copyright 1988, Gaussian, Inc.),
 the Gaussian 86(TM) system (copyright 1986, Carnegie Mellon
 University), and the Gaussian 82(TM) system (copyright 1983,
 Carnegie Mellon University). Gaussian is a federally registered
 trademark of Gaussian, Inc.
  
 This software contains proprietary and confidential information,
 including trade secrets, belonging to Gaussian, Inc.
  
 This software is provided under written license and may be
 used, copied, transmitted, or stored only in accord with that
 written license.
  
 The following legend is applicable only to US Government
 contracts under FAR:
  
                    RESTRICTED RIGHTS LEGEND
  
 Use, reproduction and disclosure by the US Government is
 subject to restrictions as set forth in subparagraphs (a)
 and (c) of the Commercial Computer Software - Restricted
 Rights clause in FAR 52.227-19.
  
 Gaussian, Inc.
 340 Quinnipiac St., Bldg. 40, Wallingford CT 06492
  
  
 ---------------------------------------------------------------
 Warning -- This program may not be used in any manner that
 competes with the business of Gaussian, Inc. or will provide
 assistance to any competitor of Gaussian, Inc.  The licensee
 of this program is prohibited from giving any competitor of
 Gaussian, Inc. access to this program.  By using this program,
 the user acknowledges that Gaussian, Inc. is engaged in the
 business of creating and licensing software in the field of
 computational chemistry and represents and warrants to the
 licensee that it is not a competitor of Gaussian, Inc. and that
 it will not use this program in any manner prohibited above.
 ---------------------------------------------------------------
  

 Cite this work as:
 Gaussian 16, Revision C.01,
 M. J. Frisch, G. W. Trucks, H. B. Schlegel, G. E. Scuseria, 
 M. A. Robb, J. R. Cheeseman, G. Scalmani, V. Barone, 
 G. A. Petersson, H. Nakatsuji, X. Li, M. Caricato, A. V. Marenich, 
 J. Bloino, B. G. Janesko, R. Gomperts, B. Mennucci, H. P. Hratchian, 
 J. V. Ortiz, A. F. Izmaylov, J. L. Sonnenberg, D. Williams-Young, 
 F. Ding, F. Lipparini, F. Egidi, J. Goings, B. Peng, A. Petrone, 
 T. Henderson, D. Ranasinghe, V. G. Zakrzewski, J. Gao, N. Rega, 
 G. Zheng, W. Liang, M. Hada, M. Ehara, K. Toyota, R. Fukuda, 
 J. Hasegawa, M. Ishida, T. Nakajima, Y. Honda, O. Kitao, H. Nakai, 
 T. Vreven, K. Throssell, J. A. Montgomery, Jr., J. E. Peralta, 
 F. Ogliaro, M. J. Bearpark, J. J. Heyd, E. N. Brothers, K. N. Kudin, 
 V. N. Staroverov, T. A. Keith, R. Kobayashi, J. Normand, 
 K. Raghavachari, A. P. Rendell, J. C. Burant, S. S. Iyengar, 
 J. Tomasi, M. Cossi, J. M. Millam, M. Klene, C. Adamo, R. Cammi, 
 J. W. Ochterski, R. L. Martin, K. Morokuma, O. Farkas, 
 J. B. Foresman, and D. J. Fox, Gaussian, Inc., Wallingford CT, 2019.
 
 ******************************************
 Gaussian 16:  ES64L-G16RevC.01  3-Jul-2019
                 3-Jan-2023 
 ******************************************
 %chk=0005_q000_m01_k00_force_uwb97xd_def2svp.chk
 %nprocshared=2
 Will use up to    2 processors via shared memory.
 %mem=4GB
 ----------------------------------------------------------------------
 #p uwb97xd/chkbasis force guess=read geom=check scf=(maxcycle=900,very
 tightlineq,xqc) integral=grid=ultrafine symmetry=None density=current 
 pop=(cm5,hlygat,mbs,npa) output=wfx
 ----------------------------------------------------------------------
 1/10=7,29=2,30=1,38=1/1,3;
 2/12=2,15=3,40=1/2;
 3/5=7,6=2,11=2,14=-4,25=1,30=1,67=1,71=1,74=-58,75=-5,116=2/1,2,3;
 4/5=1/1;
 5/5=2,7=900,8=3,13=1,17=3,38=6/2,8;
 6/7=2,8=2,9=2,10=2,15=8,20=15,22=-1,27=100,28=1,40=-1,79=1/1,2,7;
 7/29=1,30=1/1,2,3,16;
 1/10=7,30=1/3;
 99/6=200/99;
 Leave Link    1 at Tue Jan  3 09:08:02 2023, MaxMem=   536870912 cpu:               0.2 elap:               0.1
 (Enter /opt/software/gaussian/g16.c01/l101.exe)
 ----------------------------------------------------------------------
 0005_q000_m01_k00_opt_uwb97xd_def2svpd/0005_q000_m01_k00_force_uwb97xd
 _def2svp stable-force
 ----------------------------------------------------------------------
 Structure from the checkpoint file:  "0005_q000_m01_k00_force_uwb97xd_def2svp.chk"
 Charge =  0 Multiplicity = 1
 Z-Matrix found in chk file.
 C,0,0.9770245042,-0.0197961728,-0.1008273286
 S,0,2.5880021429,-0.0345660623,-0.126439068
 O,0,3.1712397907,-0.7143116203,-1.3164938758
 H,0,0.5180717789,0.4715880124,0.7588975415
 H,0,0.3708017881,-0.4702041579,-0.8890472689
 Recover connectivity data from disk.
 ITRead=  0  0  0  0  0
 MicOpt= -1 -1 -1 -1 -1
 NAtoms=      5 NQM=        5 NQMF=       0 NMMI=      0 NMMIF=      0
                NMic=       0 NMicF=      0.
                    Isotopes and Nuclear Properties:
 (Nuclear quadrupole moments (NQMom) in fm**2, nuclear magnetic moments (NMagM)
  in nuclear magnetons)

  Atom         1           2           3           4           5
 IAtWgt=          12          32          16           1           1
 AtmWgt=  12.0000000  31.9720718  15.9949146   1.0078250   1.0078250
 NucSpn=           0           0           0           1           1
 AtZEff=   3.6000000  13.6000000   5.6000000   1.0000000   1.0000000
 NQMom=    0.0000000   0.0000000   0.0000000   0.0000000   0.0000000
 NMagM=    0.0000000   0.0000000   0.0000000   2.7928460   2.7928460
 AtZNuc=   6.0000000  16.0000000   8.0000000   1.0000000   1.0000000
 Leave Link  101 at Tue Jan  3 09:08:02 2023, MaxMem=   536870912 cpu:               0.4 elap:               0.2
 (Enter /opt/software/gaussian/g16.c01/l103.exe)

 GradGradGradGradGradGradGradGradGradGradGradGradGradGradGradGradGradGrad
 Berny optimization.
 Initialization pass.
 Trust Radius=3.00D-01 FncErr=1.00D-07 GrdErr=1.00D-07 EigMax=2.50D+02 EigMin=1.00D-04
 Number of steps in this run=      2 maximum allowed number of steps=      2.
 GradGradGradGradGradGradGradGradGradGradGradGradGradGradGradGradGradGrad

 Leave Link  103 at Tue Jan  3 09:08:02 2023, MaxMem=   536870912 cpu:               0.0 elap:               0.0
 (Enter /opt/software/gaussian/g16.c01/l202.exe)
                          Input orientation:                          
 ---------------------------------------------------------------------
 Center     Atomic      Atomic             Coordinates (Angstroms)
 Number     Number       Type             X           Y           Z
 ---------------------------------------------------------------------
      1          6           0        0.977025   -0.019796   -0.100827
      2         16           0        2.588002   -0.034566   -0.126439
      3          8           0        3.171240   -0.714312   -1.316494
      4          1           0        0.518072    0.471588    0.758898
      5          1           0        0.370802   -0.470204   -0.889047
 ---------------------------------------------------------------------
                    Distance matrix (angstroms):
                    1          2          3          4          5
     1  C    0.000000
     2  S    1.611249   0.000000
     3  O    2.602840   1.489446   0.000000
     4  H    1.091432   2.307515   3.571121   0.000000
     5  H    1.091634   2.384812   2.843370   1.903781   0.000000
 Symmetry turned off by external request.
 Stoichiometry    CH2OS
 Rotational constants (GHZ):          39.0370487           9.3459813           7.5406507
 Leave Link  202 at Tue Jan  3 09:08:02 2023, MaxMem=   536870912 cpu:               0.0 elap:               0.0
 (Enter /opt/software/gaussian/g16.c01/l301.exe)
 Basis read from chk: "0005_q000_m01_k00_force_uwb97xd_def2svp.chk" (5D, 7F)
 No pseudopotential information found on chk file.
    56 basis functions,   101 primitive gaussians,    59 cartesian basis functions
    16 alpha electrons       16 beta electrons
       nuclear repulsion energy       102.7536228800 Hartrees.
 IExCor= 4639 DFT=T Ex+Corr=wB97XD ExCW=0 ScaHFX=  1.000000
 ScaDFX=  1.000000  1.000000  1.000000  1.000000 ScalE2=  1.000000  1.000000
 IRadAn=      5 IRanWt=     -1 IRanGd=            0 ICorTp=0 IEmpDi=121
 HFx  wShort=  0.000000 wLong=  0.200000 cFull=  0.222036 cShort=  0.000000 cLong=  0.777964
 DFx  wShort=  0.000000 wLong=  0.200000 cFull=  0.000000 cShort=  0.000000 cLong=  1.000000
 NAtoms=    5 NActive=    5 NUniq=    5 SFac= 1.00D+00 NAtFMM=   60 NAOKFM=F Big=F
 Integral buffers will be    131072 words long.
 Raffenetti 2 integral format.
 Two-electron integral symmetry is turned off.
 R6Disp:  Grimme-D2 Dispersion energy=       -0.0005194017 Hartrees.
 Nuclear repulsion after empirical dispersion term =      102.7531034782 Hartrees.
 No density basis found on file  20724.
 Leave Link  301 at Tue Jan  3 09:08:02 2023, MaxMem=   536870912 cpu:               0.1 elap:               0.1
 (Enter /opt/software/gaussian/g16.c01/l302.exe)
 NPDir=0 NMtPBC=     1 NCelOv=     1 NCel=       1 NClECP=     1 NCelD=      1
         NCelK=      1 NCelE2=     1 NClLst=     1 CellRange=     0.0.
 One-electron integrals computed using PRISM.
 NBasis=    56 RedAO= T EigKep=  8.61D-03  NBF=    56
 NBsUse=    56 1.00D-06 EigRej= -1.00D+00 NBFU=    56
 Precomputing XC quadrature grid using
 IXCGrd= 4 IRadAn=           5 IRanWt=          -1 IRanGd=           0 AccXCQ= 0.00D+00.
 Generated NRdTot=       0 NPtTot=           0 NUsed=           0 NTot=          32
 NSgBfM=    59    59    59    59    59 MxSgAt=     5 MxSgA2=     5.
 Leave Link  302 at Tue Jan  3 09:08:02 2023, MaxMem=   536870912 cpu:               0.3 elap:               0.1
 (Enter /opt/software/gaussian/g16.c01/l303.exe)
 DipDrv:  MaxL=1.
 Leave Link  303 at Tue Jan  3 09:08:02 2023, MaxMem=   536870912 cpu:               0.1 elap:               0.0
 (Enter /opt/software/gaussian/g16.c01/l401.exe)
 Initial guess from the checkpoint file:  "0005_q000_m01_k00_force_uwb97xd_def2svp.chk"
 B after Tr=     0.000000    0.000000    0.000000
         Rot=    1.000000    0.000000    0.000000    0.000000 Ang=   0.00 deg.
 Guess basis will be translated and rotated to current coordinates.
 JPrj=2 DoOrth=T DoCkMO=T.
 Initial guess <Sx>= 0.0000 <Sy>= 0.0000 <Sz>= 0.0000 <S**2>=-0.0000 S=-0.0000
 Leave Link  401 at Tue Jan  3 09:08:03 2023, MaxMem=   536870912 cpu:               0.2 elap:               0.1
 (Enter /opt/software/gaussian/g16.c01/l502.exe)
 Keep R1 and R2 ints in memory in canonical form, NReq=6952907.
 FoFCou: FMM=F IPFlag=           0 FMFlag=           0 FMFlg1=           0
         NFxFlg=           0 DoJE=F BraDBF=F KetDBF=F FulRan=T
         wScrn=  0.000000 ICntrl=       600 IOpCl=  0 I1Cent=           0 NGrid=           0
         NMat0=    1 NMatS0=   1596 NMatT0=    0 NMatD0=    1 NMtDS0=    0 NMtDT0=    0
 Symmetry not used in FoFCou.
 Two-electron integral symmetry not used.
 UHF open shell SCF:
 Using DIIS extrapolation, IDIIS=  1040.
 NGot=   536870912 LenX=   531765251 LenY=   531761329
 Requested convergence on RMS density matrix=1.00D-08 within 128 cycles.
 Requested convergence on MAX density matrix=1.00D-06.
 Requested convergence on             energy=1.00D-06.
 No special actions if energy rises.

 Cycle   1  Pass 1  IDiag  1:
 E= -512.391565795353    
 DIIS: error= 2.49D-09 at cycle   1 NSaved=   1.
 NSaved= 1 IEnMin= 1 EnMin= -512.391565795353     IErMin= 1 ErrMin= 2.49D-09
 ErrMax= 2.49D-09  0.00D+00 EMaxC= 1.00D-01 BMatC= 2.11D-15 BMatP= 2.11D-15
 IDIUse=1 WtCom= 1.00D+00 WtEn= 0.00D+00
 Coeff-Com:  0.100D+01
 Coeff:      0.100D+01
 Gap=     0.332 Goal=   None    Shift=    0.000
 Gap=     0.332 Goal=   None    Shift=    0.000
 RMSDP=9.41D-10 MaxDP=1.10D-08              OVMax= 1.46D-08

 SCF Done:  E(UwB97XD) =  -512.391565795     A.U. after    1 cycles
            NFock=  1  Conv=0.94D-09     -V/T= 2.0034
 <Sx>= 0.0000 <Sy>= 0.0000 <Sz>= 0.0000 <S**2>= 0.0000 S= 0.0000
 <L.S>=  0.00000000000    
 KE= 5.106302218155D+02 PE=-1.419534962497D+03 EE= 2.937600714083D+02
 Annihilation of the first spin contaminant:
 S**2 before annihilation     0.0000,   after     0.0000
 Leave Link  502 at Tue Jan  3 09:08:03 2023, MaxMem=   536870912 cpu:               1.4 elap:               0.7
 (Enter /opt/software/gaussian/g16.c01/l508.exe)
 QCSCF skips out because SCF is already converged.
 Leave Link  508 at Tue Jan  3 09:08:03 2023, MaxMem=   536870912 cpu:               0.0 elap:               0.0
 (Enter /opt/software/gaussian/g16.c01/l601.exe)
 Copying SCF densities to generalized density rwf, IOpCl= 1 IROHF=0.

 **********************************************************************

            Population analysis using the SCF Density.

 **********************************************************************

 Alpha  occ. eigenvalues --  -89.12772 -19.24508 -10.34582  -8.17065  -6.12366
 Alpha  occ. eigenvalues --   -6.12180  -6.11801  -1.13247  -0.89390  -0.68846
 Alpha  occ. eigenvalues --   -0.57479  -0.54359  -0.50598  -0.46835  -0.35890
 Alpha  occ. eigenvalues --   -0.34471
 Alpha virt. eigenvalues --   -0.01279   0.11712   0.15369   0.21058   0.23093
 Alpha virt. eigenvalues --    0.38892   0.48059   0.55667   0.56861   0.56910
 Alpha virt. eigenvalues --    0.66690   0.70591   0.71464   0.72613   0.73746
 Alpha virt. eigenvalues --    0.80066   0.83772   0.93093   1.02823   1.09379
 Alpha virt. eigenvalues --    1.11462   1.16790   1.24276   1.26207   1.40155
 Alpha virt. eigenvalues --    1.61244   1.61929   1.73499   2.04913   2.08751
 Alpha virt. eigenvalues --    2.09395   2.26711   2.45079   2.73080   2.73514
 Alpha virt. eigenvalues --    2.80388   2.85493   2.92600   2.99704   3.38582
  Beta  occ. eigenvalues --  -89.12772 -19.24508 -10.34582  -8.17065  -6.12366
  Beta  occ. eigenvalues --   -6.12180  -6.11801  -1.13247  -0.89390  -0.68846
  Beta  occ. eigenvalues --   -0.57479  -0.54359  -0.50598  -0.46835  -0.35890
  Beta  occ. eigenvalues --   -0.34471
  Beta virt. eigenvalues --   -0.01279   0.11712   0.15369   0.21058   0.23093
  Beta virt. eigenvalues --    0.38892   0.48059   0.55667   0.56861   0.56910
  Beta virt. eigenvalues --    0.66690   0.70591   0.71464   0.72613   0.73746
  Beta virt. eigenvalues --    0.80066   0.83772   0.93093   1.02823   1.09379
  Beta virt. eigenvalues --    1.11462   1.16790   1.24276   1.26207   1.40155
  Beta virt. eigenvalues --    1.61244   1.61929   1.73499   2.04913   2.08751
  Beta virt. eigenvalues --    2.09395   2.26711   2.45079   2.73080   2.73514
  Beta virt. eigenvalues --    2.80388   2.85493   2.92600   2.99704   3.38582
          Condensed to atoms (all electrons):
               1          2          3          4          5
     1  C    5.216765   0.341921  -0.056397   0.355661   0.383606
     2  S    0.341921  14.823963   0.328301  -0.006165  -0.007612
     3  O   -0.056397   0.328301   8.236990   0.002583   0.003108
     4  H    0.355661  -0.006165   0.002583   0.550990  -0.012090
     5  H    0.383606  -0.007612   0.003108  -0.012090   0.505464
          Atomic-Atomic Spin Densities.
               1          2          3          4          5
     1  C    0.000000   0.000000   0.000000   0.000000   0.000000
     2  S    0.000000   0.000000   0.000000   0.000000   0.000000
     3  O    0.000000   0.000000   0.000000   0.000000   0.000000
     4  H    0.000000   0.000000   0.000000   0.000000   0.000000
     5  H    0.000000   0.000000   0.000000   0.000000   0.000000
 Mulliken charges and spin densities:
               1          2
     1  C   -0.241556   0.000000
     2  S    0.519593   0.000000
     3  O   -0.514584   0.000000
     4  H    0.109023   0.000000
     5  H    0.127525   0.000000
 Sum of Mulliken charges =   0.00000   0.00000
 Mulliken charges and spin densities with hydrogens summed into heavy atoms:
               1          2
     1  C   -0.005009   0.000000
     2  S    0.519593   0.000000
     3  O   -0.514584   0.000000
 Electronic spatial extent (au):  <R**2>=            826.8958
 Charge=              0.0000 electrons
 Dipole moment (field-independent basis, Debye):
    X=             -2.2034    Y=              1.1479    Z=              2.0096  Tot=              3.1955
 Quadrupole moment (field-independent basis, Debye-Ang):
   XX=            -33.2353   YY=            -25.0277   ZZ=            -26.7904
   XY=              3.8786   XZ=              6.9359   YZ=             -1.3443
 Traceless Quadrupole moment (field-independent basis, Debye-Ang):
   XX=             -4.8841   YY=              3.3234   ZZ=              1.5607
   XY=              3.8786   XZ=              6.9359   YZ=             -1.3443
 Octapole moment (field-independent basis, Debye-Ang**2):
  XXX=           -195.4881  YYY=             13.5461  ZZZ=             32.5807  XYY=            -56.4981
  XXY=             16.9593  XXZ=             31.8847  XZZ=            -65.2860  YZZ=              7.3984
  YYZ=             10.7156  XYZ=             -6.9384
 Hexadecapole moment (field-independent basis, Debye-Ang**3):
 XXXX=           -982.7022 YYYY=            -43.7873 ZZZZ=            -94.0972 XXXY=             81.3230
 XXXZ=            155.2673 YYYX=             41.6473 YYYZ=            -17.9663 ZZZX=             96.7504
 ZZZY=            -20.3327 XXYY=           -158.9132 XXZZ=           -196.0527 YYZZ=            -23.6370
 XXYZ=            -29.1640 YYXZ=             31.5858 ZZXY=             23.1000
 N-N= 1.027531034782D+02 E-N=-1.419534962719D+03  KE= 5.106302218155D+02
 There are a total of      108918 grid points.
 ElSum from          density=       31.9999994535
 ElSum from atomic densities=       32.0000000648
 Hirshfeld populations at iteration   1 (CA, CB, DipXYZ):
               1          2          3          4          5
     1  C    3.047542   3.047542  -0.077155  -0.003745  -0.006585
     2  S    7.844535   7.844535   0.040150  -0.042619  -0.074547
     3  O    4.168542   4.168542  -0.067260   0.061428   0.107527
     4  H    0.471495   0.471495  -0.083086   0.078012   0.136476
     5  H    0.467885   0.467885  -0.105365  -0.073440  -0.128512
       Tot  16.000000  16.000000  -0.292716   0.019636   0.034359

 Dip from Atomic Chgs             -0.574162   0.431994   0.756275
         Total Dipole             -0.866878   0.451630   0.790633

 Hirshfeld charges, spin densities, dipoles, and CM5 charges using IRadAn=      5:
              Q-H        S-H        Dx         Dy         Dz        Q-CM5   
     1  C   -0.095085   0.000000  -0.077155  -0.003745  -0.006585  -0.170594
     2  S    0.310930   0.000000   0.040150  -0.042619  -0.074547   0.319508
     3  O   -0.337083   0.000000  -0.067260   0.061428   0.107527  -0.378066
     4  H    0.057010   0.000000  -0.083086   0.078012   0.136476   0.110836
     5  H    0.064229   0.000000  -0.105365  -0.073440  -0.128512   0.118316
       Tot   0.000001   0.000000  -0.292716   0.019636   0.034359   0.000001
 Hirshfeld charges and spin densities with hydrogens summed into heavy atoms:
              Q-H        S-H       Q-CM5   
     1  C    0.026154   0.000000   0.058558
     2  S    0.310930   0.000000   0.319508
     3  O   -0.337083   0.000000  -0.378066
 
 EQQ=  0.00000000000     EQD=  0.00000000000     EDD= 0.586698582191E-03
 EQQ+QD+DD= 0.586698582191E-03
 
 GSVD:  LWork=        -884 too small for GESVD, short by        3770 words or        3770 for optimal perf.
          MBS Condensed to atoms (all electrons):
               1          2          3          4          5
     1  C    5.010122   0.470695  -0.014176   0.379064   0.373649
     2  S    0.470695  14.827980   0.445769  -0.020814  -0.015172
     3  O   -0.014176   0.445769   7.923859   0.000348  -0.000043
     4  H    0.379064  -0.020814   0.000348   0.520517  -0.015675
     5  H    0.373649  -0.015172  -0.000043  -0.015675   0.510232
          MBS Atomic-Atomic Spin Densities.
               1          2          3          4          5
     1  C    0.000000   0.000000  -0.000000   0.000000   0.000000
     2  S    0.000000   0.000000   0.000000   0.000000   0.000000
     3  O   -0.000000   0.000000   0.000000  -0.000000  -0.000000
     4  H    0.000000   0.000000  -0.000000  -0.000000   0.000000
     5  H    0.000000   0.000000  -0.000000   0.000000   0.000000
 MBS Mulliken charges and spin densities:
               1          2
     1  C   -0.219354   0.000000
     2  S    0.291543   0.000000
     3  O   -0.355757   0.000000
     4  H    0.136559  -0.000000
     5  H    0.147009   0.000000
 Sum of MBS Mulliken charges =   0.00000   0.00000
 MBS Mulliken charges and spin densities with hydrogens summed into heavy atoms:
               1          2
     1  C    0.064214   0.000000
     2  S    0.291543   0.000000
     3  O   -0.355757   0.000000
 MBS Atomic Valencies and Mayer Atomic Bond Orders:
               1          2          3          4          5
     1  C    3.928350   1.765045   0.274366   0.945625   0.943313
     2  S    1.765045   3.707498   1.899032   0.017486   0.025933
     3  O    0.274366   1.899032   2.196013   0.015857   0.006758
     4  H    0.945625   0.017486   0.015857   0.981352   0.002384
     5  H    0.943313   0.025933   0.006758   0.002384   0.978388
 MBS Mayer-style numbers of lone pairs (16.000 valence pairs, 10.104 lone pairs):
               1
     1  C    1.145502
     2  S    6.000480
     3  O    3.079872
     4  H   -0.058955
     5  H   -0.062699
 BEBO parameters in MulMin, MxElBE=  0:
 ELP=  0.00000000000     EBEBO= 0.358229063423E-01 Sum= 0.358229063423E-01
 ELP=  0.00000000000     EBEBO= 0.358229063423E-01 EJK= 0.358229063423E-01  0.00000000000     Sum= 0.358229063423E-01
 0 EA= 0.179114531712E-01 EB= 0.179114531712E-01 ETot= 0.358229063423E-01
 1 EA= 0.179114531712E-01 EB= 0.179114531712E-01 ETot= 0.358229063423E-01
 2 EA= 0.179114531712E-01 EB= 0.179114531712E-01 ETot= 0.358229063423E-01
 3 EJ= 0.358229063423E-01 EK=  0.00000000000     ETot= 0.358229063423E-01
 4 EJ= 0.358229063423E-01 EK=  0.00000000000     ETot= 0.358229063423E-01
 5 EA= 0.179114531712E-01 EB= 0.179114531712E-01 ETot= 0.358229063423E-01
                          Isotropic Fermi Contact Couplings
        Atom                 a.u.       MegaHertz       Gauss      10(-4) cm-1
     1  C(13)              0.00000       0.00000       0.00000       0.00000
     2  S(33)              0.00000       0.00000       0.00000       0.00000
     3  O(17)              0.00000      -0.00000      -0.00000      -0.00000
     4  H(1)               0.00000       0.00000       0.00000       0.00000
     5  H(1)               0.00000       0.00000       0.00000       0.00000
 --------------------------------------------------------
       Center         ----  Spin Dipole Couplings  ----
                      3XX-RR        3YY-RR        3ZZ-RR
 --------------------------------------------------------
     1   Atom        0.000000      0.000000      0.000000
     2   Atom        0.000000      0.000000      0.000000
     3   Atom        0.000000      0.000000      0.000000
     4   Atom        0.000000      0.000000      0.000000
     5   Atom        0.000000      0.000000      0.000000
 --------------------------------------------------------
                        XY            XZ            YZ
 --------------------------------------------------------
     1   Atom        0.000000      0.000000      0.000000
     2   Atom        0.000000      0.000000      0.000000
     3   Atom        0.000000      0.000000      0.000000
     4   Atom        0.000000      0.000000      0.000000
     5   Atom        0.000000      0.000000      0.000000
 --------------------------------------------------------


 ---------------------------------------------------------------------------------
              Anisotropic Spin Dipole Couplings in Principal Axis System
 ---------------------------------------------------------------------------------

       Atom             a.u.   MegaHertz   Gauss  10(-4) cm-1        Axes

              Baa     0.0000     0.000     0.000     0.000  1.0000  0.0000  0.0000
     1 C(13)  Bbb     0.0000     0.000     0.000     0.000 -0.0000  1.0000  0.0000
              Bcc     0.0000     0.000     0.000     0.000  0.0000  0.0000  1.0000
 
              Baa     0.0000     0.000     0.000     0.000  1.0000  0.0000  0.0000
     2 S(33)  Bbb     0.0000     0.000     0.000     0.000 -0.0000  1.0000  0.0000
              Bcc     0.0000     0.000     0.000     0.000  0.0000  0.0000  1.0000
 
              Baa     0.0000    -0.000    -0.000    -0.000  1.0000  0.0000  0.0000
     3 O(17)  Bbb     0.0000    -0.000    -0.000    -0.000 -0.0000  1.0000  0.0000
              Bcc     0.0000    -0.000    -0.000    -0.000  0.0000  0.0000  1.0000
 
              Baa     0.0000     0.000     0.000     0.000  1.0000  0.0000  0.0000
     4 H(1)   Bbb     0.0000     0.000     0.000     0.000 -0.0000  1.0000  0.0000
              Bcc     0.0000     0.000     0.000     0.000  0.0000  0.0000  1.0000
 
              Baa     0.0000     0.000     0.000     0.000  1.0000  0.0000  0.0000
     5 H(1)   Bbb     0.0000     0.000     0.000     0.000 -0.0000  1.0000  0.0000
              Bcc     0.0000     0.000     0.000     0.000  0.0000  0.0000  1.0000
 

 ---------------------------------------------------------------------------------

 No NMR shielding tensors so no spin-rotation constants.
 Leave Link  601 at Tue Jan  3 09:08:04 2023, MaxMem=   536870912 cpu:               0.6 elap:               0.3
 (Enter /opt/software/gaussian/g16.c01/l602.exe)
 FitSet:  NAtFit=     5 NAtPot=     5 NAtFrz=     0 MDM=     9 TotChg=   0.00000
 Generate Potential Derived Charges using the Hu-Lu-Yang model:
 IRhTyp=1 IRadAn=         2 Sigma=    0.800 Ln(Rho0)=    -9.00 ThrGrd= 1.00D-08 Tiny= 1.00D-08
       5861 gridpoints compressed to      1421.

 **********************************************************************

            Electrostatic Properties Using The SCF Density.

 **********************************************************************

       Atomic Center    1 is at   0.977025 -0.019796 -0.100827
       Atomic Center    2 is at   2.588002 -0.034566 -0.126439
       Atomic Center    3 is at   3.171240 -0.714312 -1.316494
       Atomic Center    4 is at   0.518072  0.471588  0.758898
       Atomic Center    5 is at   0.370802 -0.470204 -0.889047
    1421 points will be used for fitting atomic charges
 Fitting point charges to electrostatic potential
 Charges from ESP fit, RMS=   0.00171 RRMS=   0.15506:
 ESP charges:
               1
     1  C   -0.293275
     2  S    0.332146
     3  O   -0.366713
     4  H    0.142471
     5  H    0.185371
 Sum of ESP charges =  -0.00000
 ESP charges with hydrogens summed into heavy atoms:
               1
     1  C    0.034568
     2  S    0.332146
     3  O   -0.366713
 Charge=  -0.00000 Dipole=    -2.1486     1.1350     1.9869 Tot=     3.1389
 -----------------------------------------------------------------

              Electrostatic Properties (Atomic Units)

 -----------------------------------------------------------------
    Center     Electric         -------- Electric Field --------
               Potential          X             Y             Z
 -----------------------------------------------------------------
    1 Atom    -14.673381
    2 Atom    -59.077917
    3 Atom    -22.333467
    4 Atom     -1.034893
    5 Atom     -1.038134
 -----------------------------------------------------------------
 Leave Link  602 at Tue Jan  3 09:08:04 2023, MaxMem=   536870912 cpu:               0.1 elap:               0.1
 (Enter /opt/software/gaussian/g16.c01/l607.exe)
 ******************************Gaussian NBO Version 3.1******************************
             N A T U R A L   A T O M I C   O R B I T A L   A N D
          N A T U R A L   B O N D   O R B I T A L   A N A L Y S I S
 ******************************Gaussian NBO Version 3.1******************************
       /RESON  / : Allow strongly delocalized NBO set

 Analyzing the SCF density

 Job title: 0005_q000_m01_k00_opt_uwb97xd_def2svpd/0005_q000_m01_k00_force_u

 Storage needed:      9716 in NPA ( 536870747 available)


 NATURAL POPULATIONS:  Natural atomic orbital occupancies 
                                                          
   NAO  Atom  No  lang   Type(AO)    Occupancy
 --------------------------------------------
     1    C    1  S      Cor( 1S)     1.99937
     2    C    1  S      Val( 2S)     1.18332
     3    C    1  S      Ryd( 3S)     0.00154
     4    C    1  px     Val( 2p)     1.11318
     5    C    1  px     Ryd( 3p)     0.00692
     6    C    1  py     Val( 2p)     1.17692
     7    C    1  py     Ryd( 3p)     0.00472
     8    C    1  pz     Val( 2p)     1.23451
     9    C    1  pz     Ryd( 3p)     0.00293
    10    C    1  dxy    Ryd( 3d)     0.00089
    11    C    1  dxz    Ryd( 3d)     0.00067
    12    C    1  dyz    Ryd( 3d)     0.00033
    13    C    1  dx2y2  Ryd( 3d)     0.00052
    14    C    1  dz2    Ryd( 3d)     0.00034
 
    15    S    2  S      Cor( 1S)     2.00000
    16    S    2  S      Cor( 2S)     1.99907
    17    S    2  S      Val( 3S)     1.55173
    18    S    2  S      Ryd( 4S)     0.02865
    19    S    2  px     Cor( 2p)     1.99977
    20    S    2  px     Val( 3p)     1.05481
    21    S    2  px     Ryd( 4p)     0.00556
    22    S    2  py     Cor( 2p)     1.99987
    23    S    2  py     Val( 3p)     1.11993
    24    S    2  py     Ryd( 4p)     0.00297
    25    S    2  pz     Cor( 2p)     1.99989
    26    S    2  pz     Val( 3p)     1.05229
    27    S    2  pz     Ryd( 4p)     0.00698
    28    S    2  dxy    Ryd( 3d)     0.01884
    29    S    2  dxz    Ryd( 3d)     0.01587
    30    S    2  dyz    Ryd( 3d)     0.00935
[...]
    21    S    2  px     Ryd( 4p)     0.00278       0.82609
    22    S    2  py     Cor( 2p)     0.99993      -6.11548
    23    S    2  py     Val( 3p)     0.55996      -0.25822
    24    S    2  py     Ryd( 4p)     0.00148       0.77301
    25    S    2  pz     Cor( 2p)     0.99995      -6.11307
    26    S    2  pz     Val( 3p)     0.52615      -0.21277
    27    S    2  pz     Ryd( 4p)     0.00349       0.79268
    28    S    2  dxy    Ryd( 3d)     0.00942       0.76989
    29    S    2  dxz    Ryd( 3d)     0.00793       0.87144
    30    S    2  dyz    Ryd( 3d)     0.00467       0.84503
    31    S    2  dx2y2  Ryd( 3d)     0.01098       0.93400
    32    S    2  dz2    Ryd( 3d)     0.00987       0.86802
 
    33    O    3  S      Cor( 1S)     0.99992     -19.05208
    34    O    3  S      Val( 2S)     0.91477      -1.02304
    35    O    3  S      Ryd( 3S)     0.00107       1.42773
    36    O    3  px     Val( 2p)     0.90725      -0.36160
    37    O    3  px     Ryd( 3p)     0.00092       1.12785
    38    O    3  py     Val( 2p)     0.81234      -0.34249
    39    O    3  py     Ryd( 3p)     0.00052       1.08893
    40    O    3  pz     Val( 2p)     0.78415      -0.35915
    41    O    3  pz     Ryd( 3p)     0.00030       1.08898
    42    O    3  dxy    Ryd( 3d)     0.00030       2.80511
    43    O    3  dxz    Ryd( 3d)     0.00063       2.93210
    44    O    3  dyz    Ryd( 3d)     0.00062       2.97190
    45    O    3  dx2y2  Ryd( 3d)     0.00030       2.77308
    46    O    3  dz2    Ryd( 3d)     0.00076       2.91741
 
    47    H    4  S      Val( 1S)     0.37947       0.05806
    48    H    4  S      Ryd( 2S)     0.00068       0.36873
    49    H    4  px     Ryd( 2p)     0.00013       1.93245
    50    H    4  py     Ryd( 2p)     0.00017       1.81497
    51    H    4  pz     Ryd( 2p)     0.00028       2.14645
 
    52    H    5  S      Val( 1S)     0.37711       0.07265
    53    H    5  S      Ryd( 2S)     0.00108       0.37117
    54    H    5  px     Ryd( 2p)     0.00014       2.02521
    55    H    5  py     Ryd( 2p)     0.00013       1.80497
    56    H    5  pz     Ryd( 2p)     0.00025       2.09475


 Summary of Natural Population Analysis:                  
                                                          
                                       Natural Population 
                Natural  -----------------------------------------------
    Atom  No    Charge         Core      Valence    Rydberg      Total
 -----------------------------------------------------------------------
      C    1   -0.36307      0.99968     2.35396    0.00943     3.36307
      S    2    0.54636      4.99930     2.38939    0.06496     7.45364
      O    3   -0.42385      0.99992     3.41851    0.00542     4.42385
      H    4    0.11927      0.00000     0.37947    0.00126     0.38073
      H    5    0.12130      0.00000     0.37711    0.00160     0.37870
 =======================================================================
   * Total *    0.00000      6.99890     8.91844    0.08266    16.00000

                                 Natural Population      
 --------------------------------------------------------
   Core                       6.99890 ( 99.9843% of   7)
   Valence                    8.91844 ( 99.0937% of   9)
   Natural Minimal Basis     15.91734 ( 99.4833% of  16)
   Natural Rydberg Basis      0.08266 (  0.5167% of  16)
 --------------------------------------------------------

    Atom  No          Natural Electron Configuration
 ----------------------------------------------------------------------------
      C    1      [core]2S( 0.59)2p( 1.76)3p( 0.01)
      S    2      [core]3S( 0.78)3p( 1.61)4S( 0.01)3d( 0.04)4p( 0.01)
      O    3      [core]2S( 0.91)2p( 2.50)
      H    4            1S( 0.38)
      H    5            1S( 0.38)


 NBO analysis skipped by request.


 ***************************************************
 *******         Beta  spin orbitals         *******
 ***************************************************


 NATURAL POPULATIONS:  Natural atomic orbital occupancies 
                                                          
   NAO  Atom  No  lang   Type(AO)    Occupancy      Energy
 ----------------------------------------------------------
     1    C    1  S      Cor( 1S)     0.99968     -10.25216
     2    C    1  S      Val( 2S)     0.59166      -0.37773
     3    C    1  S      Ryd( 3S)     0.00077       0.56605
     4    C    1  px     Val( 2p)     0.55659      -0.18844
     5    C    1  px     Ryd( 3p)     0.00346       0.54248
     6    C    1  py     Val( 2p)     0.58846      -0.18767
     7    C    1  py     Ryd( 3p)     0.00236       0.61188
     8    C    1  pz     Val( 2p)     0.61726      -0.15126
     9    C    1  pz     Ryd( 3p)     0.00147       0.70293
    10    C    1  dxy    Ryd( 3d)     0.00044       2.06363
    11    C    1  dxz    Ryd( 3d)     0.00033       2.32422
    12    C    1  dyz    Ryd( 3d)     0.00016       2.21233
    13    C    1  dx2y2  Ryd( 3d)     0.00026       2.20148
    14    C    1  dz2    Ryd( 3d)     0.00017       2.14748
 
    15    S    2  S      Cor( 1S)     1.00000     -88.27607
    16    S    2  S      Cor( 2S)     0.99953      -8.78285
    17    S    2  S      Val( 3S)     0.77587      -0.74512
    18    S    2  S      Ryd( 4S)     0.01433       0.50509
    19    S    2  px     Cor( 2p)     0.99988      -6.11212
    20    S    2  px     Val( 3p)     0.52741      -0.18926
    21    S    2  px     Ryd( 4p)     0.00278       0.82609
    22    S    2  py     Cor( 2p)     0.99993      -6.11548
    23    S    2  py     Val( 3p)     0.55996      -0.25822
    24    S    2  py     Ryd( 4p)     0.00148       0.77301
    25    S    2  pz     Cor( 2p)     0.99995      -6.11307
    26    S    2  pz     Val( 3p)     0.52615      -0.21277
    27    S    2  pz     Ryd( 4p)     0.00349       0.79268
    28    S    2  dxy    Ryd( 3d)     0.00942       0.76989
    29    S    2  dxz    Ryd( 3d)     0.00793       0.87144
    30    S    2  dyz    Ryd( 3d)     0.00467       0.84503
    31    S    2  dx2y2  Ryd( 3d)     0.01098       0.93400
    32    S    2  dz2    Ryd( 3d)     0.00987       0.86802
 
    33    O    3  S      Cor( 1S)     0.99992     -19.05208
    34    O    3  S      Val( 2S)     0.91477      -1.02304
    35    O    3  S      Ryd( 3S)     0.00107       1.42773
    36    O    3  px     Val( 2p)     0.90725      -0.36160
    37    O    3  px     Ryd( 3p)     0.00092       1.12785
    38    O    3  py     Val( 2p)     0.81234      -0.34249
    39    O    3  py     Ryd( 3p)     0.00052       1.08893
    40    O    3  pz     Val( 2p)     0.78415      -0.35915
    41    O    3  pz     Ryd( 3p)     0.00030       1.08898
    42    O    3  dxy    Ryd( 3d)     0.00030       2.80511
    43    O    3  dxz    Ryd( 3d)     0.00063       2.93210
    44    O    3  dyz    Ryd( 3d)     0.00062       2.97190
    45    O    3  dx2y2  Ryd( 3d)     0.00030       2.77308
    46    O    3  dz2    Ryd( 3d)     0.00076       2.91741
 
    47    H    4  S      Val( 1S)     0.37947       0.05806
    48    H    4  S      Ryd( 2S)     0.00068       0.36873
    49    H    4  px     Ryd( 2p)     0.00013       1.93245
    50    H    4  py     Ryd( 2p)     0.00017       1.81497
    51    H    4  pz     Ryd( 2p)     0.00028       2.14645
 
    52    H    5  S      Val( 1S)     0.37711       0.07265
    53    H    5  S      Ryd( 2S)     0.00108       0.37117
    54    H    5  px     Ryd( 2p)     0.00014       2.02521
    55    H    5  py     Ryd( 2p)     0.00013       1.80497
    56    H    5  pz     Ryd( 2p)     0.00025       2.09475


 Summary of Natural Population Analysis:                  
                                                          
                                       Natural Population 
                Natural  -----------------------------------------------
    Atom  No    Charge         Core      Valence    Rydberg      Total
 -----------------------------------------------------------------------
      C    1   -0.36307      0.99968     2.35396    0.00943     3.36307
      S    2    0.54636      4.99930     2.38939    0.06496     7.45364
      O    3   -0.42385      0.99992     3.41851    0.00542     4.42385
      H    4    0.11927      0.00000     0.37947    0.00126     0.38073
      H    5    0.12130      0.00000     0.37711    0.00160     0.37870
 =======================================================================
   * Total *    0.00000      6.99890     8.91844    0.08266    16.00000

                                 Natural Population      
 --------------------------------------------------------
   Core                       6.99890 ( 99.9843% of   7)
   Valence                    8.91844 ( 99.0937% of   9)
   Natural Minimal Basis     15.91734 ( 99.4833% of  16)
   Natural Rydberg Basis      0.08266 (  0.5167% of  16)
 --------------------------------------------------------

    Atom  No          Natural Electron Configuration
 ----------------------------------------------------------------------------
      C    1      [core]2S( 0.59)2p( 1.76)3p( 0.01)
      S    2      [core]3S( 0.78)3p( 1.61)4S( 0.01)3d( 0.04)4p( 0.01)
      O    3      [core]2S( 0.91)2p( 2.50)
      H    4            1S( 0.38)
      H    5            1S( 0.38)


 NBO analysis skipped by request.
 Leave Link  607 at Tue Jan  3 09:08:06 2023, MaxMem=   536870912 cpu:               3.6 elap:               1.8
 (Enter /opt/software/gaussian/g16.c01/l701.exe)
 ... and contract with generalized density number  0.
 Compute integral first derivatives.
 R6Disp: Adding Grimme-D2 dispersion energy 1st derivatives to the gradient.
 Leave Link  701 at Tue Jan  3 09:08:06 2023, MaxMem=   536870912 cpu:               0.2 elap:               0.1
 (Enter /opt/software/gaussian/g16.c01/l702.exe)
 L702 exits ... SP integral derivatives will be done elsewhere.
 Leave Link  702 at Tue Jan  3 09:08:06 2023, MaxMem=   536870912 cpu:               0.1 elap:               0.0
 (Enter /opt/software/gaussian/g16.c01/l703.exe)
 Integral derivatives from FoFJK, PRISM(SPDF).
 Compute integral first derivatives, UseDBF=F ICtDFT=           0.
 Calling FoFJK, ICntrl=      2127 FMM=F ISym2X=0 I1Cent= 0 IOpClX= 1 NMat=1 NMatS=1 NMatT=0.
 FoFJK:  IHMeth= 1 ICntrl=    2127 DoSepK=T KAlg= 0 I1Cent=           0 FoldK=F
 IRaf=         1 NMat=       1 IRICut=       1 DoRegI=T DoRafI=F ISym2E= 0 IDoP0=0 IntGTp=1.
 FoFCou: FMM=F IPFlag=           0 FMFlag=      100000 FMFlg1=         800
         NFxFlg=           0 DoJE=F BraDBF=F KetDBF=F FulRan=T
         wScrn=  0.000000 ICntrl=      2527 IOpCl=  0 I1Cent=           0 NGrid=           0
         NMat0=    1 NMatS0=      1 NMatT0=    0 NMatD0=    1 NMtDS0=    0 NMtDT0=    0
 Symmetry not used in FoFCou.
 Leave Link  703 at Tue Jan  3 09:08:07 2023, MaxMem=   536870912 cpu:               2.4 elap:               1.2
 (Enter /opt/software/gaussian/g16.c01/l716.exe)
 Dipole        =-8.66880110D-01 4.51630450D-01 7.90634606D-01
 -------------------------------------------------------------------
 Center     Atomic                   Forces (Hartrees/Bohr)
 Number     Number              X              Y              Z
 -------------------------------------------------------------------
      1        6           0.001461386    0.000987181    0.001730582
      2       16           0.002896524   -0.005424045   -0.009490931
      3        8          -0.002735270    0.004637041    0.008103710
      4        1          -0.001059239    0.000335022    0.000600794
      5        1          -0.000563401   -0.000535199   -0.000944155
 -------------------------------------------------------------------
 Cartesian Forces:  Max     0.009490931 RMS     0.003930542
 Z-matrix is all fixed cartesians, so copy forces.
 Force constants in Cartesian coordinates: 
                1             2             3             4             5 
      1  0.829676D+00
      2  0.511240D-02  0.243810D+00
      3  0.905768D-02  0.234956D+00  0.520669D+00
      4 -0.491409D+00 -0.959762D-02 -0.168745D-01  0.641682D+00
      5  0.287596D-02 -0.491361D-01 -0.278604D-01 -0.128355D+00  0.207963D+00
      6  0.496707D-02 -0.278624D-01 -0.819862D-01 -0.224638D+00  0.320470D+00
      7  0.492524D-03  0.133103D-01  0.233039D-01 -0.150309D+00  0.124519D+00
      8  0.104201D-03  0.602149D-02  0.308174D-02  0.137725D+00 -0.180658D+00
      9  0.181864D-03  0.308386D-02  0.966084D-02  0.241117D+00 -0.294338D+00
     10 -0.151987D+00  0.492920D-01  0.862296D-01  0.424157D-03  0.114682D-01
     11  0.447359D-01 -0.101753D+00 -0.113561D+00  0.975664D-04  0.365001D-02
     12  0.782568D-01 -0.113560D+00 -0.235538D+00  0.170666D-03  0.403592D-02
     13 -0.186773D+00 -0.581171D-01 -0.101717D+00 -0.388712D-03 -0.105080D-01
     14 -0.528284D-01 -0.989424D-01 -0.966159D-01  0.130067D-03  0.181809D-01
     15 -0.924634D-01 -0.966168D-01 -0.212806D+00  0.224637D-03 -0.230723D-02
                6             7             8             9            10 
      6  0.585965D+00
      7  0.217995D+00  0.149816D+00
      8 -0.294336D+00 -0.137829D+00  0.174946D+00
      9 -0.527847D+00 -0.241299D+00  0.291077D+00  0.518287D+00
     10  0.200660D-01  0.000000D+00  0.000000D+00  0.000000D+00  0.123189D+00
     11  0.403202D-02  0.000000D+00  0.453529D-02 -0.259031D-02 -0.513576D-01
     12  0.840740D-02  0.000000D+00 -0.259199D-02  0.148040D-02 -0.898457D-01
     13 -0.183902D-01  0.000000D+00  0.000000D+00  0.000000D+00  0.283742D-01
     14 -0.230345D-02  0.000000D+00 -0.484560D-02  0.276754D-02 -0.940299D-02
     15  0.154602D-01  0.000000D+00  0.276920D-02 -0.158162D-02 -0.164496D-01
               11            12            13            14            15 
     11  0.877574D-01
     12  0.120457D+00  0.229666D+00
     13  0.652373D-02  0.114185D-01  0.158787D+00
     14  0.581069D-02 -0.834082D-02  0.621018D-01  0.797964D-01
     15 -0.833779D-02 -0.401584D-02  0.108688D+00  0.104493D+00  0.202943D+00
 Leave Link  716 at Tue Jan  3 09:08:07 2023, MaxMem=   536870912 cpu:               0.1 elap:               0.0
 (Enter /opt/software/gaussian/g16.c01/l103.exe)

 GradGradGradGradGradGradGradGradGradGradGradGradGradGradGradGradGradGrad
 Berny optimization.
 Search for a local minimum.
 Step number   1 out of a maximum of    2
 All quantities printed in internal units (Hartrees-Bohrs-Radians)
 Second derivative matrix not updated -- first step.
 The second derivative matrix:
                          X1        Y1        Z1        X2        Y2
           X1           0.82968
           Y1           0.00511   0.24381
           Z1           0.00906   0.23496   0.52067
           X2          -0.49141  -0.00960  -0.01687   0.64168
           Y2           0.00288  -0.04914  -0.02786  -0.12836   0.20796
           Z2           0.00497  -0.02786  -0.08199  -0.22464   0.32047
           X3           0.00049   0.01331   0.02330  -0.15031   0.12452
           Y3           0.00010   0.00602   0.00308   0.13773  -0.18066
           Z3           0.00018   0.00308   0.00966   0.24112  -0.29434
           X4          -0.15199   0.04929   0.08623   0.00042   0.01147
           Y4           0.04474  -0.10175  -0.11356   0.00010   0.00365
           Z4           0.07826  -0.11356  -0.23554   0.00017   0.00404
           X5          -0.18677  -0.05812  -0.10172  -0.00039  -0.01051
           Y5          -0.05283  -0.09894  -0.09662   0.00013   0.01818
           Z5          -0.09246  -0.09662  -0.21281   0.00022  -0.00231
                          Z2        X3        Y3        Z3        X4
           Z2           0.58597
           X3           0.21800   0.14982
           Y3          -0.29434  -0.13783   0.17495
           Z3          -0.52785  -0.24130   0.29108   0.51829
           X4           0.02007   0.00000   0.00000  -0.00000   0.12319
           Y4           0.00403   0.00000   0.00454  -0.00259  -0.05136
           Z4           0.00841  -0.00000  -0.00259   0.00148  -0.08985
           X5          -0.01839  -0.00000  -0.00000   0.00000   0.02837
           Y5          -0.00230  -0.00000  -0.00485   0.00277  -0.00940
           Z5           0.01546   0.00000   0.00277  -0.00158  -0.01645
                          Y4        Z4        X5        Y5        Z5
           Y4           0.08776
           Z4           0.12046   0.22967
           X5           0.00652   0.01142   0.15879
           Y5           0.00581  -0.00834   0.06210   0.07980
           Z5          -0.00834  -0.00402   0.10869   0.10449   0.20294
 ITU=  0
     Eigenvalues ---    0.02243   0.03701   0.09811   0.12281   0.16471
     Eigenvalues ---    0.34496   0.86201   1.16715   1.68793
 Angle between quadratic step and forces=  60.10 degrees.
 Linear search not attempted -- first point.
 B after Tr=     0.001371   -0.001682   -0.002959
         Rot=    1.000000    0.000017    0.000081   -0.000052 Ang=   0.01 deg.
 Variable       Old X    -DE/DX   Delta X   Delta X   Delta X     New X
                                 (Linear)    (Quad)   (Total)
    X1        1.84631   0.00146   0.00000  -0.00274  -0.00134   1.84497
    Y1       -0.03741   0.00099   0.00000   0.00293   0.00143  -0.03598
    Z1       -0.19054   0.00173   0.00000   0.00510   0.00245  -0.18809
    X2        4.89062   0.00290   0.00000  -0.00268  -0.00126   4.88935
    Y2       -0.06532  -0.00542   0.00000  -0.00582  -0.00699  -0.07231
    Z2       -0.23894  -0.00949   0.00000  -0.01030  -0.01246  -0.25139
    X3        5.99277  -0.00274   0.00000   0.01069   0.01260   6.00538
    Y3       -1.34985   0.00464   0.00000   0.00339   0.00225  -1.34760
    Z3       -2.48781   0.00810   0.00000   0.00606   0.00412  -2.48369
    X4        0.97901  -0.00106   0.00000  -0.00502  -0.00397   0.97504
    Y4        0.89117   0.00034   0.00000   0.00395   0.00241   0.89359
    Z4        1.43411   0.00060   0.00000   0.00723   0.00440   1.43851
    X5        0.70071  -0.00056   0.00000  -0.00776  -0.00602   0.69469
    Y5       -0.88856  -0.00054   0.00000   0.00256   0.00089  -0.88766
    Z5       -1.68006  -0.00094   0.00000   0.00431   0.00150  -1.67856
         Item               Value     Threshold  Converged?
 Maximum Force            0.009491     0.000450     NO 
 RMS     Force            0.003931     0.000300     NO 
 Maximum Displacement     0.012602     0.001800     NO 
 RMS     Displacement     0.005638     0.001200     NO 
 Predicted change in Energy=-8.735831D-05
 GradGradGradGradGradGradGradGradGradGradGradGradGradGradGradGradGradGrad

 Leave Link  103 at Tue Jan  3 09:08:07 2023, MaxMem=   536870912 cpu:               0.0 elap:               0.0
 (Enter /opt/software/gaussian/g16.c01/l9999.exe)
 Unable to Open any file for archive entry.
 1\1\GINC-GRA607\Force\UwB97XD\Gen\C1H2O1S1\BHAVUK\03-Jan-2023\0\\#p uw
 b97xd/chkbasis force guess=read geom=check scf=(maxcycle=900,verytight
 lineq,xqc) integral=grid=ultrafine symmetry=None density=current pop=(
 cm5,hlygat,mbs,npa) output=wfx\\0005_q000_m01_k00_opt_uwb97xd_def2svpd
 /0005_q000_m01_k00_force_uwb97xd_def2svp stable-force\\0,1\C,0.9770245
 042,-0.0197961728,-0.1008273286\S,2.5880021429,-0.0345660623,-0.126439
 068\O,3.1712397907,-0.7143116203,-1.3164938758\H,0.5180717789,0.471588
 0124,0.7588975415\H,0.3708017881,-0.4702041579,-0.8890472689\\Version=
 ES64L-G16RevC.01\HF=-512.3915658\S2=0.\S2-1=0.\S2A=0.\RMSD=9.407e-10\R
 MSF=3.931e-03\Dipole=-0.8668801,0.4516305,0.7906346\Quadrupole=-3.6312
 454,2.4708745,1.1603709,2.8836502,5.1566927,-0.9994675\PG=Unknown\\@
 The archive entry for this job was punched.

 Writing a WFNX file to "0005_q000_m01_k00_force_uwb97xd_def2svp.wfx"


 WHEN YOU'VE SEEN ONE NUCLEAR WAR YOU'VE SEEN THEM ALL.
 Job cpu time:       0 days  0 hours  0 minutes 10.8 seconds.
 Elapsed time:       0 days  0 hours  0 minutes  5.1 seconds.
 File lengths (MBytes):  RWF=      6 Int=      0 D2E=      0 Chk=      2 Scr=      1
 Normal termination of Gaussian 16 at Tue Jan  3 09:08:08 2023.
