 Entering Gaussian System, Link 0=g16
 Input=0005_q000_m01_k00_force_uhf_def2qzvpd.com
 Output=0005_q000_m01_k00_force_uhf_def2qzvpd.log
 Initial command:
 /opt/software/gaussian/g16.c01/l1.exe "/localscratch/bhavuk.2151417.0/Gau-19708.inp" -scrdir="/localscratch/bhavuk.2151417.0/"
 Entering Link 1 = /opt/software/gaussian/g16.c01/l1.exe PID=     19709.
  
 Copyright (c) 1988-2019, Gaussian, Inc.  All Rights Reserved.
  
 This is part of the Gaussian(R) 16 program.  It is based on
 the Gaussian(R) 09 system (copyright 2009, Gaussian, Inc.),
 the Gaussian(R) 03 system (copyright 2003, Gaussian, Inc.),
 the Gaussian(R) 98 system (copyright 1998, Gaussian, Inc.),
 the Gaussian(R) 94 system (copyright 1995, Gaussian, Inc.),
 the Gaussian 92(TM) system (copyright 1992, Gaussian, Inc.),
 the Gaussian 90(TM) system (copyright 1990, Gaussian, Inc.),
 the Gaussian 88(TM) system (copyright 1988, Gaussian, Inc.),
 the Gaussian 86(TM) system (copyright 1986, Carnegie Mellon
 University), and the Gaussian 82(TM) system (copyright 1983,
 Carnegie Mellon University). Gaussian is a federally registered
 trademark of Gaussian, Inc.
  
 This software contains proprietary and confidential information,
 including trade secrets, belonging to Gaussian, Inc.
  
 This software is provided under written license and may be
 used, copied, transmitted, or stored only in accord with that
 written license.
  
 The following legend is applicable only to US Government
 contracts under FAR:
  
                    RESTRICTED RIGHTS LEGEND
  
 Use, reproduction and disclosure by the US Government is
 subject to restrictions as set forth in subparagraphs (a)
 and (c) of the Commercial Computer Software - Restricted
 Rights clause in FAR 52.227-19.
  
 Gaussian, Inc.
 340 Quinnipiac St., Bldg. 40, Wallingford CT 06492
  
  
 ---------------------------------------------------------------
 Warning -- This program may not be used in any manner that
 competes with the business of Gaussian, Inc. or will provide
 assistance to any competitor of Gaussian, Inc.  The licensee
 of this program is prohibited from giving any competitor of
 Gaussian, Inc. access to this program.  By using this program,
 the user acknowledges that Gaussian, Inc. is engaged in the
 business of creating and licensing software in the field of
 computational chemistry and represents and warrants to the
 licensee that it is not a competitor of Gaussian, Inc. and that
 it will not use this program in any manner prohibited above.
 ---------------------------------------------------------------
  

 Cite this work as:
 Gaussian 16, Revision C.01,
 M. J. Frisch, G. W. Trucks, H. B. Schlegel, G. E. Scuseria, 
 M. A. Robb, J. R. Cheeseman, G. Scalmani, V. Barone, 
 G. A. Petersson, H. Nakatsuji, X. Li, M. Caricato, A. V. Marenich, 
 J. Bloino, B. G. Janesko, R. Gomperts, B. Mennucci, H. P. Hratchian, 
 J. V. Ortiz, A. F. Izmaylov, J. L. Sonnenberg, D. Williams-Young, 
 F. Ding, F. Lipparini, F. Egidi, J. Goings, B. Peng, A. Petrone, 
 T. Henderson, D. Ranasinghe, V. G. Zakrzewski, J. Gao, N. Rega, 
 G. Zheng, W. Liang, M. Hada, M. Ehara, K. Toyota, R. Fukuda, 
 J. Hasegawa, M. Ishida, T. Nakajima, Y. Honda, O. Kitao, H. Nakai, 
 T. Vreven, K. Throssell, J. A. Montgomery, Jr., J. E. Peralta, 
 F. Ogliaro, M. J. Bearpark, J. J. Heyd, E. N. Brothers, K. N. Kudin, 
 V. N. Staroverov, T. A. Keith, R. Kobayashi, J. Normand, 
 K. Raghavachari, A. P. Rendell, J. C. Burant, S. S. Iyengar, 
 J. Tomasi, M. Cossi, J. M. Millam, M. Klene, C. Adamo, R. Cammi, 
 J. W. Ochterski, R. L. Martin, K. Morokuma, O. Farkas, 
 J. B. Foresman, and D. J. Fox, Gaussian, Inc., Wallingford CT, 2019.
 
 ******************************************
 Gaussian 16:  ES64L-G16RevC.01  3-Jul-2019
                 3-Jan-2023 
 ******************************************
 %chk=0005_q000_m01_k00_force_uhf_def2qzvpd.chk
 %nprocshared=2
 Will use up to    2 processors via shared memory.
 %mem=4GB
 ----------------------------------------------------------------------
 #p uhf/gen stable=opt scf=(maxcycle=900,verytightlineq,xqc) integral=g
 rid=ultrafine symmetry=None density=current iop(99/18=-1) output=wfn
 ----------------------------------------------------------------------
 1/38=1,172=1/1;
 2/12=2,15=3,17=6,18=5,40=1/2;
 3/5=7,11=2,25=1,30=1,75=-5,116=2/1,2,3;
 4//1;
 5/5=2,7=900,8=3,13=1,17=3,38=5/2,8;
 6/7=2,8=2,9=2,10=2,22=-1,28=1/1;
 8/6=1,10=90,11=11/1;
 9/8=-3,42=1,46=1/14;
 5/5=2,7=900,8=3,17=43,38=5/8(-2);
 6/7=2,8=2,9=2,10=2,22=-1,28=1/1;
 99/5=1,6=100,9=1,18=-1/99;
 Leave Link    1 at Tue Jan  3 09:07:23 2023, MaxMem=   536870912 cpu:               0.1 elap:               0.1
 (Enter /opt/software/gaussian/g16.c01/l101.exe)
 ----------------------------------------------------------------------
 0005_q000_m01_k00_opt_uwb97xd_def2svpd/0005_q000_m01_k00_force_uhf_def
 2qzvpd stable-force
 ----------------------------------------------------------------------
 Symbolic Z-matrix:
 Charge =  0 Multiplicity = 1
 C                     0.97702  -0.0198   -0.10083 
 S                     2.588    -0.03457  -0.12644 
 O                     3.17124  -0.71431  -1.31649 
 H                     0.51807   0.47159   0.7589 
 H                     0.3708   -0.4702   -0.88905 
 
 ITRead=  0  0  0  0  0
 MicOpt= -1 -1 -1 -1 -1
 NAtoms=      5 NQM=        5 NQMF=       0 NMMI=      0 NMMIF=      0
                NMic=       0 NMicF=      0.
                    Isotopes and Nuclear Properties:
 (Nuclear quadrupole moments (NQMom) in fm**2, nuclear magnetic moments (NMagM)
  in nuclear magnetons)

  Atom         1           2           3           4           5
 IAtWgt=          12          32          16           1           1
 AtmWgt=  12.0000000  31.9720718  15.9949146   1.0078250   1.0078250
 NucSpn=           0           0           0           1           1
 AtZEff=  -0.0000000  -0.0000000  -0.0000000  -0.0000000  -0.0000000
 NQMom=    0.0000000   0.0000000   0.0000000   0.0000000   0.0000000
 NMagM=    0.0000000   0.0000000   0.0000000   2.7928460   2.7928460
 AtZNuc=   6.0000000  16.0000000   8.0000000   1.0000000   1.0000000
 Leave Link  101 at Tue Jan  3 09:07:23 2023, MaxMem=   536870912 cpu:               0.4 elap:               0.2
 (Enter /opt/software/gaussian/g16.c01/l202.exe)
                          Input orientation:                          
 ---------------------------------------------------------------------
 Center     Atomic      Atomic             Coordinates (Angstroms)
 Number     Number       Type             X           Y           Z
 ---------------------------------------------------------------------
      1          6           0        0.977025   -0.019796   -0.100827
      2         16           0        2.588002   -0.034566   -0.126439
      3          8           0        3.171240   -0.714312   -1.316494
      4          1           0        0.518072    0.471588    0.758898
      5          1           0        0.370802   -0.470204   -0.889047
 ---------------------------------------------------------------------
                    Distance matrix (angstroms):
                    1          2          3          4          5
     1  C    0.000000
     2  S    1.611249   0.000000
     3  O    2.602840   1.489446   0.000000
     4  H    1.091432   2.307515   3.571121   0.000000
     5  H    1.091634   2.384812   2.843370   1.903781   0.000000
 Symmetry turned off by external request.
 Stoichiometry    CH2OS
 Rotational constants (GHZ):          39.0370487           9.3459813           7.5406507
 Leave Link  202 at Tue Jan  3 09:07:23 2023, MaxMem=   536870912 cpu:               0.0 elap:               0.0
 (Enter /opt/software/gaussian/g16.c01/l301.exe)
 General basis read from cards:  (5D, 7F)
 Centers:       4      5
 S 4 1.00
     Exponent=  1.9069169000D+02 Coefficients=  7.0815167000D-04
     Exponent=  2.8605532000D+01 Coefficients=  5.4678827000D-03
     Exponent=  6.5095943000D+00 Coefficients=  2.7966605000D-02
     Exponent=  1.8412455000D+00 Coefficients=  1.0764538000D-01
 S 1 1.00
     Exponent=  5.9853725000D-01 Coefficients=  1.0000000000D+00
 S 1 1.00
     Exponent=  2.1397624000D-01 Coefficients=  1.0000000000D+00
 S 1 1.00
     Exponent=  8.0316286000D-02 Coefficients=  1.0000000000D+00
 P 1 1.00
     Exponent=  2.2920000000D+00 Coefficients=  1.0000000000D+00
 P 1 1.00
     Exponent=  8.3800000000D-01 Coefficients=  1.0000000000D+00
 P 1 1.00
     Exponent=  2.9200000000D-01 Coefficients=  1.0000000000D+00
 P 1 1.00
     Exponent=  8.4063199228D-02 Coefficients=  1.0000000000D+00
 D 1 1.00
     Exponent=  2.0620000000D+00 Coefficients=  1.0000000000D+00
 D 1 1.00
     Exponent=  6.6200000000D-01 Coefficients=  1.0000000000D+00
 F 1 1.00
     Exponent=  1.3970000000D+00 Coefficients=  1.0000000000D+00
 ****
 Centers:       1
 S 8 1.00
     Exponent=  6.7025071029D+04 Coefficients=  3.8736308501D-05
     Exponent=  1.0039986538D+04 Coefficients=  3.0107917575D-04
     Exponent=  2.2849316911D+03 Coefficients=  1.5787918095D-03
     Exponent=  6.4714122130D+02 Coefficients=  6.6087087195D-03
     Exponent=  2.1109472335D+02 Coefficients=  2.3367123250D-02
     Exponent=  7.6177643862D+01 Coefficients=  7.0420716898D-02
     Exponent=  2.9633839163D+01 Coefficients=  1.7360344953D-01
     Exponent=  1.2187785081D+01 Coefficients=  3.2292305648D-01
 S 2 1.00
     Exponent=  5.3026006299D+01 Coefficients=  7.4897404492D-02
     Exponent=  1.5258502776D+01 Coefficients=  7.6136220983D-01
 S 1 1.00
     Exponent=  5.2403957464D+00 Coefficients=  1.0000000000D+00
 S 1 1.00
     Exponent=  2.2905022379D+00 Coefficients=  1.0000000000D+00
 S 1 1.00
     Exponent=  6.9673283006D-01 Coefficients=  1.0000000000D+00
 S 1 1.00
     Exponent=  2.7599337363D-01 Coefficients=  1.0000000000D+00
 S 1 1.00
     Exponent=  1.0739884389D-01 Coefficients=  1.0000000000D+00
 S 1 1.00
     Exponent=  4.4981404899D-02 Coefficients=  1.0000000000D+00
 P 5 1.00
     Exponent=  1.0512555082D+02 Coefficients=  8.4647553844D-04
     Exponent=  2.4884461066D+01 Coefficients=  6.6274038534D-03
     Exponent=  7.8637230826D+00 Coefficients=  3.0120390419D-02
     Exponent=  2.8407001835D+00 Coefficients=  9.9951435476D-02
     Exponent=  1.1227137335D+00 Coefficients=  2.3826299282D-01
 P 1 1.00
     Exponent=  4.6050725555D-01 Coefficients=  1.0000000000D+00
 P 1 1.00
     Exponent=  1.8937530913D-01 Coefficients=  1.0000000000D+00
 P 1 1.00
     Exponent=  7.5983791611D-02 Coefficients=  1.0000000000D+00
 D 1 1.00
     Exponent=  1.8480000000D+00 Coefficients=  1.0000000000D+00
 D 1 1.00
     Exponent=  6.4900000000D-01 Coefficients=  1.0000000000D+00
 D 1 1.00
     Exponent=  2.2800000000D-01 Coefficients=  1.0000000000D+00
 D 1 1.00
     Exponent=  7.6889830417D-02 Coefficients=  1.0000000000D+00
 F 1 1.00
     Exponent=  1.4190000000D+00 Coefficients=  1.0000000000D+00
 F 1 1.00
     Exponent=  4.8500000000D-01 Coefficients=  1.0000000000D+00
 G 1 1.00
     Exponent=  1.0110000000D+00 Coefficients=  1.0000000000D+00
 ****
 Centers:       3
 S 8 1.00
     Exponent=  1.1650646908D+05 Coefficients=  4.0383857939D-05
     Exponent=  1.7504349724D+04 Coefficients=  3.1255139004D-04
     Exponent=  3.9934513230D+03 Coefficients=  1.6341473495D-03
     Exponent=  1.1330063186D+03 Coefficients=  6.8283224757D-03
     Exponent=  3.6999569594D+02 Coefficients=  2.4124410221D-02
     Exponent=  1.3362074349D+02 Coefficients=  7.2730206154D-02
     Exponent=  5.2035643649D+01 Coefficients=  1.7934429892D-01
     Exponent=  2.1461939313D+01 Coefficients=  3.3059588895D-01
 S 2 1.00
     Exponent=  8.9835051252D+01 Coefficients=  9.6468652996D-02
     Exponent=  2.6428010844D+01 Coefficients=  9.4117481120D-01
 S 1 1.00
     Exponent=  9.2822824649D+00 Coefficients=  1.0000000000D+00
 S 1 1.00
     Exponent=  4.0947728533D+00 Coefficients=  1.0000000000D+00
 S 1 1.00
     Exponent=  1.3255349078D+00 Coefficients=  1.0000000000D+00
 S 1 1.00
     Exponent=  5.1877230787D-01 Coefficients=  1.0000000000D+00
 S 1 1.00
     Exponent=  1.9772676454D-01 Coefficients=  1.0000000000D+00
 S 1 1.00
     Exponent=  6.9638535104D-02 Coefficients=  1.0000000000D+00
 P 5 1.00
     Exponent=  1.9115255810D+02 Coefficients=  2.5115697705D-03
     Exponent=  4.5233356739D+01 Coefficients=  2.0039240864D-02
     Exponent=  1.4353465922D+01 Coefficients=  9.3609064762D-02
     Exponent=  5.2422371832D+00 Coefficients=  3.0618127124D-01
     Exponent=  2.0792418599D+00 Coefficients=  6.7810501439D-01
 P 1 1.00
     Exponent=  8.4282371424D-01 Coefficients=  1.0000000000D+00
 P 1 1.00
     Exponent=  3.3617694891D-01 Coefficients=  1.0000000000D+00
 P 1 1.00
     Exponent=  1.2863997974D-01 Coefficients=  1.0000000000D+00
 P 1 1.00
     Exponent=  4.3598162776D-02 Coefficients=  1.0000000000D+00
 D 1 1.00
     Exponent=  3.7750000000D+00 Coefficients=  1.0000000000D+00
 D 1 1.00
     Exponent=  1.3000000000D+00 Coefficients=  1.0000000000D+00
 D 1 1.00
     Exponent=  4.4400000000D-01 Coefficients=  1.0000000000D+00
 D 1 1.00
     Exponent=  1.2546378695D-01 Coefficients=  1.0000000000D+00
 F 1 1.00
     Exponent=  2.6660000000D+00 Coefficients=  1.0000000000D+00
 F 1 1.00
     Exponent=  8.5900000000D-01 Coefficients=  1.0000000000D+00
 G 1 1.00
     Exponent=  1.8460000000D+00 Coefficients=  1.0000000000D+00
 ****
 Centers:       2
 S 10 1.00
     Exponent=  1.2734109023D+06 Coefficients=  1.1767088246D-05
     Exponent=  1.9069783007D+05 Coefficients=  9.1478610166D-05
     Exponent=  4.3397885330D+04 Coefficients=  4.8090078640D-04
     Exponent=  1.2291809677D+04 Coefficients=  2.0257193592D-03
     Exponent=  4.0097420824D+03 Coefficients=  7.3190096406D-03
     Exponent=  1.4473531030D+03 Coefficients=  2.3300499900D-02
     Exponent=  5.6430102913D+02 Coefficients=  6.5386213610D-02
     Exponent=  2.3374506243D+02 Coefficients=  1.5614449910D-01
     Exponent=  1.0156402814D+02 Coefficients=  2.9318563787D-01
     Exponent=  4.5805907187D+01 Coefficients=  3.6287914289D-01
 S 3 1.00
     Exponent=  3.9427281503D+02 Coefficients=  1.8753305081D-02
     Exponent=  1.2172249591D+02 Coefficients=  1.6870726663D-01
     Exponent=  4.6754125963D+01 Coefficients=  6.3806830653D-01
 S 1 1.00
     Exponent=  2.0923008254D+01 Coefficients=  1.0000000000D+00
 S 1 1.00
     Exponent=  8.2685567800D+00 Coefficients=  1.0000000000D+00
 S 1 1.00
     Exponent=  3.8629345671D+00 Coefficients=  1.0000000000D+00
 S 1 1.00
     Exponent=  1.7794684781D+00 Coefficients=  1.0000000000D+00
 S 1 1.00
     Exponent=  6.1064260103D-01 Coefficients=  1.0000000000D+00
 S 1 1.00
     Exponent=  2.7412269445D-01 Coefficients=  1.0000000000D+00
 S 1 1.00
     Exponent=  1.1325939107D-01 Coefficients=  1.0000000000D+00
 S 1 1.00
     Exponent=  4.4392624881D-02 Coefficients=  1.0000000000D+00
 P 8 1.00
     Exponent=  2.1898930459D+03 Coefficients=  2.3912552864D-04
     Exponent=  5.1894596592D+02 Coefficients=  2.0772032158D-03
     Exponent=  1.6819560151D+02 Coefficients=  1.1242420571D-02
     Exponent=  6.3745282788D+01 Coefficients=  4.4069933941D-02
     Exponent=  2.6597033077D+01 Coefficients=  1.2918778608D-01
     Exponent=  1.1774251449D+01 Coefficients=  2.6910820167D-01
     Exponent=  5.3534379024D+00 Coefficients=  3.7855928620D-01
     Exponent=  2.4701911802D+00 Coefficients=  2.9692134655D-01
 P 2 1.00
     Exponent=  8.2120288349D+01 Coefficients= -3.9420318847D-02
     Exponent=  4.9523532869D+00 Coefficients=  6.4048403090D-01
 P 1 1.00
     Exponent=  1.0828262029D+00 Coefficients=  1.0000000000D+00
 P 1 1.00
     Exponent=  4.9271277356D-01 Coefficients=  1.0000000000D+00
 P 1 1.00
     Exponent=  2.0483450942D-01 Coefficients=  1.0000000000D+00
 P 1 1.00
     Exponent=  8.0743615716D-02 Coefficients=  1.0000000000D+00
 P 1 1.00
     Exponent=  2.5661157833D-02 Coefficients=  1.0000000000D+00
 D 1 1.00
     Exponent=  4.1590000000D+00 Coefficients=  1.0000000000D+00
 D 1 1.00
     Exponent=  1.0190000000D+00 Coefficients=  1.0000000000D+00
 D 1 1.00
     Exponent=  4.6400000000D-01 Coefficients=  1.0000000000D+00
 D 1 1.00
     Exponent=  1.9400000000D-01 Coefficients=  1.0000000000D+00
 D 1 1.00
     Exponent=  6.7889829366D-02 Coefficients=  1.0000000000D+00
 F 1 1.00
     Exponent=  8.6900000000D-01 Coefficients=  1.0000000000D+00
 F 1 1.00
     Exponent=  3.3500000000D-01 Coefficients=  1.0000000000D+00
 G 1 1.00
     Exponent=  6.8300000000D-01 Coefficients=  1.0000000000D+00
 ****
 Ernie: Thresh=  0.10000D-02 Tol=  0.10000D-05 Strict=F.
   274 basis functions,   414 primitive gaussians,   333 cartesian basis functions
    16 alpha electrons       16 beta electrons
       nuclear repulsion energy       102.7536228800 Hartrees.
 IExCor=    0 DFT=F Ex=HF Corr=None ExCW=0 ScaHFX=  1.000000
 ScaDFX=  1.000000  1.000000  1.000000  1.000000 ScalE2=  1.000000  1.000000
 IRadAn=      5 IRanWt=     -1 IRanGd=            0 ICorTp=0 IEmpDi=  4
 NAtoms=    5 NActive=    5 NUniq=    5 SFac= 1.00D+00 NAtFMM=   60 NAOKFM=F Big=F
 Integral buffers will be    131072 words long.
 Raffenetti 2 integral format.
 Two-electron integral symmetry is turned off.
 Leave Link  301 at Tue Jan  3 09:07:23 2023, MaxMem=   536870912 cpu:               0.2 elap:               0.1
 (Enter /opt/software/gaussian/g16.c01/l302.exe)
 NPDir=0 NMtPBC=     1 NCelOv=     1 NCel=       1 NClECP=     1 NCelD=      1
         NCelK=      1 NCelE2=     1 NClLst=     1 CellRange=     0.0.
 One-electron integrals computed using PRISM.
 NBasis=   274 RedAO= T EigKep=  7.30D-06  NBF=   274
 NBsUse=   274 1.00D-06 EigRej= -1.00D+00 NBFU=   274
 Leave Link  302 at Tue Jan  3 09:07:24 2023, MaxMem=   536870912 cpu:               0.5 elap:               0.2
 (Enter /opt/software/gaussian/g16.c01/l303.exe)
 DipDrv:  MaxL=1.
 Leave Link  303 at Tue Jan  3 09:07:24 2023, MaxMem=   536870912 cpu:               0.1 elap:               0.1
 (Enter /opt/software/gaussian/g16.c01/l401.exe)
 ExpMin= 2.57D-02 ExpMax= 1.27D+06 ExpMxC= 1.45D+03 IAcc=3 IRadAn=         5 AccDes= 0.00D+00
 Harris functional with IExCor=  205 and IRadAn=       5 diagonalized for initial guess.
 HarFok:  IExCor=  205 AccDes= 0.00D+00 IRadAn=         5 IDoV= 1 UseB2=F ITyADJ=14
 ICtDFT=  3500011 ScaDFX=  1.000000  1.000000  1.000000  1.000000
 FoFCou: FMM=F IPFlag=           0 FMFlag=      100000 FMFlg1=           0
         NFxFlg=           0 DoJE=T BraDBF=F KetDBF=T FulRan=T
         wScrn=  0.000000 ICntrl=       500 IOpCl=  0 I1Cent=   200000004 NGrid=           0
         NMat0=    1 NMatS0=      1 NMatT0=    0 NMatD0=    1 NMtDS0=    0 NMtDT0=    0
 Symmetry not used in FoFCou.
 Harris En= -511.226217777933    
 JPrj=0 DoOrth=F DoCkMO=F.
 Initial guess <Sx>= 0.0000 <Sy>= 0.0000 <Sz>= 0.0000 <S**2>=-0.0000 S=-0.0000
 Leave Link  401 at Tue Jan  3 09:07:24 2023, MaxMem=   536870912 cpu:               1.6 elap:               0.8
 (Enter /opt/software/gaussian/g16.c01/l502.exe)
 Two-electron integral symmetry not used.
 UHF open shell SCF:
 Using DIIS extrapolation, IDIIS=  1040.
 NGot=   536870912 LenX=   536645045 LenY=   536533715
 Requested convergence on RMS density matrix=1.00D-08 within 128 cycles.
 Requested convergence on MAX density matrix=1.00D-06.
 Requested convergence on             energy=1.00D-06.
 No special actions if energy rises.
 Fock matrices will be formed incrementally for  20 cycles.

 Cycle   1  Pass 1  IDiag  1:
 FoFJK:  IHMeth= 1 ICntrl=       0 DoSepK=F KAlg= 0 I1Cent=           0 FoldK=F
 IRaf= 980000000 NMat=       1 IRICut=       1 DoRegI=T DoRafI=F ISym2E= 0 IDoP0=0 IntGTp=1.
 FoFCou: FMM=F IPFlag=           0 FMFlag=      100000 FMFlg1=           0
         NFxFlg=           0 DoJE=F BraDBF=F KetDBF=F FulRan=T
         wScrn=  0.000000 ICntrl=         0 IOpCl=  1 I1Cent=           0 NGrid=           0
         NMat0=    1 NMatS0=      1 NMatT0=    0 NMatD0=    1 NMtDS0=    0 NMtDT0=    0
 Symmetry not used in FoFCou.
 E= -511.203497986624    
 DIIS: error= 6.81D-02 at cycle   1 NSaved=   1.
 NSaved= 1 IEnMin= 1 EnMin= -511.203497986624     IErMin= 1 ErrMin= 6.81D-02
 ErrMax= 6.81D-02  0.00D+00 EMaxC= 1.00D-01 BMatC= 3.47D+00 BMatP= 3.47D+00
 IDIUse=3 WtCom= 3.19D-01 WtEn= 6.81D-01
 Coeff-Com:  0.100D+01
 Coeff-En:   0.100D+01
 Coeff:      0.100D+01
 Gap=     0.479 Goal=   None    Shift=    0.000
 Gap=     0.479 Goal=   None    Shift=    0.000
 GapD=    0.479 DampG=2.000 DampE=0.500 DampFc=1.0000 IDamp=-1.
 RMSDP=1.76D-03 MaxDP=5.84D-02              OVMax= 1.98D-01

 Cycle   2  Pass 1  IDiag  1:
 RMSU=  1.73D-03    CP:  9.69D-01
 E= -511.343636607873     Delta-E=       -0.140138621249 Rises=F Damp=F
 DIIS: error= 1.70D-02 at cycle   2 NSaved=   2.
 NSaved= 2 IEnMin= 2 EnMin= -511.343636607873     IErMin= 2 ErrMin= 1.70D-02
 ErrMax= 1.70D-02  0.00D+00 EMaxC= 1.00D-01 BMatC= 5.14D-01 BMatP= 3.47D+00
 IDIUse=3 WtCom= 8.30D-01 WtEn= 1.70D-01
 Coeff-Com:  0.205D+00 0.795D+00
 Coeff-En:   0.158D+00 0.842D+00
 Coeff:      0.197D+00 0.803D+00
 Gap=     0.466 Goal=   None    Shift=    0.000
 Gap=     0.466 Goal=   None    Shift=    0.000
 RMSDP=8.08D-04 MaxDP=3.17D-02 DE=-1.40D-01 OVMax= 1.15D-01

 Cycle   3  Pass 1  IDiag  1:
 RMSU=  6.52D-04    CP:  9.63D-01  7.27D-01
 E= -511.419948583042     Delta-E=       -0.076311975169 Rises=F Damp=F
 DIIS: error= 8.76D-03 at cycle   3 NSaved=   3.
 NSaved= 3 IEnMin= 3 EnMin= -511.419948583042     IErMin= 3 ErrMin= 8.76D-03
 ErrMax= 8.76D-03  0.00D+00 EMaxC= 1.00D-01 BMatC= 9.08D-02 BMatP= 5.14D-01
 IDIUse=3 WtCom= 9.12D-01 WtEn= 8.76D-02
 Coeff-Com: -0.201D-01 0.277D+00 0.743D+00
 Coeff-En:   0.000D+00 0.000D+00 0.100D+01
 Coeff:     -0.183D-01 0.253D+00 0.765D+00
 Gap=     0.425 Goal=   None    Shift=    0.000
 Gap=     0.425 Goal=   None    Shift=    0.000
 RMSDP=2.58D-04 MaxDP=1.12D-02 DE=-7.63D-02 OVMax= 3.95D-02

 Cycle   4  Pass 1  IDiag  1:
 RMSU=  1.39D-04    CP:  9.64D-01  8.22D-01  7.84D-01
 E= -511.435339344095     Delta-E=       -0.015390761052 Rises=F Damp=F
 DIIS: error= 2.08D-03 at cycle   4 NSaved=   4.
 NSaved= 4 IEnMin= 4 EnMin= -511.435339344095     IErMin= 4 ErrMin= 2.08D-03
 ErrMax= 2.08D-03  0.00D+00 EMaxC= 1.00D-01 BMatC= 3.06D-03 BMatP= 9.08D-02
 IDIUse=3 WtCom= 9.79D-01 WtEn= 2.08D-02
 Coeff-Com: -0.912D-02 0.584D-01 0.249D+00 0.701D+00
 Coeff-En:   0.000D+00 0.000D+00 0.000D+00 0.100D+01
 Coeff:     -0.893D-02 0.572D-01 0.244D+00 0.708D+00
 Gap=     0.423 Goal=   None    Shift=    0.000
 Gap=     0.423 Goal=   None    Shift=    0.000
 RMSDP=6.00D-05 MaxDP=2.12D-03 DE=-1.54D-02 OVMax= 1.62D-02

 Cycle   5  Pass 1  IDiag  1:
 RMSU=  5.03D-05    CP:  9.64D-01  8.24D-01  8.21D-01  8.48D-01
 E= -511.436061150390     Delta-E=       -0.000721806295 Rises=F Damp=F
 DIIS: error= 7.69D-04 at cycle   5 NSaved=   5.
 NSaved= 5 IEnMin= 5 EnMin= -511.436061150390     IErMin= 5 ErrMin= 7.69D-04
 ErrMax= 7.69D-04  0.00D+00 EMaxC= 1.00D-01 BMatC= 4.04D-04 BMatP= 3.06D-03
 IDIUse=3 WtCom= 9.92D-01 WtEn= 7.69D-03
 Coeff-Com:  0.269D-02-0.413D-01-0.924D-01 0.175D+00 0.956D+00
 Coeff-En:   0.000D+00 0.000D+00 0.000D+00 0.000D+00 0.100D+01
 Coeff:      0.267D-02-0.410D-01-0.917D-01 0.173D+00 0.957D+00
 Gap=     0.423 Goal=   None    Shift=    0.000
 Gap=     0.423 Goal=   None    Shift=    0.000
 RMSDP=3.58D-05 MaxDP=1.27D-03 DE=-7.22D-04 OVMax= 4.31D-03

 Cycle   6  Pass 1  IDiag  1:
 RMSU=  1.98D-05    CP:  9.64D-01  8.22D-01  8.30D-01  1.04D+00  1.22D+00
 E= -511.436224283663     Delta-E=       -0.000163133273 Rises=F Damp=F
 DIIS: error= 2.75D-04 at cycle   6 NSaved=   6.
 NSaved= 6 IEnMin= 6 EnMin= -511.436224283663     IErMin= 6 ErrMin= 2.75D-04
 ErrMax= 2.75D-04  0.00D+00 EMaxC= 1.00D-01 BMatC= 3.52D-05 BMatP= 4.04D-04
 IDIUse=3 WtCom= 9.97D-01 WtEn= 2.75D-03
 Coeff-Com:  0.478D-03-0.120D-02-0.705D-02-0.592D-01-0.310D+00 0.138D+01
 Coeff-En:   0.000D+00 0.000D+00 0.000D+00 0.000D+00 0.000D+00 0.100D+01
 Coeff:      0.477D-03-0.120D-02-0.703D-02-0.591D-01-0.309D+00 0.138D+01
 Gap=     0.423 Goal=   None    Shift=    0.000
 Gap=     0.423 Goal=   None    Shift=    0.000
 RMSDP=2.28D-05 MaxDP=7.27D-04 DE=-1.63D-04 OVMax= 5.25D-03

 Cycle   7  Pass 1  IDiag  1:
 RMSU=  7.70D-06    CP:  9.64D-01  8.20D-01  8.31D-01  1.13D+00  1.43D+00
                    CP:  1.71D+00
 E= -511.436265407906     Delta-E=       -0.000041124243 Rises=F Damp=F
 DIIS: error= 9.00D-05 at cycle   7 NSaved=   7.
 NSaved= 7 IEnMin= 7 EnMin= -511.436265407906     IErMin= 7 ErrMin= 9.00D-05
 ErrMax= 9.00D-05  0.00D+00 EMaxC= 1.00D-01 BMatC= 8.40D-06 BMatP= 3.52D-05
 IDIUse=1 WtCom= 1.00D+00 WtEn= 0.00D+00
 Coeff-Com: -0.353D-03 0.544D-02 0.152D-01-0.691D-02-0.187D+00 0.848D-02
 Coeff-Com:  0.116D+01
 Coeff:     -0.353D-03 0.544D-02 0.152D-01-0.691D-02-0.187D+00 0.848D-02
 Coeff:      0.116D+01
 Gap=     0.423 Goal=   None    Shift=    0.000
 Gap=     0.423 Goal=   None    Shift=    0.000
 RMSDP=1.11D-05 MaxDP=3.86D-04 DE=-4.11D-05 OVMax= 2.46D-03

 Cycle   8  Pass 1  IDiag  1:
 RMSU=  2.53D-06    CP:  9.64D-01  8.19D-01  8.31D-01  1.15D+00  1.50D+00
                    CP:  2.13D+00  1.59D+00
 E= -511.436274341776     Delta-E=       -0.000008933870 Rises=F Damp=F
 DIIS: error= 4.30D-05 at cycle   8 NSaved=   8.
 NSaved= 8 IEnMin= 8 EnMin= -511.436274341776     IErMin= 8 ErrMin= 4.30D-05
 ErrMax= 4.30D-05  0.00D+00 EMaxC= 1.00D-01 BMatC= 1.49D-06 BMatP= 8.40D-06
 IDIUse=1 WtCom= 1.00D+00 WtEn= 0.00D+00
 Coeff-Com: -0.158D-03 0.203D-03 0.240D-02 0.216D-01 0.587D-01-0.256D+00
 Coeff-Com: -0.332D+00 0.150D+01
 Coeff:     -0.158D-03 0.203D-03 0.240D-02 0.216D-01 0.587D-01-0.256D+00
 Coeff:     -0.332D+00 0.150D+01
 Gap=     0.423 Goal=   None    Shift=    0.000
 Gap=     0.423 Goal=   None    Shift=    0.000
 RMSDP=6.86D-06 MaxDP=2.12D-04 DE=-8.93D-06 OVMax= 1.54D-03

 Cycle   9  Pass 1  IDiag  1:
 RMSU=  9.33D-07    CP:  9.64D-01  8.19D-01  8.31D-01  1.17D+00  1.52D+00
                    CP:  2.36D+00  2.08D+00  1.68D+00
 E= -511.436276393998     Delta-E=       -0.000002052222 Rises=F Damp=F
 DIIS: error= 9.06D-06 at cycle   9 NSaved=   9.
 NSaved= 9 IEnMin= 9 EnMin= -511.436276393998     IErMin= 9 ErrMin= 9.06D-06
 ErrMax= 9.06D-06  0.00D+00 EMaxC= 1.00D-01 BMatC= 6.51D-08 BMatP= 1.49D-06
 IDIUse=1 WtCom= 1.00D+00 WtEn= 0.00D+00
 Coeff-Com:  0.658D-04-0.554D-03-0.196D-02-0.310D-02 0.458D-02 0.493D-01
 Coeff-Com: -0.264D-01-0.309D+00 0.129D+01
 Coeff:      0.658D-04-0.554D-03-0.196D-02-0.310D-02 0.458D-02 0.493D-01
 Coeff:     -0.264D-01-0.309D+00 0.129D+01
 Gap=     0.423 Goal=   None    Shift=    0.000
 Gap=     0.423 Goal=   None    Shift=    0.000
 RMSDP=1.02D-06 MaxDP=2.79D-05 DE=-2.05D-06 OVMax= 2.27D-04

 Cycle  10  Pass 1  IDiag  1:
 RMSU=  3.33D-07    CP:  9.64D-01  8.19D-01  8.31D-01  1.17D+00  1.52D+00
                    CP:  2.38D+00  2.14D+00  1.83D+00  1.59D+00
 E= -511.436276467184     Delta-E=       -0.000000073186 Rises=F Damp=F
 DIIS: error= 2.56D-06 at cycle  10 NSaved=  10.
 NSaved=10 IEnMin=10 EnMin= -511.436276467184     IErMin=10 ErrMin= 2.56D-06
 ErrMax= 2.56D-06  0.00D+00 EMaxC= 1.00D-01 BMatC= 5.07D-09 BMatP= 6.51D-08
 IDIUse=1 WtCom= 1.00D+00 WtEn= 0.00D+00
 Coeff-Com: -0.105D-04 0.200D-03 0.504D-03-0.100D-02-0.773D-02 0.849D-02
 Coeff-Com:  0.468D-01-0.579D-01-0.342D+00 0.135D+01
 Coeff:     -0.105D-04 0.200D-03 0.504D-03-0.100D-02-0.773D-02 0.849D-02
 Coeff:      0.468D-01-0.579D-01-0.342D+00 0.135D+01
 Gap=     0.423 Goal=   None    Shift=    0.000
 Gap=     0.423 Goal=   None    Shift=    0.000
 RMSDP=2.95D-07 MaxDP=1.45D-05 DE=-7.32D-08 OVMax= 4.69D-05

 Cycle  11  Pass 1  IDiag  1:
 RMSU=  7.57D-08    CP:  9.64D-01  8.19D-01  8.31D-01  1.17D+00  1.52D+00
                    CP:  2.38D+00  2.14D+00  1.83D+00  1.82D+00  1.55D+00
 E= -511.436276471635     Delta-E=       -0.000000004451 Rises=F Damp=F
 DIIS: error= 5.65D-07 at cycle  11 NSaved=  11.
 NSaved=11 IEnMin=11 EnMin= -511.436276471635     IErMin=11 ErrMin= 5.65D-07
 ErrMax= 5.65D-07  0.00D+00 EMaxC= 1.00D-01 BMatC= 3.20D-10 BMatP= 5.07D-09
 IDIUse=1 WtCom= 1.00D+00 WtEn= 0.00D+00
 Coeff-Com: -0.157D-05-0.549D-05 0.302D-05 0.478D-03 0.105D-02-0.438D-02
 Coeff-Com: -0.861D-02 0.304D-01-0.140D-01-0.243D+00 0.124D+01
 Coeff:     -0.157D-05-0.549D-05 0.302D-05 0.478D-03 0.105D-02-0.438D-02
 Coeff:     -0.861D-02 0.304D-01-0.140D-01-0.243D+00 0.124D+01
 Gap=     0.423 Goal=   None    Shift=    0.000
 Gap=     0.423 Goal=   None    Shift=    0.000
 RMSDP=5.72D-08 MaxDP=2.07D-06 DE=-4.45D-09 OVMax= 9.70D-06

 Cycle  12  Pass 1  IDiag  1:
 RMSU=  2.55D-08    CP:  9.64D-01  8.19D-01  8.31D-01  1.17D+00  1.52D+00
                    CP:  2.38D+00  2.14D+00  1.84D+00  1.83D+00  1.64D+00
                    CP:  1.40D+00
 E= -511.436276471847     Delta-E=       -0.000000000212 Rises=F Damp=F
 DIIS: error= 1.47D-07 at cycle  12 NSaved=  12.
 NSaved=12 IEnMin=12 EnMin= -511.436276471847     IErMin=12 ErrMin= 1.47D-07
 ErrMax= 1.47D-07  0.00D+00 EMaxC= 1.00D-01 BMatC= 1.57D-11 BMatP= 3.20D-10
 IDIUse=1 WtCom= 1.00D+00 WtEn= 0.00D+00
 Coeff-Com:  0.813D-06-0.945D-05-0.251D-04-0.376D-04 0.208D-03 0.432D-03
 Coeff-Com: -0.102D-02-0.265D-02 0.253D-01-0.470D-01-0.201D+00 0.123D+01
 Coeff:      0.813D-06-0.945D-05-0.251D-04-0.376D-04 0.208D-03 0.432D-03
 Coeff:     -0.102D-02-0.265D-02 0.253D-01-0.470D-01-0.201D+00 0.123D+01
 Gap=     0.423 Goal=   None    Shift=    0.000
 Gap=     0.423 Goal=   None    Shift=    0.000
 RMSDP=1.82D-08 MaxDP=5.91D-07 DE=-2.12D-10 OVMax= 1.99D-06

 Cycle  13  Pass 1  IDiag  1:
 RMSU=  5.41D-09    CP:  9.64D-01  8.19D-01  8.31D-01  1.17D+00  1.52D+00
                    CP:  2.38D+00  2.14D+00  1.84D+00  1.83D+00  1.63D+00
                    CP:  1.50D+00  1.53D+00
 E= -511.436276471859     Delta-E=       -0.000000000012 Rises=F Damp=F
 DIIS: error= 3.54D-08 at cycle  13 NSaved=  13.
 NSaved=13 IEnMin=13 EnMin= -511.436276471859     IErMin=13 ErrMin= 3.54D-08
 ErrMax= 3.54D-08  0.00D+00 EMaxC= 1.00D-01 BMatC= 1.63D-12 BMatP= 1.57D-11
 IDIUse=1 WtCom= 1.00D+00 WtEn= 0.00D+00
 Coeff-Com: -0.506D-08 0.928D-06 0.316D-05-0.235D-04-0.101D-03 0.267D-03
 Coeff-Com:  0.473D-03-0.167D-02-0.601D-03 0.168D-01-0.403D-01-0.206D+00
 Coeff-Com:  0.123D+01
 Coeff:     -0.506D-08 0.928D-06 0.316D-05-0.235D-04-0.101D-03 0.267D-03
 Coeff:      0.473D-03-0.167D-02-0.601D-03 0.168D-01-0.403D-01-0.206D+00
 Coeff:      0.123D+01
 Gap=     0.423 Goal=   None    Shift=    0.000
 Gap=     0.423 Goal=   None    Shift=    0.000
 RMSDP=6.31D-09 MaxDP=2.51D-07 DE=-1.23D-11 OVMax= 6.49D-07

 SCF Done:  E(UHF) =  -511.436276472     A.U. after   13 cycles
            NFock= 13  Conv=0.63D-08     -V/T= 2.0007
 <Sx>= 0.0000 <Sy>= 0.0000 <Sz>= 0.0000 <S**2>=-0.0000 S=-0.0000
 <L.S>=  0.00000000000    
 KE= 5.110870777921D+02 PE=-1.419969661778D+03 EE= 2.946926846337D+02
 Annihilation of the first spin contaminant:
 S**2 before annihilation    -0.0000,   after     0.0000
 Leave Link  502 at Tue Jan  3 09:10:50 2023, MaxMem=   536870912 cpu:             411.3 elap:             205.7
 (Enter /opt/software/gaussian/g16.c01/l508.exe)
 QCSCF skips out because SCF is already converged.
 Leave Link  508 at Tue Jan  3 09:10:50 2023, MaxMem=   536870912 cpu:               0.0 elap:               0.0
 (Enter /opt/software/gaussian/g16.c01/l601.exe)
 Copying SCF densities to generalized density rwf, IOpCl= 1 IROHF=0.

 **********************************************************************

            Population analysis using the SCF Density.

 **********************************************************************

 Alpha  occ. eigenvalues --  -92.08404 -20.54470 -11.30238  -9.07261  -6.75423
 Alpha  occ. eigenvalues --   -6.75371  -6.75291  -1.36475  -1.06813  -0.81488
 Alpha  occ. eigenvalues --   -0.66540  -0.63440  -0.56966  -0.54719  -0.43578
 Alpha  occ. eigenvalues --   -0.38383
 Alpha virt. eigenvalues --    0.03945   0.04595   0.05017   0.05849   0.06402
 Alpha virt. eigenvalues --    0.10183   0.12647   0.12948   0.14697   0.16298
 Alpha virt. eigenvalues --    0.17439   0.18268   0.20767   0.21080   0.22263
 Alpha virt. eigenvalues --    0.24082   0.24981   0.25708   0.28618   0.28992
 Alpha virt. eigenvalues --    0.29020   0.29564   0.31109   0.31885   0.32993
 Alpha virt. eigenvalues --    0.34141   0.35903   0.36676   0.38107   0.38951
 Alpha virt. eigenvalues --    0.40803   0.42762   0.44412   0.44669   0.47987
 Alpha virt. eigenvalues --    0.49000   0.52300   0.53934   0.54313   0.58691
 Alpha virt. eigenvalues --    0.58758   0.59763   0.61413   0.61422   0.65984
 Alpha virt. eigenvalues --    0.67484   0.71333   0.71869   0.74659   0.76244
 Alpha virt. eigenvalues --    0.77781   0.81842   0.84278   0.84697   0.86209
 Alpha virt. eigenvalues --    0.93160   0.98092   0.98271   1.01534   1.02145
 Alpha virt. eigenvalues --    1.05589   1.09716   1.13118   1.15628   1.19071
 Alpha virt. eigenvalues --    1.24033   1.24434   1.26075   1.28623   1.31200
 Alpha virt. eigenvalues --    1.32625   1.37795   1.40319   1.41770   1.43878
 Alpha virt. eigenvalues --    1.47223   1.52603   1.55778   1.56592   1.59911
 Alpha virt. eigenvalues --    1.61538   1.70228   1.72701   1.73606   1.79007
 Alpha virt. eigenvalues --    1.82028   1.86191   1.90622   1.95034   1.97733
 Alpha virt. eigenvalues --    2.03421   2.08465   2.13354   2.14293   2.15082
 Alpha virt. eigenvalues --    2.17814   2.20946   2.24452   2.27616   2.35420
 Alpha virt. eigenvalues --    2.45513   2.46156   2.50851   2.52953   2.55546
 Alpha virt. eigenvalues --    2.58934   2.66255   2.69060   2.75353   2.83577
 Alpha virt. eigenvalues --    2.84605   2.87492   2.91668   2.94797   2.96324
 Alpha virt. eigenvalues --    3.03619   3.05897   3.07245   3.11340   3.15958
 Alpha virt. eigenvalues --    3.23134   3.25362   3.27799   3.31806   3.34613
 Alpha virt. eigenvalues --    3.45952   3.48078   3.51229   3.51331   3.51505
 Alpha virt. eigenvalues --    3.60080   3.62361   3.62513   3.65921   3.69390
 Alpha virt. eigenvalues --    3.74914   3.75079   3.78718   3.84768   3.91858
 Alpha virt. eigenvalues --    3.92789   3.97927   3.99121   4.03479   4.05289
 Alpha virt. eigenvalues --    4.14638   4.18348   4.28022   4.35458   4.36962
 Alpha virt. eigenvalues --    4.37080   4.41067   4.50447   4.54167   4.62590
 Alpha virt. eigenvalues --    4.70827   4.83704   4.92343   5.22642   5.25729
 Alpha virt. eigenvalues --    5.33961   5.40881   5.53949   5.58483   5.59917
 Alpha virt. eigenvalues --    5.65308   5.67599   5.72819   5.73111   5.83496
 Alpha virt. eigenvalues --    5.93545   5.98174   6.09034   6.13955   6.16042
 Alpha virt. eigenvalues --    6.25680   6.30147   6.31903   6.36136   6.51741
 Alpha virt. eigenvalues --    6.59400   6.66562   6.69811   6.78289   6.83052
 Alpha virt. eigenvalues --    6.93064   7.06610   7.13356   7.22337   7.41447
 Alpha virt. eigenvalues --    7.46753   7.59105   7.66059   7.72517   7.85520
 Alpha virt. eigenvalues --    7.86969   7.91469   7.94937   7.97199   7.99736
 Alpha virt. eigenvalues --    8.23717   8.36734   8.39287   8.51397   8.53417
 Alpha virt. eigenvalues --    8.61698   8.63138   8.67593   8.72860   8.78198
 Alpha virt. eigenvalues --    8.92809   9.15237   9.23439   9.28154   9.33058
 Alpha virt. eigenvalues --    9.33549   9.39099   9.39106   9.41554   9.41789
 Alpha virt. eigenvalues --    9.47170   9.61572   9.66288   9.92251   9.96169
 Alpha virt. eigenvalues --   10.01475  10.06582  10.13479  10.16862  10.20443
 Alpha virt. eigenvalues --   10.58248  10.71919  10.85270  11.57150  11.58669
 Alpha virt. eigenvalues --   11.80359  11.83011  12.22822  12.34057  12.43538
 Alpha virt. eigenvalues --   12.49603  12.76950  12.79761  12.91388  13.02638
 Alpha virt. eigenvalues --   13.31341  13.44714  14.65257  25.62672  29.42720
 Alpha virt. eigenvalues --   29.96952  30.34521  30.71767  49.25313  85.89314
 Alpha virt. eigenvalues --  149.85066 256.08880 455.78812
  Beta  occ. eigenvalues --  -92.08404 -20.54470 -11.30238  -9.07261  -6.75423
  Beta  occ. eigenvalues --   -6.75371  -6.75291  -1.36475  -1.06813  -0.81488
  Beta  occ. eigenvalues --   -0.66540  -0.63440  -0.56966  -0.54719  -0.43578
  Beta  occ. eigenvalues --   -0.38383
  Beta virt. eigenvalues --    0.03945   0.04595   0.05017   0.05849   0.06402
  Beta virt. eigenvalues --    0.10183   0.12647   0.12948   0.14697   0.16298
  Beta virt. eigenvalues --    0.17439   0.18268   0.20767   0.21080   0.22263
  Beta virt. eigenvalues --    0.24082   0.24981   0.25708   0.28618   0.28992
  Beta virt. eigenvalues --    0.29020   0.29564   0.31109   0.31885   0.32993
  Beta virt. eigenvalues --    0.34141   0.35903   0.36676   0.38107   0.38951
  Beta virt. eigenvalues --    0.40803   0.42762   0.44412   0.44669   0.47987
  Beta virt. eigenvalues --    0.49000   0.52300   0.53934   0.54313   0.58691
  Beta virt. eigenvalues --    0.58758   0.59763   0.61413   0.61422   0.65984
  Beta virt. eigenvalues --    0.67484   0.71333   0.71869   0.74659   0.76244
  Beta virt. eigenvalues --    0.77781   0.81842   0.84278   0.84697   0.86209
  Beta virt. eigenvalues --    0.93160   0.98092   0.98271   1.01534   1.02145
  Beta virt. eigenvalues --    1.05589   1.09716   1.13118   1.15628   1.19071
  Beta virt. eigenvalues --    1.24033   1.24434   1.26075   1.28623   1.31200
  Beta virt. eigenvalues --    1.32625   1.37795   1.40319   1.41770   1.43878
  Beta virt. eigenvalues --    1.47223   1.52603   1.55778   1.56592   1.59911
  Beta virt. eigenvalues --    1.61538   1.70228   1.72701   1.73606   1.79007
  Beta virt. eigenvalues --    1.82028   1.86191   1.90622   1.95034   1.97733
  Beta virt. eigenvalues --    2.03421   2.08465   2.13354   2.14293   2.15082
  Beta virt. eigenvalues --    2.17814   2.20946   2.24452   2.27616   2.35420
  Beta virt. eigenvalues --    2.45513   2.46156   2.50851   2.52953   2.55546
  Beta virt. eigenvalues --    2.58934   2.66255   2.69060   2.75353   2.83577
  Beta virt. eigenvalues --    2.84605   2.87492   2.91668   2.94797   2.96324
  Beta virt. eigenvalues --    3.03619   3.05897   3.07245   3.11340   3.15958
  Beta virt. eigenvalues --    3.23134   3.25362   3.27799   3.31806   3.34613
  Beta virt. eigenvalues --    3.45952   3.48078   3.51229   3.51331   3.51505
  Beta virt. eigenvalues --    3.60080   3.62361   3.62513   3.65921   3.69390
  Beta virt. eigenvalues --    3.74914   3.75079   3.78718   3.84768   3.91858
  Beta virt. eigenvalues --    3.92789   3.97927   3.99121   4.03479   4.05289
  Beta virt. eigenvalues --    4.14638   4.18348   4.28022   4.35458   4.36962
  Beta virt. eigenvalues --    4.37080   4.41067   4.50447   4.54167   4.62590
  Beta virt. eigenvalues --    4.70827   4.83704   4.92343   5.22642   5.25729
  Beta virt. eigenvalues --    5.33961   5.40881   5.53949   5.58483   5.59917
  Beta virt. eigenvalues --    5.65308   5.67599   5.72819   5.73111   5.83496
  Beta virt. eigenvalues --    5.93545   5.98174   6.09034   6.13955   6.16042
  Beta virt. eigenvalues --    6.25680   6.30147   6.31903   6.36136   6.51741
  Beta virt. eigenvalues --    6.59400   6.66562   6.69811   6.78289   6.83052
  Beta virt. eigenvalues --    6.93064   7.06610   7.13356   7.22337   7.41447
  Beta virt. eigenvalues --    7.46753   7.59105   7.66059   7.72517   7.85520
  Beta virt. eigenvalues --    7.86969   7.91469   7.94937   7.97199   7.99736
  Beta virt. eigenvalues --    8.23717   8.36734   8.39287   8.51397   8.53417
  Beta virt. eigenvalues --    8.61698   8.63138   8.67593   8.72860   8.78198
  Beta virt. eigenvalues --    8.92809   9.15237   9.23439   9.28154   9.33058
  Beta virt. eigenvalues --    9.33549   9.39099   9.39106   9.41554   9.41789
  Beta virt. eigenvalues --    9.47170   9.61572   9.66288   9.92251   9.96169
  Beta virt. eigenvalues --   10.01475  10.06582  10.13479  10.16862  10.20443
  Beta virt. eigenvalues --   10.58248  10.71919  10.85270  11.57150  11.58669
  Beta virt. eigenvalues --   11.80359  11.83011  12.22822  12.34057  12.43538
  Beta virt. eigenvalues --   12.49603  12.76950  12.79761  12.91388  13.02638
  Beta virt. eigenvalues --   13.31341  13.44714  14.65257  25.62672  29.42720
  Beta virt. eigenvalues --   29.96952  30.34521  30.71767  49.25313  85.89314
  Beta virt. eigenvalues --  149.85066 256.08880 455.78812
          Condensed to atoms (all electrons):
               1          2          3          4          5
     1  C    5.118045   0.504176  -0.090902   0.374198   0.425467
     2  S    0.504176  14.676448   0.345322  -0.037597  -0.019229
     3  O   -0.090902   0.345322   8.373904   0.010694  -0.011015
     4  H    0.374198  -0.037597   0.010694   0.426296   0.001088
     5  H    0.425467  -0.019229  -0.011015   0.001088   0.400901
          Atomic-Atomic Spin Densities.
               1          2          3          4          5
     1  C    0.000000   0.000000   0.000000   0.000000   0.000000
     2  S    0.000000   0.000000   0.000000   0.000000   0.000000
     3  O    0.000000   0.000000   0.000000   0.000000   0.000000
     4  H    0.000000   0.000000   0.000000   0.000000   0.000000
     5  H    0.000000   0.000000   0.000000   0.000000   0.000000
 Mulliken charges and spin densities:
               1          2
     1  C   -0.330984   0.000000
     2  S    0.530880   0.000000
     3  O   -0.628003   0.000000
     4  H    0.225320   0.000000
     5  H    0.202787   0.000000
 Sum of Mulliken charges =  -0.00000   0.00000
 Mulliken charges and spin densities with hydrogens summed into heavy atoms:
               1          2
     1  C    0.097123   0.000000
     2  S    0.530880   0.000000
     3  O   -0.628003   0.000000
 Electronic spatial extent (au):  <R**2>=            830.4202
 Charge=             -0.0000 electrons
 Dipole moment (field-independent basis, Debye):
    X=             -2.9111    Y=              1.2851    Z=              2.2497  Tot=              3.8971
 Quadrupole moment (field-independent basis, Debye-Ang):
   XX=            -35.9046   YY=            -25.9351   ZZ=            -27.9542
   XY=              4.4390   XZ=              7.9638   YZ=             -1.5439
 Traceless Quadrupole moment (field-independent basis, Debye-Ang):
   XX=             -5.9733   YY=              3.9962   ZZ=              1.9771
   XY=              4.4390   XZ=              7.9638   YZ=             -1.5439
 Octapole moment (field-independent basis, Debye-Ang**2):
  XXX=           -205.8482  YYY=             14.1609  ZZZ=             34.2048  XYY=            -59.1144
  XXY=             19.0877  XXZ=             35.7874  XZZ=            -68.9496  YZZ=              7.8718
  YYZ=             11.2379  XYZ=             -7.7512
 Hexadecapole moment (field-independent basis, Debye-Ang**3):
 XXXX=          -1027.4735 YYYY=            -49.3314 ZZZZ=           -101.7475 XXXY=             89.7702
 XXXZ=            170.7410 YYYX=             44.2251 YYYZ=            -19.0726 ZZZX=            102.0201
 ZZZY=            -20.8060 XXYY=           -167.0996 XXZZ=           -207.9417 YYZZ=            -25.5826
 XXYZ=            -32.0179 YYXZ=             33.2776 ZZXY=             24.0984
 N-N= 1.027536228800D+02 E-N=-1.419969661922D+03  KE= 5.110870777921D+02
                          Isotropic Fermi Contact Couplings
        Atom                 a.u.       MegaHertz       Gauss      10(-4) cm-1
     1  C(13)              0.00000       0.00000       0.00000       0.00000
     2  S(33)              0.00000       0.00000       0.00000       0.00000
     3  O(17)              0.00000      -0.00000      -0.00000      -0.00000
     4  H(1)               0.00000       0.00000       0.00000       0.00000
     5  H(1)               0.00000       0.00000       0.00000       0.00000
 --------------------------------------------------------
       Center         ----  Spin Dipole Couplings  ----
                      3XX-RR        3YY-RR        3ZZ-RR
 --------------------------------------------------------
     1   Atom        0.000000      0.000000      0.000000
     2   Atom        0.000000      0.000000      0.000000
     3   Atom        0.000000      0.000000      0.000000
     4   Atom        0.000000      0.000000      0.000000
     5   Atom        0.000000      0.000000      0.000000
 --------------------------------------------------------
                        XY            XZ            YZ
 --------------------------------------------------------
     1   Atom        0.000000      0.000000      0.000000
     2   Atom        0.000000      0.000000      0.000000
     3   Atom        0.000000      0.000000      0.000000
     4   Atom        0.000000      0.000000      0.000000
     5   Atom        0.000000      0.000000      0.000000
 --------------------------------------------------------


 ---------------------------------------------------------------------------------
              Anisotropic Spin Dipole Couplings in Principal Axis System
 ---------------------------------------------------------------------------------

       Atom             a.u.   MegaHertz   Gauss  10(-4) cm-1        Axes

              Baa     0.0000     0.000     0.000     0.000  1.0000  0.0000  0.0000
     1 C(13)  Bbb     0.0000     0.000     0.000     0.000 -0.0000  1.0000  0.0000
              Bcc     0.0000     0.000     0.000     0.000  0.0000  0.0000  1.0000
 
              Baa     0.0000     0.000     0.000     0.000  1.0000  0.0000  0.0000
     2 S(33)  Bbb     0.0000     0.000     0.000     0.000 -0.0000  1.0000  0.0000
              Bcc     0.0000     0.000     0.000     0.000  0.0000  0.0000  1.0000
 
              Baa     0.0000    -0.000    -0.000    -0.000  1.0000  0.0000  0.0000
     3 O(17)  Bbb     0.0000    -0.000    -0.000    -0.000 -0.0000  1.0000  0.0000
              Bcc     0.0000    -0.000    -0.000    -0.000  0.0000  0.0000  1.0000
 
              Baa     0.0000     0.000     0.000     0.000  1.0000  0.0000  0.0000
     4 H(1)   Bbb     0.0000     0.000     0.000     0.000 -0.0000  1.0000  0.0000
              Bcc     0.0000     0.000     0.000     0.000  0.0000  0.0000  1.0000
 
              Baa     0.0000     0.000     0.000     0.000  1.0000  0.0000  0.0000
     5 H(1)   Bbb     0.0000     0.000     0.000     0.000 -0.0000  1.0000  0.0000
              Bcc     0.0000     0.000     0.000     0.000  0.0000  0.0000  1.0000
 

 ---------------------------------------------------------------------------------

 No NMR shielding tensors so no spin-rotation constants.
 Leave Link  601 at Tue Jan  3 09:10:51 2023, MaxMem=   536870912 cpu:               0.6 elap:               0.3
 (Enter /opt/software/gaussian/g16.c01/l801.exe)
 Range of M.O.s used for correlation:     1   274
 NBasis=   274 NAE=    16 NBE=    16 NFC=     0 NFV=     0
 NROrb=    274 NOA=    16 NOB=    16 NVA=   258 NVB=   258

 **** Warning!!: The largest alpha MO coefficient is  0.80997580D+02


 **** Warning!!: The largest beta MO coefficient is  0.80997580D+02

 Leave Link  801 at Tue Jan  3 09:10:51 2023, MaxMem=   536870912 cpu:               0.1 elap:               0.0
 (Enter /opt/software/gaussian/g16.c01/l914.exe)
 UHF ground state
 Doing stability rather than CIS.
 Two-electron integral symmetry not used.
 MDV=   536870912 DFT=F DoStab=T Mixed=F DoRPA=F DoScal=F NonHer=F
 Making orbital integer symmetry assigments:
 FoFJK:  IHMeth= 1 ICntrl=       0 DoSepK=F KAlg= 0 I1Cent=           0 FoldK=F
 IRaf=         0 NMat=       2 IRICut=       1 DoRegI=T DoRafI=F ISym2E= 0 IDoP0=0 IntGTp=1.
 FoFCou: FMM=F IPFlag=           0 FMFlag=      100000 FMFlg1=           0
         NFxFlg=           0 DoJE=F BraDBF=F KetDBF=F FulRan=T
         wScrn=  0.000000 ICntrl=         0 IOpCl=  1 I1Cent=           0 NGrid=           0
         NMat0=    2 NMatS0=      2 NMatT0=    0 NMatD0=    2 NMtDS0=    0 NMtDT0=    0
 Symmetry not used in FoFCou.
    12 initial guesses have been made.
 Convergence on wavefunction:    0.001000000000000
 Davidson Disk Diagonalization:  ConvIn= 1.00D-03 SkipCon=T Conv= 1.00D-03.
 Max sub-space:  2000 roots to seek:    12 dimension of matrix:         8256
 Iteration     1 Dimension    12 NMult     0 NNew     12
 CISAX will form    12 AO SS matrices at one time.
 NMat=    12 NSing=    12 JSym2X= 0.
 Excitation Energies [eV] at current iteration:
 Root      1 :    -0.083006740457154
 Root      2 :     3.891014973551720
 Root      3 :     5.939805163849821
 Root      4 :     6.245064858472233
 Root      5 :     6.289377805772276
 Root      6 :     6.972441139214878
 Root      7 :     7.210029390026687
 Root      8 :     7.969177522553399
 Root      9 :     8.324198202147491
 Root     10 :     9.193631728054177
 Root     11 :    10.208025754046298
 Root     12 :    13.307998885059956
 Iteration     2 Dimension    24 NMult    12 NNew     12
 CISAX will form    12 AO SS matrices at one time.
 NMat=    12 NSing=    12 JSym2X= 0.
 Root      1 not converged, maximum delta is    0.048910925682921
 Excitation Energies [eV] at current iteration:
 Root      1 :    -1.187870560940969   Change is   -1.104863820483816
 Root      2 :     2.479916983647436   Change is   -1.411097989904284
 Root      3 :     4.628760337617925   Change is   -1.660617468154350
 Root      4 :     5.000289988405318   Change is   -0.939515175444504
 Root      5 :     5.047555895907037   Change is   -1.197508962565197
 Root      6 :     5.380531280816224   Change is   -1.591909858398654
 Root      7 :     5.423442893926131   Change is   -4.784582860120168
 Root      8 :     6.494172363036626   Change is   -0.715857026990061
 Root      9 :     6.793608444006471   Change is   -1.175569078546929
 Root     10 :     7.922000985831565   Change is   -0.402197216315925
 Root     11 :     8.464914033498227   Change is   -0.728717694555950
 Root     12 :     9.737912281545785   Change is   -3.570086603514169
 Iteration     3 Dimension    27 NMult    24 NNew      3
 CISAX will form     3 AO SS matrices at one time.
 NMat=     3 NSing=     3 JSym2X= 0.
 Root      1 not converged, maximum delta is    0.007676000584532
 Excitation Energies [eV] at current iteration:
 Root      1 :    -1.235578704377338   Change is   -0.047708143436369
 Root      2 :     2.342227361391039   Change is   -0.137689622256398
 Root      3 :     4.464906541662645   Change is   -0.163853795955281
 Iteration     4 Dimension    30 NMult    27 NNew      3
 CISAX will form     3 AO SS matrices at one time.
 NMat=     3 NSing=     3 JSym2X= 0.
 Root      1 not converged, maximum delta is    0.001854268098171
 Excitation Energies [eV] at current iteration:
 Root      1 :    -1.239975039906123   Change is   -0.004396335528784
 Root      2 :     2.317810160324757   Change is   -0.024417201066281
 Root      3 :     4.437418673866426   Change is   -0.027487867796218
 Iteration     5 Dimension    33 NMult    30 NNew      3
 CISAX will form     3 AO SS matrices at one time.
 NMat=     3 NSing=     3 JSym2X= 0.
 Root      1 has converged.
 Excitation Energies [eV] at current iteration:
 Root      1 :    -1.240350430169323   Change is   -0.000375390263200
 Root      2 :     2.314377072560502   Change is   -0.003433087764255
 Root      3 :     4.426859986136706   Change is   -0.010558687729720
 Convergence achieved on expansion vectors.
 ***********************************************************************
 Stability analysis using <AA,BB:AA,BB> singles matrix:
 ***********************************************************************
 1PDM for each excited state written to RWF  633
 Ground to excited state transition densities written to RWF  633

 Eigenvectors of the stability matrix:
 
 Excited state symmetry could not be determined.
 Eigenvector   1:  3.000-?Sym  Eigenvalue=-0.0455820  <S**2>=2.000
     13A -> 17A        0.12013
     16A -> 17A       -0.64005
     16A -> 29A       -0.14335
     16A -> 31A        0.13197
     13B -> 17B       -0.12013
     16B -> 17B        0.64005
     16B -> 29B        0.14335
     16B -> 31B       -0.13197
 The wavefunction has an internal instability.
 Leave Link  914 at Tue Jan  3 09:15:29 2023, MaxMem=   536870912 cpu:             556.1 elap:             278.1
 (Enter /opt/software/gaussian/g16.c01/l508.exe)
 Two-electron integral symmetry not used.
 Very tight linear equation convergence will be used.
 UHF wavefunction.
 Quadratic Convergence SCF Method.
 Line search only if initial step raises energy.
 Fock matrices will be formed incrementally for  20 cycles.
 Perform preliminary linear searches along instability eigenvector.
     ILin= 1 X=0.000D+00 Y=-5.114362764719D+02 DE= 0.00D+00
 FoFJK:  IHMeth= 1 ICntrl=       0 DoSepK=F KAlg= 0 I1Cent=           0 FoldK=F
 IRaf= 980000000 NMat=       1 IRICut=       1 DoRegI=T DoRafI=F ISym2E= 0 IDoP0=0 IntGTp=1.
 FoFCou: FMM=F IPFlag=           0 FMFlag=      100000 FMFlg1=           0
         NFxFlg=           0 DoJE=F BraDBF=F KetDBF=F FulRan=T
         wScrn=  0.000000 ICntrl=         0 IOpCl=  1 I1Cent=           0 NGrid=           0
         NMat0=    1 NMatS0=      1 NMatT0=    0 NMatD0=    1 NMtDS0=    0 NMtDT0=    0
 Symmetry not used in FoFCou.
     ILin= 2 X=1.000D-01 Y=-5.114367196426D+02 DE=-4.43D-04
     ILin= 3 X=1.414D-01 Y=-5.114371380197D+02 DE=-8.62D-04
     ILin= 4 X=2.000D-01 Y=-5.114379012396D+02 DE=-1.62D-03
     ILin= 5 X=2.828D-01 Y=-5.114391393677D+02 DE=-2.86D-03
     ILin= 6 X=4.000D-01 Y=-5.114405080080D+02 DE=-4.23D-03
     ILin= 7 X=5.657D-01 Y=-5.114391647534D+02 DE=-2.89D-03
     An  expanding polynomial of degree  7 produced  0.4453
 Iteration F X= 4.453D-01 EE=-5.114406641354025D+02
     ILin= 1 X=0.000D+00 Y=-5.114362764719D+02 DE= 0.00D+00
     ILin= 2 X=1.000D-01 Y=-5.114367196493D+02 DE=-4.43D-04
     ILin= 3 X=1.414D-01 Y=-5.114371380386D+02 DE=-8.62D-04
 The two search directions are symmetric.
 Iteration B X= 4.453D-01 EE=-5.114406641354025D+02
 Take forward step, X= 4.453D-01 Step= 4.453D-01
 Iteration   1 EE= -511.440664232204                                    Grad=2.752D-02 Max rot=    0.3699 deg.
 Gradient too large for Newton-Raphson -- use scaled steepest descent instead.
 Alpha Gap=     0.466 HL deriv= 2.05D-03
  Beta Gap=     0.468 HL deriv= 5.81D-04
     ILin= 1 X=0.000D+00 Y=-5.114406642322D+02 DE= 0.00D+00 F= -1.14D-03
 RMSU=  2.46D-05    CP:  1.00D+00
     ILin= 2 X=3.000D-01 Y=-5.114409689894D+02 DE=-3.05D-04 F= -8.96D-04 OKLS=F
 RMSU=  1.73D-07    CP:  1.00D+00  2.00D+00
     ILin= 3 X=6.000D-01 Y=-5.114412017980D+02 DE=-5.38D-04 F= -6.56D-04
 RMSU=  2.47D-05    CP:  1.00D+00  3.00D+00  3.00D+00
     ILin= 4 X=1.200D+00 Y=-5.114414520826D+02 DE=-7.88D-04 F= -1.78D-04
 RMSU=  4.95D-05    CP:  1.00D+00  3.00D+00  3.00D+00  3.00D+00
     ILin= 5 X=2.400D+00 Y=-5.114410950523D+02 DE=-4.31D-04 F=  7.72D-04
     An  expanding polynomial of degree  5 produced  1.4244
 RMSU=  1.14D-07    CP:  1.00D+00  3.00D+00  3.00D+00  1.75D+00  8.06D-05
 Iteration   2 EE= -511.441472088138     Delta-E=       -0.000807855934 Grad=1.326D-02 Max rot=    0.2057 deg.
 Gradient too large for Newton-Raphson -- use scaled steepest descent instead.
 Alpha Gap=     0.464 HL deriv= 6.54D-03
  Beta Gap=     0.466 HL deriv= 3.44D-03
     ILin= 1 X=0.000D+00 Y=-5.114414720881D+02 DE= 0.00D+00 F= -2.34D-04
 RMSU=  2.39D-05    CP:  1.00D+00  3.00D+00  3.00D+00  1.55D+00 -5.94D-04
                    CP: -3.00D+00
     ILin= 2 X=7.000D-01 Y=-5.114415758423D+02 DE=-1.04D-04 F= -6.26D-05 OKLS=T
     Reject lnstep IMin12=  1  2 Big=T Turn=F Min= 1.155D+00 FVal=-5.114416057384D+02 Lims=  0.00D+00  7.00D-01
 RMSU=  4.53D-07    CP:  1.00D+00  3.00D+00 -1.17D+00  1.38D+00 -5.93D-04
                    CP: -3.00D+00  1.86D+00
     ILin= 3 X=1.300D+00 Y=-5.114415692635D+02 DE=-9.72D-05 F=  8.45D-05
     An  expanding polynomial of degree  3 produced  0.9552
 RMSU=  1.01D-08    CP:  1.00D+00  3.00D+00  1.26D+00  1.47D+00 -6.06D-04
                    CP: -3.00D+00  1.36D+00  3.77D-01
 Iteration   3 EE= -511.441583830046     Delta-E=       -0.000111741908 Grad=8.845D-03 Max rot=    0.1102 deg.
 QCNR:  CnvC1=9.09D-10 CnvC2=9.09D-09
 LinEq1:  Iter=  0 NonCon=     1 RMS=9.31D-05 Max=4.04D-03 NDo=     1
 AX will form     1 AO Fock derivatives at one time.
 LinEq1:  Iter=  1 NonCon=     1 RMS=8.08D-05 Max=3.36D-03 NDo=     1
 LinEq1:  Iter=  2 NonCon=     1 RMS=1.65D-05 Max=4.76D-04 NDo=     1
 LinEq1:  Iter=  3 NonCon=     1 RMS=8.36D-06 Max=3.23D-04 NDo=     1
 LinEq1:  Iter=  4 NonCon=     1 RMS=1.98D-06 Max=7.12D-05 NDo=     1
 LinEq1:  Iter=  5 NonCon=     1 RMS=8.72D-07 Max=2.13D-05 NDo=     1
 LinEq1:  Iter=  6 NonCon=     1 RMS=2.74D-07 Max=8.02D-06 NDo=     1
 LinEq1:  Iter=  7 NonCon=     1 RMS=5.48D-08 Max=1.01D-06 NDo=     1
 LinEq1:  Iter=  8 NonCon=     1 RMS=1.59D-08 Max=2.51D-07 NDo=     1
 LinEq1:  Iter=  9 NonCon=     1 RMS=4.47D-09 Max=7.96D-08 NDo=     1
 LinEq1:  Iter= 10 NonCon=     1 RMS=7.46D-10 Max=1.16D-08 NDo=     1
 LinEq1:  Iter= 11 NonCon=     0 RMS=1.58D-10 Max=1.84D-09 NDo=     1
 Linear equations converged to 9.086D-10 9.086D-09 after    11 iterations.
 Angle between quadratic step and gradient=  60.20 degrees.
     ILin= 1 X=0.000D+00 Y=-5.114415838300D+02 DE= 0.00D+00 F= -5.99D-04
 RMSU=  1.10D-04    CP:  1.00D+00  3.00D+00 -3.00D+00  3.00D+00  1.66D-01
                    CP: -3.00D+00  3.00D+00  3.00D+00 -3.00D+00
     ILin= 2 X=1.000D+00 Y=-5.114418689338D+02 DE=-2.85D-04 F=  4.49D-05 OKLS=T
     Accept linear search using points  1 and  2.
     An  expanding polynomial of degree  2 produced  0.9349
     Minimum is close to point  2 DX= -6.51D-02 DF= -1.46D-06 DXR=  6.96D-02 DFR=  5.12D-03 which will be used.
 Iteration   4 EE= -511.441868933850     Delta-E=       -0.000285103804 Grad=1.045D-03 Max rot=    0.0229 deg.
 QCNR:  CnvC1=9.09D-10 CnvC2=9.09D-09
 LinEq1:  Iter=  0 NonCon=     1 RMS=1.58D-05 Max=6.86D-04 NDo=     1
 LinEq1:  Iter=  1 NonCon=     1 RMS=4.72D-06 Max=1.26D-04 NDo=     1
 LinEq1:  Iter=  2 NonCon=     1 RMS=3.34D-06 Max=1.11D-04 NDo=     1
 LinEq1:  Iter=  3 NonCon=     1 RMS=8.33D-07 Max=2.22D-05 NDo=     1
 LinEq1:  Iter=  4 NonCon=     1 RMS=4.22D-07 Max=1.49D-05 NDo=     1
 LinEq1:  Iter=  5 NonCon=     1 RMS=1.29D-07 Max=2.84D-06 NDo=     1
 LinEq1:  Iter=  6 NonCon=     1 RMS=4.76D-08 Max=9.43D-07 NDo=     1
 LinEq1:  Iter=  7 NonCon=     1 RMS=1.61D-08 Max=2.55D-07 NDo=     1
 LinEq1:  Iter=  8 NonCon=     1 RMS=3.47D-09 Max=4.79D-08 NDo=     1
 LinEq1:  Iter=  9 NonCon=     1 RMS=8.77D-10 Max=1.24D-08 NDo=     1
 LinEq1:  Iter= 10 NonCon=     0 RMS=2.61D-10 Max=4.56D-09 NDo=     1
 Linear equations converged to 9.086D-10 9.086D-09 after    10 iterations.
 Angle between quadratic step and gradient=  44.06 degrees.
     ILin= 1 X=0.000D+00 Y=-5.114418689338D+02 DE= 0.00D+00 F= -9.42D-06
 RMSU=  9.33D-06    CP:  1.00D+00  3.00D+00 -3.00D+00  3.00D+00  1.31D-01
                    CP: -3.00D+00  3.00D+00  2.98D+00 -3.00D+00  9.23D-01
     ILin= 2 X=1.000D+00 Y=-5.114418736803D+02 DE=-4.75D-06 F= -1.12D-07 OKLS=T
     Reject lnstep IMin12=  1  2 Big=T Turn=F Min= 1.012D+00 FVal=-5.114418736810D+02 Lims=  0.00D+00  1.00D+00
 RMSU=  3.94D-07    CP:  1.00D+00  3.00D+00 -3.00D+00  3.00D+00  9.60D-02
                    CP: -3.00D+00  3.00D+00  2.21D+00 -3.00D+00  8.45D-01
                    CP:  2.00D+00
     ILin= 3 X=2.000D+00 Y=-5.114418692322D+02 DE=-2.98D-07 F=  8.97D-06
     An  expanding polynomial of degree  3 produced  1.0162
     Minimum is close to point  2 DX=  1.62D-02 DF= -1.21D-09 DXR=  1.60D-02 DFR=  2.55D-04 which will be used.
 Iteration   5 EE= -511.441873680286     Delta-E=       -0.000004746436 Grad=1.257D-05 Max rot=    0.0003 deg.
 QCNR:  CnvC1=1.26D-10 CnvC2=1.26D-09
 LinEq1:  Iter=  0 NonCon=     1 RMS=2.00D-07 Max=9.16D-06 NDo=     1
 LinEq1:  Iter=  1 NonCon=     1 RMS=3.73D-08 Max=7.35D-07 NDo=     1
 LinEq1:  Iter=  2 NonCon=     1 RMS=1.96D-08 Max=5.32D-07 NDo=     1
 LinEq1:  Iter=  3 NonCon=     1 RMS=8.61D-09 Max=1.23D-07 NDo=     1
 LinEq1:  Iter=  4 NonCon=     1 RMS=4.51D-09 Max=1.32D-07 NDo=     1
 LinEq1:  Iter=  5 NonCon=     1 RMS=1.09D-09 Max=2.04D-08 NDo=     1
 LinEq1:  Iter=  6 NonCon=     1 RMS=3.40D-10 Max=7.11D-09 NDo=     1
 LinEq1:  Iter=  7 NonCon=     1 RMS=1.24D-10 Max=2.47D-09 NDo=     1
 LinEq1:  Iter=  8 NonCon=     0 RMS=3.77D-11 Max=7.49D-10 NDo=     1
 Linear equations converged to 1.257D-10 1.257D-09 after     8 iterations.
 Angle between quadratic step and gradient=  44.21 degrees.
     ILin= 1 X=0.000D+00 Y=-5.114418736803D+02 DE= 0.00D+00 F= -2.11D-09
 RMSU=  5.82D-08    CP:  1.00D+00  3.00D+00 -3.00D+00  3.00D+00  1.30D-01
                    CP: -3.00D+00  3.00D+00  2.96D+00 -3.00D+00  9.21D-01
                    CP:  1.01D+00  5.48D-03
     ILin= 2 X=1.000D+00 Y=-5.114418736813D+02 DE=-1.06D-09
 Iteration   6 EE= -511.441873681343     Delta-E=       -0.000000001057 Grad=4.807D-07 Max rot=    0.0000 deg.
 Rotation gradient small -- convergence achieved.
 SCF Done:  E(UHF) =  -511.441873681     a.u. after    6 cycles
            Convg  =    0.4807D-06                    50 Fock formations.
              S**2 =  0.4361                  -V/T =  2.0004
 <Sx>= 0.0000 <Sy>= 0.0000 <Sz>= 0.0000 <S**2>= 0.4361 S= 0.3283
 <L.S>=  0.00000000000    
 Annihilation of the first spin contaminant:
 S**2 before annihilation     0.4361,   after     0.0446
 Leave Link  508 at Tue Jan  3 09:28:10 2023, MaxMem=   536870912 cpu:            1522.7 elap:             761.7
 (Enter /opt/software/gaussian/g16.c01/l801.exe)
 Range of M.O.s used for correlation:     1   274
 NBasis=   274 NAE=    16 NBE=    16 NFC=     0 NFV=     0
 NROrb=    274 NOA=    16 NOB=    16 NVA=   258 NVB=   258

 **** Warning!!: The largest alpha MO coefficient is  0.78898392D+02


 **** Warning!!: The largest beta MO coefficient is  0.81626699D+02

 Leave Link  801 at Tue Jan  3 09:28:11 2023, MaxMem=   536870912 cpu:               0.1 elap:               0.0
 (Enter /opt/software/gaussian/g16.c01/l914.exe)
 UHF ground state
 Doing stability rather than CIS.
 Two-electron integral symmetry not used.
 MDV=   536870912 DFT=F DoStab=T Mixed=F DoRPA=F DoScal=F NonHer=F
 Making orbital integer symmetry assigments:
 FoFJK:  IHMeth= 1 ICntrl=       0 DoSepK=F KAlg= 0 I1Cent=           0 FoldK=F
 IRaf=         0 NMat=       2 IRICut=       1 DoRegI=T DoRafI=F ISym2E= 0 IDoP0=0 IntGTp=1.
 FoFCou: FMM=F IPFlag=           0 FMFlag=      100000 FMFlg1=           0
         NFxFlg=           0 DoJE=F BraDBF=F KetDBF=F FulRan=T
         wScrn=  0.000000 ICntrl=         0 IOpCl=  1 I1Cent=           0 NGrid=           0
         NMat0=    2 NMatS0=      2 NMatT0=    0 NMatD0=    2 NMtDS0=    0 NMtDT0=    0
 Symmetry not used in FoFCou.
    12 initial guesses have been made.
 Convergence on wavefunction:    0.001000000000000
 Davidson Disk Diagonalization:  ConvIn= 1.00D-03 SkipCon=T Conv= 1.00D-03.
 Max sub-space:  2000 roots to seek:    12 dimension of matrix:         8256
 Iteration     1 Dimension    12 NMult     0 NNew     12
 CISAX will form    12 AO SS matrices at one time.
 NMat=    12 NSing=    12 JSym2X= 0.
 Excitation Energies [eV] at current iteration:
 Root      1 :     3.402401690394619
 Root      2 :     4.045840677847092
 Root      3 :     6.542732716007369
 Root      4 :     6.566722510153010
 Root      5 :     6.699009995529474
 Root      6 :     7.162141588839099
 Root      7 :     7.352021072099221
 Root      8 :     8.099384493591208
 Root      9 :     8.333103797816833
 Root     10 :     9.301007686514540
 Root     11 :     9.633551702650816
 Root     12 :    10.262957557024306
 Iteration     2 Dimension    24 NMult    12 NNew     12
 CISAX will form    12 AO SS matrices at one time.
 NMat=    12 NSing=    12 JSym2X= 0.
 Root      1 not converged, maximum delta is    0.113340260549598
 Excitation Energies [eV] at current iteration:
 Root      1 :     2.153894709319189   Change is   -1.248506981075431
 Root      2 :     2.718804107891803   Change is   -1.327036569955289
 Root      3 :     4.027774373862509   Change is   -2.538948136290502
 Root      4 :     5.224327121122331   Change is   -1.318405594885039
 Root      5 :     5.517989817269278   Change is   -1.834031254829944
 Root      6 :     5.648547304120870   Change is   -1.050462691408605
 Root      7 :     6.142417078188351   Change is   -1.019724510650748
 Root      8 :     7.378168341129648   Change is   -2.884789215894658
 Root      9 :     7.457270385782789   Change is   -0.642114107808418
 Root     10 :     7.530408613248012   Change is   -0.802695184568820
 Root     11 :     8.176122627006350   Change is   -1.457429075644466
 Root     12 :     8.293784818975501   Change is   -1.007222867539038
 Iteration     3 Dimension    27 NMult    24 NNew      3
 CISAX will form     3 AO SS matrices at one time.
 NMat=     3 NSing=     3 JSym2X= 0.
 Root      1 not converged, maximum delta is    0.061894629851386
 Excitation Energies [eV] at current iteration:
 Root      1 :     1.908257074869937   Change is   -0.245637634449252
 Root      2 :     2.642327370858152   Change is   -0.076476737033652
 Root      3 :     3.495986459877224   Change is   -0.531787913985285
 Iteration     4 Dimension    30 NMult    27 NNew      3
 CISAX will form     3 AO SS matrices at one time.
 NMat=     3 NSing=     3 JSym2X= 0.
 Root      1 not converged, maximum delta is    0.015280139251846
 Excitation Energies [eV] at current iteration:
 Root      1 :     1.864750948997059   Change is   -0.043506125872878
 Root      2 :     2.638357209138211   Change is   -0.003970161719940
 Root      3 :     3.432383493356941   Change is   -0.063602966520283
 Iteration     5 Dimension    33 NMult    30 NNew      3
 CISAX will form     3 AO SS matrices at one time.
 NMat=     3 NSing=     3 JSym2X= 0.
 Root      1 not converged, maximum delta is    0.004536963974272
 Excitation Energies [eV] at current iteration:
 Root      1 :     1.856358116362947   Change is   -0.008392832634112
 Root      2 :     2.637875602017946   Change is   -0.000481607120265
 Root      3 :     3.423097745712391   Change is   -0.009285747644550
 Iteration     6 Dimension    36 NMult    33 NNew      3
 CISAX will form     3 AO SS matrices at one time.
 NMat=     3 NSing=     3 JSym2X= 0.
 Root      1 not converged, maximum delta is    0.002339329562289
 Excitation Energies [eV] at current iteration:
 Root      1 :     1.854442677323097   Change is   -0.001915439039850
 Root      2 :     2.637815408750229   Change is   -0.000060193267716
 Root      3 :     3.420598595343006   Change is   -0.002499150369385
 Iteration     7 Dimension    39 NMult    36 NNew      3
 CISAX will form     3 AO SS matrices at one time.
 NMat=     3 NSing=     3 JSym2X= 0.
 Root      1 not converged, maximum delta is    0.001007734299901
 Excitation Energies [eV] at current iteration:
 Root      1 :     1.854143012341348   Change is   -0.000299664981749
 Root      2 :     2.637809834615384   Change is   -0.000005574134845
 Root      3 :     3.419948874669508   Change is   -0.000649720673498
 Iteration     8 Dimension    42 NMult    39 NNew      3
 CISAX will form     3 AO SS matrices at one time.
 NMat=     3 NSing=     3 JSym2X= 0.
 Root      1 has converged.
 Excitation Energies [eV] at current iteration:
 Root      1 :     1.854099296283967   Change is   -0.000043716057381
 Root      2 :     2.637808836798567   Change is   -0.000000997816817
 Root      3 :     3.419803318495945   Change is   -0.000145556173563
 Convergence achieved on expansion vectors.
 ***********************************************************************
 Stability analysis using <AA,BB:AA,BB> singles matrix:
 ***********************************************************************
 1PDM for each excited state written to RWF  633
 Ground to excited state transition densities written to RWF  633

 Eigenvectors of the stability matrix:
 
 Excited state symmetry could not be determined.
 Eigenvector   1:  2.360-?Sym  Eigenvalue= 0.0681369  <S**2>=1.142
     16A -> 19A       -0.58497
     16A -> 21A        0.52130
     16A -> 25A       -0.10061
     16A -> 29A       -0.20839
     16B -> 19B       -0.24978
     16B -> 21B        0.33483
     16B -> 31B       -0.12306
 The wavefunction is stable under the perturbations considered.
 Leave Link  914 at Tue Jan  3 09:34:29 2023, MaxMem=   536870912 cpu:             756.8 elap:             378.4
 (Enter /opt/software/gaussian/g16.c01/l508.exe)
 The wavefunction is already stable.
 Leave Link  508 at Tue Jan  3 09:34:29 2023, MaxMem=   536870912 cpu:               0.0 elap:               0.0
 (Enter /opt/software/gaussian/g16.c01/l601.exe)
 Copying SCF densities to generalized density rwf, IOpCl= 1 IROHF=0.

 **********************************************************************

            Population analysis using the SCF Density.

 **********************************************************************

 Alpha  occ. eigenvalues --  -92.06789 -20.54783 -11.29599  -9.05885  -6.74114
 Alpha  occ. eigenvalues --   -6.74038  -6.73350  -1.35252  -1.07525  -0.80935
 Alpha  occ. eigenvalues --   -0.66521  -0.63337  -0.54344  -0.54069  -0.43217
 Alpha  occ. eigenvalues --   -0.39933
 Alpha virt. eigenvalues --    0.04663   0.05066   0.05269   0.06350   0.06418
 Alpha virt. eigenvalues --    0.10204   0.12608   0.13013   0.14749   0.16431
 Alpha virt. eigenvalues --    0.17423   0.18553   0.20608   0.21106   0.21730
 Alpha virt. eigenvalues --    0.24181   0.25088   0.25710   0.28742   0.28943
 Alpha virt. eigenvalues --    0.29244   0.29708   0.31178   0.32009   0.33013
 Alpha virt. eigenvalues --    0.34259   0.36071   0.36837   0.38231   0.38954
 Alpha virt. eigenvalues --    0.40809   0.42688   0.44170   0.44742   0.47751
 Alpha virt. eigenvalues --    0.49042   0.52174   0.54288   0.54368   0.58610
 Alpha virt. eigenvalues --    0.59142   0.59656   0.61330   0.62267   0.66371
 Alpha virt. eigenvalues --    0.67157   0.71491   0.71837   0.74535   0.76187
 Alpha virt. eigenvalues --    0.77741   0.82113   0.83671   0.84053   0.86127
 Alpha virt. eigenvalues --    0.93262   0.98152   0.98453   1.01388   1.02014
 Alpha virt. eigenvalues --    1.04472   1.09474   1.13198   1.15705   1.19202
 Alpha virt. eigenvalues --    1.23954   1.25481   1.26949   1.29209   1.32194
 Alpha virt. eigenvalues --    1.32955   1.38308   1.40299   1.42112   1.44104
 Alpha virt. eigenvalues --    1.47722   1.52816   1.56447   1.56668   1.60258
 Alpha virt. eigenvalues --    1.61625   1.70490   1.72593   1.73779   1.79990
 Alpha virt. eigenvalues --    1.81966   1.86432   1.90521   1.95199   1.97616
 Alpha virt. eigenvalues --    2.03322   2.07701   2.12854   2.14090   2.14421
 Alpha virt. eigenvalues --    2.17011   2.20994   2.24336   2.27752   2.35431
 Alpha virt. eigenvalues --    2.45489   2.46260   2.50841   2.53017   2.55402
 Alpha virt. eigenvalues --    2.59010   2.66311   2.69057   2.75272   2.83808
 Alpha virt. eigenvalues --    2.85296   2.87672   2.91838   2.93920   2.96533
 Alpha virt. eigenvalues --    3.03912   3.06783   3.07585   3.12395   3.16693
 Alpha virt. eigenvalues --    3.23640   3.25525   3.28108   3.32306   3.35049
 Alpha virt. eigenvalues --    3.45759   3.48293   3.51319   3.51947   3.52034
 Alpha virt. eigenvalues --    3.60501   3.62327   3.63527   3.66845   3.69561
 Alpha virt. eigenvalues --    3.75424   3.75831   3.78907   3.85100   3.92920
 Alpha virt. eigenvalues --    3.93020   3.98173   3.99916   4.03668   4.05491
 Alpha virt. eigenvalues --    4.14869   4.18877   4.28120   4.35685   4.37293
 Alpha virt. eigenvalues --    4.37434   4.41158   4.50765   4.54442   4.62861
 Alpha virt. eigenvalues --    4.71314   4.83774   4.92129   5.22494   5.25889
 Alpha virt. eigenvalues --    5.33757   5.40727   5.53620   5.58394   5.59981
 Alpha virt. eigenvalues --    5.65321   5.67310   5.72629   5.72806   5.84441
 Alpha virt. eigenvalues --    5.93125   5.97898   6.08730   6.13924   6.16188
 Alpha virt. eigenvalues --    6.25602   6.30440   6.32145   6.36368   6.51610
 Alpha virt. eigenvalues --    6.59290   6.66925   6.69775   6.78544   6.83199
 Alpha virt. eigenvalues --    6.93273   7.06218   7.13362   7.22233   7.41759
 Alpha virt. eigenvalues --    7.46839   7.59368   7.66119   7.72915   7.85887
 Alpha virt. eigenvalues --    7.87308   7.91785   7.95258   7.97578   8.00399
 Alpha virt. eigenvalues --    8.23821   8.37107   8.39868   8.51856   8.53874
 Alpha virt. eigenvalues --    8.62096   8.63645   8.68034   8.73311   8.78589
 Alpha virt. eigenvalues --    8.93261   9.15755   9.24528   9.28751   9.33992
 Alpha virt. eigenvalues --    9.34208   9.38530   9.38532   9.41056   9.41238
 Alpha virt. eigenvalues --    9.47714   9.61106   9.65890   9.92550   9.96016
 Alpha virt. eigenvalues --   10.01827  10.06885  10.13756  10.17253  10.20705
 Alpha virt. eigenvalues --   10.58428  10.72336  10.85757  11.56988  11.58512
 Alpha virt. eigenvalues --   11.80084  11.82753  12.23158  12.33851  12.43101
 Alpha virt. eigenvalues --   12.49240  12.77042  12.79868  12.91468  13.02159
 Alpha virt. eigenvalues --   13.31737  13.44355  14.64938  25.63925  29.43664
 Alpha virt. eigenvalues --   29.98839  30.35776  30.73003  49.24559  85.90701
 Alpha virt. eigenvalues --  149.86389 256.07920 455.80237
  Beta  occ. eigenvalues --  -92.07229 -20.56346 -11.28008  -9.06334  -6.75135
  Beta  occ. eigenvalues --   -6.74414  -6.74208  -1.38630  -1.06048  -0.81127
  Beta  occ. eigenvalues --   -0.65958  -0.63670  -0.61267  -0.55544  -0.44550
  Beta  occ. eigenvalues --   -0.40726
  Beta virt. eigenvalues --    0.04704   0.05096   0.05309   0.06377   0.06942
  Beta virt. eigenvalues --    0.10202   0.12643   0.12922   0.14506   0.16140
  Beta virt. eigenvalues --    0.17599   0.18288   0.20972   0.21121   0.23622
  Beta virt. eigenvalues --    0.24206   0.25173   0.25873   0.28467   0.28974
  Beta virt. eigenvalues --    0.29096   0.29560   0.31149   0.31892   0.33100
  Beta virt. eigenvalues --    0.34058   0.35903   0.36694   0.38286   0.39043
  Beta virt. eigenvalues --    0.40916   0.42978   0.44730   0.44915   0.48241
  Beta virt. eigenvalues --    0.49253   0.52493   0.53431   0.54484   0.58005
  Beta virt. eigenvalues --    0.58844   0.59796   0.61008   0.61294   0.65767
  Beta virt. eigenvalues --    0.67833   0.71236   0.72035   0.74911   0.76425
  Beta virt. eigenvalues --    0.77748   0.81968   0.84474   0.86310   0.86326
  Beta virt. eigenvalues --    0.93282   0.98428   0.98738   1.02057   1.02635
  Beta virt. eigenvalues --    1.06907   1.10272   1.13313   1.15810   1.19178
  Beta virt. eigenvalues --    1.23910   1.23948   1.25914   1.28413   1.31295
  Beta virt. eigenvalues --    1.32963   1.37795   1.40771   1.41910   1.43712
  Beta virt. eigenvalues --    1.47577   1.52442   1.55223   1.56637   1.60133
  Beta virt. eigenvalues --    1.61892   1.69786   1.72671   1.73019   1.77016
  Beta virt. eigenvalues --    1.81614   1.86147   1.90177   1.95187   1.97618
  Beta virt. eigenvalues --    2.03065   2.09945   2.13633   2.14999   2.16418
  Beta virt. eigenvalues --    2.19459   2.21499   2.24781   2.28062   2.35951
  Beta virt. eigenvalues --    2.45896   2.46146   2.51086   2.53435   2.56377
  Beta virt. eigenvalues --    2.59306   2.66906   2.69496   2.75810   2.84029
  Beta virt. eigenvalues --    2.84915   2.87853   2.92003   2.96542   2.96785
  Beta virt. eigenvalues --    3.03956   3.06104   3.07533   3.11524   3.16100
  Beta virt. eigenvalues --    3.23452   3.25418   3.27734   3.31509   3.34813
  Beta virt. eigenvalues --    3.45631   3.48406   3.51328   3.51544   3.51595
  Beta virt. eigenvalues --    3.60532   3.62591   3.62856   3.66347   3.68792
  Beta virt. eigenvalues --    3.75033   3.75421   3.79048   3.84926   3.91923
  Beta virt. eigenvalues --    3.93407   3.97870   3.99383   4.03982   4.05612
  Beta virt. eigenvalues --    4.14403   4.18799   4.27913   4.36009   4.36426
  Beta virt. eigenvalues --    4.36560   4.40859   4.48562   4.52798   4.62603
  Beta virt. eigenvalues --    4.68855   4.83622   4.91908   5.22067   5.24702
  Beta virt. eigenvalues --    5.33683   5.41749   5.52878   5.59351   5.60812
  Beta virt. eigenvalues --    5.65939   5.68650   5.73736   5.74328   5.81012
  Beta virt. eigenvalues --    5.94764   5.97293   6.10150   6.14687   6.16947
  Beta virt. eigenvalues --    6.26665   6.30749   6.32543   6.36896   6.52752
  Beta virt. eigenvalues --    6.60819   6.67310   6.70589   6.78998   6.83870
  Beta virt. eigenvalues --    6.93801   7.08449   7.14229   7.23791   7.41343
  Beta virt. eigenvalues --    7.47788   7.59700   7.67263   7.73022   7.86039
  Beta virt. eigenvalues --    7.87537   7.91795   7.95423   7.97762   8.00195
  Beta virt. eigenvalues --    8.24715   8.37156   8.40007   8.51766   8.53911
  Beta virt. eigenvalues --    8.62257   8.63775   8.68364   8.73369   8.78636
  Beta virt. eigenvalues --    8.93259   9.15259   9.24000   9.28597   9.33699
  Beta virt. eigenvalues --    9.33918   9.37348   9.37351   9.40148   9.40333
  Beta virt. eigenvalues --    9.47541   9.60396   9.65202   9.92336   9.95111
  Beta virt. eigenvalues --   10.01870  10.06840  10.14264  10.17120  10.21418
  Beta virt. eigenvalues --   10.58045  10.72364  10.85818  11.54860  11.56395
  Beta virt. eigenvalues --   11.78567  11.81309  12.23241  12.32162  12.42557
  Beta virt. eigenvalues --   12.48368  12.74498  12.77314  12.89063  13.01446
  Beta virt. eigenvalues --   13.32190  13.43421  14.63516  25.63592  29.44336
  Beta virt. eigenvalues --   29.97597  30.35627  30.72815  49.23894  85.90451
  Beta virt. eigenvalues --  149.86618 256.07716 455.80127
          Condensed to atoms (all electrons):
               1          2          3          4          5
     1  C    5.204198   0.392349  -0.080151   0.376682   0.421680
     2  S    0.392349  14.837785   0.342367  -0.036770  -0.022644
     3  O   -0.080151   0.342367   8.326795   0.010820  -0.011406
     4  H    0.376682  -0.036770   0.010820   0.438076   0.000154
     5  H    0.421680  -0.022644  -0.011406   0.000154   0.406983
          Atomic-Atomic Spin Densities.
               1          2          3          4          5
     1  C    0.849543  -0.009573  -0.011285  -0.012237   0.002731
     2  S   -0.009573  -0.572215   0.132817   0.027572  -0.005093
     3  O   -0.011285   0.132817  -0.404531   0.000061  -0.000973
     4  H   -0.012237   0.027572   0.000061  -0.065423   0.003995
     5  H    0.002731  -0.005093  -0.000973   0.003995  -0.063405
 Mulliken charges and spin densities:
               1          2
     1  C   -0.314759   0.819180
     2  S    0.486914  -0.426491
     3  O   -0.588426  -0.283911
     4  H    0.211038  -0.046032
     5  H    0.205233  -0.062745
 Sum of Mulliken charges =   0.00000  -0.00000
 Mulliken charges and spin densities with hydrogens summed into heavy atoms:
               1          2
     1  C    0.101512   0.710402
     2  S    0.486914  -0.426491
     3  O   -0.588426  -0.283911
 Electronic spatial extent (au):  <R**2>=            829.9738
 Charge=              0.0000 electrons
 Dipole moment (field-independent basis, Debye):
    X=             -2.8440    Y=              1.1898    Z=              2.0826  Tot=              3.7204
 Quadrupole moment (field-independent basis, Debye-Ang):
   XX=            -35.8809   YY=            -25.7256   ZZ=            -27.5868
   XY=              4.0582   XZ=              7.2924   YZ=             -1.4226
 Traceless Quadrupole moment (field-independent basis, Debye-Ang):
   XX=             -6.1498   YY=              4.0055   ZZ=              2.1443
   XY=              4.0582   XZ=              7.2924   YZ=             -1.4226
 Octapole moment (field-independent basis, Debye-Ang**2):
  XXX=           -205.8193  YYY=             13.9878  ZZZ=             33.6880  XYY=            -58.8129
  XXY=             17.7340  XXZ=             33.4152  XZZ=            -67.8665  YZZ=              7.6902
  YYZ=             11.0767  XYZ=             -7.1384
 Hexadecapole moment (field-independent basis, Debye-Ang**3):
 XXXX=          -1026.0549 YYYY=            -48.3047 ZZZZ=           -100.3402 XXXY=             84.9590
 XXXZ=            162.3143 YYYX=             43.4205 YYYZ=            -18.8699 ZZZX=            100.1269
[...]
   154    O    3  px     Ryd( 5p)     0.00002       2.21008
   155    O    3  px     Ryd( 6p)     0.00001       5.74472
   156    O    3  py     Val( 2p)     0.91808      -0.48590
   157    O    3  py     Ryd( 4p)     0.00152       0.82222
   158    O    3  py     Ryd( 3p)     0.00009       0.41468
   159    O    3  py     Ryd( 5p)     0.00002       2.09633
   160    O    3  py     Ryd( 6p)     0.00001       5.70574
   161    O    3  pz     Val( 2p)     0.82777      -0.44613
   162    O    3  pz     Ryd( 4p)     0.00080       0.87501
   163    O    3  pz     Ryd( 3p)     0.00008       0.50557
   164    O    3  pz     Ryd( 5p)     0.00003       2.72235
   165    O    3  pz     Ryd( 6p)     0.00002       5.99643
   166    O    3  dxy    Ryd( 4d)     0.00222       1.42717
   167    O    3  dxy    Ryd( 5d)     0.00002       4.23276
   168    O    3  dxy    Ryd( 3d)     0.00001       1.05753
   169    O    3  dxy    Ryd( 6d)     0.00000      12.69514
   170    O    3  dxz    Ryd( 4d)     0.00507       1.51615
   171    O    3  dxz    Ryd( 5d)     0.00003       4.32216
   172    O    3  dxz    Ryd( 3d)     0.00001       1.20014
   173    O    3  dxz    Ryd( 6d)     0.00000      12.79499
   174    O    3  dyz    Ryd( 4d)     0.00579       1.55112
   175    O    3  dyz    Ryd( 5d)     0.00004       4.30917
   176    O    3  dyz    Ryd( 3d)     0.00003       1.21482
   177    O    3  dyz    Ryd( 6d)     0.00000      12.79756
   178    O    3  dx2y2  Ryd( 4d)     0.00203       1.44224
   179    O    3  dx2y2  Ryd( 5d)     0.00003       4.24802
   180    O    3  dx2y2  Ryd( 3d)     0.00002       1.05681
   181    O    3  dx2y2  Ryd( 6d)     0.00000      12.68477
   182    O    3  dz2    Ryd( 4d)     0.00592       1.55977
   183    O    3  dz2    Ryd( 5d)     0.00007       4.31390
   184    O    3  dz2    Ryd( 3d)     0.00001       1.14944
   185    O    3  dz2    Ryd( 6d)     0.00000      12.78335
   186    O    3  f(0)   Ryd( 4f)     0.00010       4.36458
   187    O    3  f(0)   Ryd( 5f)     0.00000      11.78438
   188    O    3  f(C1)  Ryd( 4f)     0.00015       4.33717
   189    O    3  f(C1)  Ryd( 5f)     0.00000      11.77231
   190    O    3  f(S1)  Ryd( 4f)     0.00014       4.45698
   191    O    3  f(S1)  Ryd( 5f)     0.00000      11.78964
   192    O    3  f(C2)  Ryd( 4f)     0.00008       4.20478
   193    O    3  f(C2)  Ryd( 5f)     0.00000      11.73192
   194    O    3  f(S2)  Ryd( 4f)     0.00014       4.28389
   195    O    3  f(S2)  Ryd( 5f)     0.00000      11.74275
   196    O    3  f(C3)  Ryd( 4f)     0.00003       3.77274
   197    O    3  f(C3)  Ryd( 5f)     0.00000      11.61977
   198    O    3  f(S3)  Ryd( 4f)     0.00003       3.77499
   199    O    3  f(S3)  Ryd( 5f)     0.00000      11.61873
   200    O    3  g(0)   Ryd( 5g)     0.00000       9.55443
   201    O    3  g(C1)  Ryd( 5g)     0.00001       9.55384
   202    O    3  g(S1)  Ryd( 5g)     0.00001       9.57046
   203    O    3  g(C2)  Ryd( 5g)     0.00000       9.55454
   204    O    3  g(S2)  Ryd( 5g)     0.00001       9.56874
   205    O    3  g(C3)  Ryd( 5g)     0.00000       9.50943
   206    O    3  g(S3)  Ryd( 5g)     0.00000       9.51023
   207    O    3  g(C4)  Ryd( 5g)     0.00000       9.40389
   208    O    3  g(S4)  Ryd( 5g)     0.00000       9.40445
 
   209    H    4  S      Val( 1S)     0.40817       0.03194
   210    H    4  S      Ryd( 3S)     0.00019       1.98148
   211    H    4  S      Ryd( 2S)     0.00004       1.38409
   212    H    4  S      Ryd( 4S)     0.00000       5.49486
   213    H    4  px     Ryd( 2p)     0.00040       0.60875
   214    H    4  px     Ryd( 3p)     0.00003       2.87889
   215    H    4  px     Ryd( 4p)     0.00001       3.08595
   216    H    4  px     Ryd( 5p)     0.00000       7.97331
   217    H    4  py     Ryd( 2p)     0.00034       0.55392
   218    H    4  py     Ryd( 3p)     0.00011       2.68122
   219    H    4  py     Ryd( 4p)     0.00001       2.93564
   220    H    4  py     Ryd( 5p)     0.00000       7.93983
   221    H    4  pz     Ryd( 2p)     0.00041       0.57736
   222    H    4  pz     Ryd( 3p)     0.00017       3.09518
   223    H    4  pz     Ryd( 4p)     0.00001       4.29127
   224    H    4  pz     Ryd( 5p)     0.00000       8.15948
   225    H    4  dxy    Ryd( 3d)     0.00001       3.19091
   226    H    4  dxy    Ryd( 4d)     0.00000       8.56664
   227    H    4  dxz    Ryd( 3d)     0.00002       3.75906
   228    H    4  dxz    Ryd( 4d)     0.00000       8.87254
   229    H    4  dyz    Ryd( 3d)     0.00001       3.67571
   230    H    4  dyz    Ryd( 4d)     0.00000       8.90208
   231    H    4  dx2y2  Ryd( 3d)     0.00001       3.31746
   232    H    4  dx2y2  Ryd( 4d)     0.00000       8.60744
   233    H    4  dz2    Ryd( 3d)     0.00001       3.86976
   234    H    4  dz2    Ryd( 4d)     0.00000       8.91731
   235    H    4  f(0)   Ryd( 4f)     0.00000       7.02320
   236    H    4  f(C1)  Ryd( 4f)     0.00002       6.88940
   237    H    4  f(S1)  Ryd( 4f)     0.00003       6.87570
   238    H    4  f(C2)  Ryd( 4f)     0.00000       6.81529
   239    H    4  f(S2)  Ryd( 4f)     0.00002       6.70023
   240    H    4  f(C3)  Ryd( 4f)     0.00000       6.57187
   241    H    4  f(S3)  Ryd( 4f)     0.00000       6.56242
 
   242    H    5  S      Val( 1S)     0.40352       0.04785
   243    H    5  S      Ryd( 3S)     0.00028       1.94648
   244    H    5  S      Ryd( 2S)     0.00001       1.82377
   245    H    5  S      Ryd( 4S)     0.00000       5.23334
   246    H    5  px     Ryd( 2p)     0.00033       1.18018
   247    H    5  px     Ryd( 3p)     0.00002       2.46184
   248    H    5  px     Ryd( 4p)     0.00001       3.63847
   249    H    5  px     Ryd( 5p)     0.00000       7.93391
   250    H    5  py     Ryd( 2p)     0.00018       1.03480
   251    H    5  py     Ryd( 3p)     0.00005       2.20206
   252    H    5  py     Ryd( 4p)     0.00000       3.07419
   253    H    5  py     Ryd( 5p)     0.00000       7.82765
   254    H    5  pz     Ryd( 2p)     0.00050       1.17380
   255    H    5  pz     Ryd( 3p)     0.00010       2.43054
   256    H    5  pz     Ryd( 4p)     0.00000       4.23682
   257    H    5  pz     Ryd( 5p)     0.00000       8.00074
   258    H    5  dxy    Ryd( 3d)     0.00001       3.42908
   259    H    5  dxy    Ryd( 4d)     0.00000       8.48967
   260    H    5  dxz    Ryd( 3d)     0.00002       3.85992
   261    H    5  dxz    Ryd( 4d)     0.00000       8.77474
   262    H    5  dyz    Ryd( 3d)     0.00001       3.72571
   263    H    5  dyz    Ryd( 4d)     0.00000       8.65303
   264    H    5  dx2y2  Ryd( 3d)     0.00001       3.61506
   265    H    5  dx2y2  Ryd( 4d)     0.00000       8.52090
   266    H    5  dz2    Ryd( 3d)     0.00001       3.94172
   267    H    5  dz2    Ryd( 4d)     0.00000       8.71926
   268    H    5  f(0)   Ryd( 4f)     0.00000       6.96480
   269    H    5  f(C1)  Ryd( 4f)     0.00002       6.88488
   270    H    5  f(S1)  Ryd( 4f)     0.00002       6.84689
   271    H    5  f(C2)  Ryd( 4f)     0.00001       6.80588
   272    H    5  f(S2)  Ryd( 4f)     0.00003       6.65771
   273    H    5  f(C3)  Ryd( 4f)     0.00000       6.67222
   274    H    5  f(S3)  Ryd( 4f)     0.00001       6.64254

 WARNING:  Population inversion found on atom  C    1
           Population inversion found on atom  S    2
           Population inversion found on atom  O    3
           Population inversion found on atom  H    4
           Population inversion found on atom  H    5


 Summary of Natural Population Analysis:                  
                                                          
                                       Natural Population 
                Natural  -----------------------------------------------
    Atom  No    Charge         Core      Valence    Rydberg      Total
 -----------------------------------------------------------------------
      C    1    0.03593      0.99978     1.94503    0.01926     2.96407
      S    2    0.38453      4.99932     2.53971    0.07644     7.61547
      O    3   -0.60525      0.99994     3.57842    0.02690     4.60525
      H    4    0.08995      0.00000     0.40817    0.00188     0.41005
      H    5    0.09484      0.00000     0.40352    0.00163     0.40516
 =======================================================================
   * Total *    0.00000      6.99904     8.87485    0.12611    16.00000

                                 Natural Population      
 --------------------------------------------------------
   Core                       6.99904 ( 99.9862% of   7)
   Valence                    8.87485 ( 98.6095% of   9)
   Natural Minimal Basis     15.87389 ( 99.2118% of  16)
   Natural Rydberg Basis      0.12611 (  0.7882% of  16)
 --------------------------------------------------------

    Atom  No          Natural Electron Configuration
 ----------------------------------------------------------------------------
      C    1      [core]2S( 0.58)2p( 1.37)4d( 0.01)
      S    2      [core]3S( 0.78)3p( 1.76)4S( 0.02)3d( 0.05)4p( 0.01)
      O    3      [core]2S( 0.92)2p( 2.66)4d( 0.02)
      H    4            1S( 0.41)
      H    5            1S( 0.40)


 NBO analysis skipped by request.
 Leave Link  607 at Tue Jan  3 09:34:50 2023, MaxMem=   536870912 cpu:               3.7 elap:               1.9
 (Enter /opt/software/gaussian/g16.c01/l701.exe)
 ... and contract with generalized density number  0.
 Compute integral first derivatives.
 Leave Link  701 at Tue Jan  3 09:34:50 2023, MaxMem=   536870912 cpu:               0.5 elap:               0.3
 (Enter /opt/software/gaussian/g16.c01/l702.exe)
 L702 exits ... SP integral derivatives will be done elsewhere.
 Leave Link  702 at Tue Jan  3 09:34:50 2023, MaxMem=   536870912 cpu:               0.1 elap:               0.0
 (Enter /opt/software/gaussian/g16.c01/l703.exe)
 Integral derivatives from FoFJK, PRISM(SPDF).
 Compute integral first derivatives, UseDBF=F ICtDFT=           0.
 Calling FoFJK, ICntrl=      2127 FMM=F ISym2X=0 I1Cent= 0 IOpClX= 1 NMat=1 NMatS=1 NMatT=0.
 FoFJK:  IHMeth= 1 ICntrl=    2127 DoSepK=F KAlg= 0 I1Cent=           0 FoldK=F
 IRaf=         0 NMat=       1 IRICut=       1 DoRegI=T DoRafI=F ISym2E= 0 IDoP0=0 IntGTp=1.
 FoFCou: FMM=F IPFlag=           0 FMFlag=      100000 FMFlg1=         800
         NFxFlg=           0 DoJE=F BraDBF=F KetDBF=F FulRan=T
         wScrn=  0.000000 ICntrl=      2127 IOpCl=  1 I1Cent=           0 NGrid=           0
         NMat0=    1 NMatS0=      1 NMatT0=    0 NMatD0=    1 NMtDS0=    0 NMtDT0=    0
 Symmetry not used in FoFCou.
 Leave Link  703 at Tue Jan  3 09:35:58 2023, MaxMem=   536870912 cpu:             134.6 elap:              67.3
 (Enter /opt/software/gaussian/g16.c01/l716.exe)
 Dipole        =-1.11890708D+00 4.68085325D-01 8.19375779D-01
 -------------------------------------------------------------------
 Center     Atomic                   Forces (Hartrees/Bohr)
 Number     Number              X              Y              Z
 -------------------------------------------------------------------
      1        6          -0.022363097   -0.001741371   -0.003050129
      2       16           0.035501869   -0.022127422   -0.038758704
      3        8          -0.025368352    0.024125307    0.042252346
      4        1           0.005216179   -0.006425115   -0.011228560
      5        1           0.007013402    0.006168601    0.010785047
 -------------------------------------------------------------------
 Cartesian Forces:  Max     0.042252346 RMS     0.021868789
 Z-matrix is all fixed cartesians, so copy forces.
 Force constants in Cartesian coordinates: 
                1             2             3             4             5 
      1  0.829676D+00
      2  0.511240D-02  0.243810D+00
      3  0.905768D-02  0.234956D+00  0.520669D+00
      4 -0.491409D+00 -0.959762D-02 -0.168745D-01  0.641682D+00
      5  0.287596D-02 -0.491361D-01 -0.278604D-01 -0.128355D+00  0.207963D+00
      6  0.496707D-02 -0.278624D-01 -0.819862D-01 -0.224638D+00  0.320470D+00
      7  0.492524D-03  0.133103D-01  0.233039D-01 -0.150309D+00  0.124519D+00
      8  0.104201D-03  0.602149D-02  0.308174D-02  0.137725D+00 -0.180658D+00
      9  0.181864D-03  0.308386D-02  0.966084D-02  0.241117D+00 -0.294338D+00
     10 -0.151987D+00  0.492920D-01  0.862296D-01  0.424157D-03  0.114682D-01
     11  0.447359D-01 -0.101753D+00 -0.113561D+00  0.975664D-04  0.365001D-02
     12  0.782568D-01 -0.113560D+00 -0.235538D+00  0.170666D-03  0.403592D-02
     13 -0.186773D+00 -0.581171D-01 -0.101717D+00 -0.388712D-03 -0.105080D-01
     14 -0.528284D-01 -0.989424D-01 -0.966159D-01  0.130067D-03  0.181809D-01
     15 -0.924634D-01 -0.966168D-01 -0.212806D+00  0.224637D-03 -0.230723D-02
                6             7             8             9            10 
      6  0.585965D+00
      7  0.217995D+00  0.149816D+00
      8 -0.294336D+00 -0.137829D+00  0.174946D+00
      9 -0.527847D+00 -0.241299D+00  0.291077D+00  0.518287D+00
     10  0.200660D-01  0.000000D+00  0.000000D+00  0.000000D+00  0.123189D+00
     11  0.403202D-02  0.000000D+00  0.453529D-02 -0.259031D-02 -0.513576D-01
     12  0.840740D-02  0.000000D+00 -0.259199D-02  0.148040D-02 -0.898457D-01
     13 -0.183902D-01  0.000000D+00  0.000000D+00  0.000000D+00  0.283742D-01
     14 -0.230345D-02  0.000000D+00 -0.484560D-02  0.276754D-02 -0.940299D-02
     15  0.154602D-01  0.000000D+00  0.276920D-02 -0.158162D-02 -0.164496D-01
               11            12            13            14            15 
     11  0.877574D-01
     12  0.120457D+00  0.229666D+00
     13  0.652373D-02  0.114185D-01  0.158787D+00
     14  0.581069D-02 -0.834082D-02  0.621018D-01  0.797964D-01
     15 -0.833779D-02 -0.401584D-02  0.108688D+00  0.104493D+00  0.202943D+00
 Leave Link  716 at Tue Jan  3 09:35:58 2023, MaxMem=   536870912 cpu:               0.1 elap:               0.1
 (Enter /opt/software/gaussian/g16.c01/l103.exe)

 GradGradGradGradGradGradGradGradGradGradGradGradGradGradGradGradGradGrad
 Berny optimization.
 Search for a local minimum.
 Step number   1 out of a maximum of    2
 All quantities printed in internal units (Hartrees-Bohrs-Radians)
 Second derivative matrix not updated -- first step.
 The second derivative matrix:
                          X1        Y1        Z1        X2        Y2
           X1           0.82968
           Y1           0.00511   0.24381
           Z1           0.00906   0.23496   0.52067
           X2          -0.49141  -0.00960  -0.01687   0.64168
           Y2           0.00288  -0.04914  -0.02786  -0.12836   0.20796
           Z2           0.00497  -0.02786  -0.08199  -0.22464   0.32047
           X3           0.00049   0.01331   0.02330  -0.15031   0.12452
           Y3           0.00010   0.00602   0.00308   0.13773  -0.18066
           Z3           0.00018   0.00308   0.00966   0.24112  -0.29434
           X4          -0.15199   0.04929   0.08623   0.00042   0.01147
           Y4           0.04474  -0.10175  -0.11356   0.00010   0.00365
           Z4           0.07826  -0.11356  -0.23554   0.00017   0.00404
           X5          -0.18677  -0.05812  -0.10172  -0.00039  -0.01051
           Y5          -0.05283  -0.09894  -0.09662   0.00013   0.01818
           Z5          -0.09246  -0.09662  -0.21281   0.00022  -0.00231
                          Z2        X3        Y3        Z3        X4
           Z2           0.58597
           X3           0.21800   0.14982
           Y3          -0.29434  -0.13783   0.17495
           Z3          -0.52785  -0.24130   0.29108   0.51829
           X4           0.02007   0.00000   0.00000  -0.00000   0.12319
           Y4           0.00403   0.00000   0.00454  -0.00259  -0.05136
           Z4           0.00841  -0.00000  -0.00259   0.00148  -0.08985
           X5          -0.01839  -0.00000  -0.00000   0.00000   0.02837
           Y5          -0.00230  -0.00000  -0.00485   0.00277  -0.00940
           Z5           0.01546   0.00000   0.00277  -0.00158  -0.01645
                          Y4        Z4        X5        Y5        Z5
           Y4           0.08776
           Z4           0.12046   0.22967
           X5           0.00652   0.01142   0.15879
           Y5           0.00581  -0.00834   0.06210   0.07980
           Z5          -0.00834  -0.00402   0.10869   0.10449   0.20294
 ITU=  0
     Eigenvalues ---    0.02243   0.03701   0.09811   0.12281   0.16471
     Eigenvalues ---    0.34496   0.86201   1.16715   1.68793
 Angle between quadratic step and forces=  60.25 degrees.
 Linear search not attempted -- first point.
 B after Tr=    -0.002294    0.009851    0.017231
         Rot=    0.999999    0.000050   -0.001405    0.000783 Ang=   0.18 deg.
 Variable       Old X    -DE/DX   Delta X   Delta X   Delta X     New X
                                 (Linear)    (Quad)   (Total)
    X1        1.84631  -0.02236   0.00000   0.01553   0.01256   1.85886
    Y1       -0.03741  -0.00174   0.00000  -0.01241  -0.00550  -0.04291
    Z1       -0.19054  -0.00305   0.00000  -0.02174  -0.00973  -0.20027
    X2        4.89062   0.03550   0.00000   0.03666   0.03360   4.92422
    Y2       -0.06532  -0.02213   0.00000   0.00510   0.00721  -0.05811
    Z2       -0.23894  -0.03876   0.00000   0.00861   0.01200  -0.22694
    X3        5.99277  -0.02537   0.00000  -0.08499  -0.09632   5.89646
    Y3       -1.34985   0.02413   0.00000   0.01587   0.01622  -1.33363
    Z3       -2.48781   0.04225   0.00000   0.02812   0.02889  -2.45892
    X4        0.97901   0.00522   0.00000   0.00788   0.01077   0.98979
    Y4        0.89117  -0.00643   0.00000  -0.03654  -0.02811   0.86307
    Z4        1.43411  -0.01123   0.00000  -0.06308  -0.04871   1.38540
    X5        0.70071   0.00701   0.00000   0.04779   0.03938   0.74010
    Y5       -0.88856   0.00617   0.00000   0.00165   0.01017  -0.87839
    Z5       -1.68006   0.01079   0.00000   0.00233   0.01755  -1.66250
         Item               Value     Threshold  Converged?
 Maximum Force            0.042252     0.000450     NO 
 RMS     Force            0.021869     0.000300     NO 
 Maximum Displacement     0.096316     0.001800     NO 
 RMS     Displacement     0.033886     0.001200     NO 
 Predicted change in Energy=-2.838547D-03
 GradGradGradGradGradGradGradGradGradGradGradGradGradGradGradGradGradGrad

 Leave Link  103 at Tue Jan  3 09:35:58 2023, MaxMem=   536870912 cpu:               0.0 elap:               0.0
 (Enter /opt/software/gaussian/g16.c01/l9999.exe)
 Unable to Open any file for archive entry.
 1\1\GINC-GRA607\Force\UHF\Gen\C1H2O1S1\BHAVUK\03-Jan-2023\0\\#p uhf/ch
 kbasis force guess=read geom=check scf=(maxcycle=900,verytightlineq,xq
 c) integral=grid=ultrafine symmetry=None density=current pop=(cm5,hlyg
 at,mbs,npa) output=wfx\\0005_q000_m01_k00_opt_uwb97xd_def2svpd/0005_q0
 00_m01_k00_force_uhf_def2qzvpd stable-force\\0,1\C,0.9770245042,-0.019
 7961728,-0.1008273286\S,2.5880021429,-0.0345660623,-0.126439068\O,3.17
 12397907,-0.7143116203,-1.3164938758\H,0.5180717789,0.4715880124,0.758
 8975415\H,0.3708017881,-0.4702041579,-0.8890472689\\Version=ES64L-G16R
 evC.01\HF=-511.4418737\S2=0.436136\S2-1=0.\S2A=0.044568\RMSD=1.210e-09
 \RMSF=2.187e-02\Dipole=-1.1189071,0.4680853,0.8193758\Quadrupole=-4.57
 22216,2.9780156,1.594206,3.0171528,5.4216898,-1.0576804\PG=Unknown\\@
 The archive entry for this job was punched.

 Writing a WFNX file to "0005_q000_m01_k00_force_uhf_def2qzvpd.wfx"


 GARLIC THEN HAVE POWER TO SAVE FROM DEATH
 BEAR WITH IT THOUGH IT MAKETH UNSAVORY BREATH,
 AND SCORN NOT GARLIC LIKE SOME THAT THINK
 IT ONLY MAKETH MEN WINK AND DRINK AND STINK.
   --  SIR JOHN HARRINGTON,
       "THE ENGLISHMAN'S DOCTOR", 1609
 Job cpu time:       0 days  0 hours  2 minutes 55.5 seconds.
 Elapsed time:       0 days  0 hours  1 minutes 27.6 seconds.
 File lengths (MBytes):  RWF=     75 Int=      0 D2E=      0 Chk=     11 Scr=      1
 Normal termination of Gaussian 16 at Tue Jan  3 09:35:58 2023.
