 Entering Gaussian System, Link 0=g16
 Input=0005_q000_m01_k00_force_uhf_def2tzvpd.com
 Output=0005_q000_m01_k00_force_uhf_def2tzvpd.log
 Initial command:
 /opt/software/gaussian/g16.c01/l1.exe "/localscratch/bhavuk.2151421.0/Gau-19927.inp" -scrdir="/localscratch/bhavuk.2151421.0/"
 Entering Link 1 = /opt/software/gaussian/g16.c01/l1.exe PID=     19928.
  
 Copyright (c) 1988-2019, Gaussian, Inc.  All Rights Reserved.
  
 This is part of the Gaussian(R) 16 program.  It is based on
 the Gaussian(R) 09 system (copyright 2009, Gaussian, Inc.),
 the Gaussian(R) 03 system (copyright 2003, Gaussian, Inc.),
 the Gaussian(R) 98 system (copyright 1998, Gaussian, Inc.),
 the Gaussian(R) 94 system (copyright 1995, Gaussian, Inc.),
 the Gaussian 92(TM) system (copyright 1992, Gaussian, Inc.),
 the Gaussian 90(TM) system (copyright 1990, Gaussian, Inc.),
 the Gaussian 88(TM) system (copyright 1988, Gaussian, Inc.),
 the Gaussian 86(TM) system (copyright 1986, Carnegie Mellon
 University), and the Gaussian 82(TM) system (copyright 1983,
 Carnegie Mellon University). Gaussian is a federally registered
 trademark of Gaussian, Inc.
  
 This software contains proprietary and confidential information,
 including trade secrets, belonging to Gaussian, Inc.
  
 This software is provided under written license and may be
 used, copied, transmitted, or stored only in accord with that
 written license.
  
 The following legend is applicable only to US Government
 contracts under FAR:
  
                    RESTRICTED RIGHTS LEGEND
  
 Use, reproduction and disclosure by the US Government is
 subject to restrictions as set forth in subparagraphs (a)
 and (c) of the Commercial Computer Software - Restricted
 Rights clause in FAR 52.227-19.
  
 Gaussian, Inc.
 340 Quinnipiac St., Bldg. 40, Wallingford CT 06492
  
  
 ---------------------------------------------------------------
 Warning -- This program may not be used in any manner that
 competes with the business of Gaussian, Inc. or will provide
 assistance to any competitor of Gaussian, Inc.  The licensee
 of this program is prohibited from giving any competitor of
 Gaussian, Inc. access to this program.  By using this program,
 the user acknowledges that Gaussian, Inc. is engaged in the
 business of creating and licensing software in the field of
 computational chemistry and represents and warrants to the
 licensee that it is not a competitor of Gaussian, Inc. and that
 it will not use this program in any manner prohibited above.
 ---------------------------------------------------------------
  

 Cite this work as:
 Gaussian 16, Revision C.01,
 M. J. Frisch, G. W. Trucks, H. B. Schlegel, G. E. Scuseria, 
 M. A. Robb, J. R. Cheeseman, G. Scalmani, V. Barone, 
 G. A. Petersson, H. Nakatsuji, X. Li, M. Caricato, A. V. Marenich, 
 J. Bloino, B. G. Janesko, R. Gomperts, B. Mennucci, H. P. Hratchian, 
 J. V. Ortiz, A. F. Izmaylov, J. L. Sonnenberg, D. Williams-Young, 
 F. Ding, F. Lipparini, F. Egidi, J. Goings, B. Peng, A. Petrone, 
 T. Henderson, D. Ranasinghe, V. G. Zakrzewski, J. Gao, N. Rega, 
 G. Zheng, W. Liang, M. Hada, M. Ehara, K. Toyota, R. Fukuda, 
 J. Hasegawa, M. Ishida, T. Nakajima, Y. Honda, O. Kitao, H. Nakai, 
 T. Vreven, K. Throssell, J. A. Montgomery, Jr., J. E. Peralta, 
 F. Ogliaro, M. J. Bearpark, J. J. Heyd, E. N. Brothers, K. N. Kudin, 
 V. N. Staroverov, T. A. Keith, R. Kobayashi, J. Normand, 
 K. Raghavachari, A. P. Rendell, J. C. Burant, S. S. Iyengar, 
 J. Tomasi, M. Cossi, J. M. Millam, M. Klene, C. Adamo, R. Cammi, 
 J. W. Ochterski, R. L. Martin, K. Morokuma, O. Farkas, 
 J. B. Foresman, and D. J. Fox, Gaussian, Inc., Wallingford CT, 2019.
 
 ******************************************
 Gaussian 16:  ES64L-G16RevC.01  3-Jul-2019
                 3-Jan-2023 
 ******************************************
 %chk=0005_q000_m01_k00_force_uhf_def2tzvpd.chk
 %nprocshared=2
 Will use up to    2 processors via shared memory.
 %mem=4GB
 ----------------------------------------------------------------------
 #p uhf/gen stable=opt scf=(maxcycle=900,verytightlineq,xqc) integral=g
 rid=ultrafine symmetry=None density=current iop(99/18=-1) output=wfn
 ----------------------------------------------------------------------
 1/38=1,172=1/1;
 2/12=2,15=3,17=6,18=5,40=1/2;
 3/5=7,11=2,25=1,30=1,75=-5,116=2/1,2,3;
 4//1;
 5/5=2,7=900,8=3,13=1,17=3,38=5/2,8;
 6/7=2,8=2,9=2,10=2,22=-1,28=1/1;
 8/6=1,10=90,11=11/1;
 9/8=-3,42=1,46=1/14;
 5/5=2,7=900,8=3,17=43,38=5/8(-2);
 6/7=2,8=2,9=2,10=2,22=-1,28=1/1;
 99/5=1,6=100,9=1,18=-1/99;
 Leave Link    1 at Tue Jan  3 09:07:35 2023, MaxMem=   536870912 cpu:               0.1 elap:               0.1
 (Enter /opt/software/gaussian/g16.c01/l101.exe)
 ----------------------------------------------------------------------
 0005_q000_m01_k00_opt_uwb97xd_def2svpd/0005_q000_m01_k00_force_uhf_def
 2tzvpd stable-force
 ----------------------------------------------------------------------
 Symbolic Z-matrix:
 Charge =  0 Multiplicity = 1
 C                     0.97702  -0.0198   -0.10083 
 S                     2.588    -0.03457  -0.12644 
 O                     3.17124  -0.71431  -1.31649 
 H                     0.51807   0.47159   0.7589 
 H                     0.3708   -0.4702   -0.88905 
 
 ITRead=  0  0  0  0  0
 MicOpt= -1 -1 -1 -1 -1
 NAtoms=      5 NQM=        5 NQMF=       0 NMMI=      0 NMMIF=      0
                NMic=       0 NMicF=      0.
                    Isotopes and Nuclear Properties:
 (Nuclear quadrupole moments (NQMom) in fm**2, nuclear magnetic moments (NMagM)
  in nuclear magnetons)

  Atom         1           2           3           4           5
 IAtWgt=          12          32          16           1           1
 AtmWgt=  12.0000000  31.9720718  15.9949146   1.0078250   1.0078250
 NucSpn=           0           0           0           1           1
 AtZEff=  -0.0000000  -0.0000000  -0.0000000  -0.0000000  -0.0000000
 NQMom=    0.0000000   0.0000000   0.0000000   0.0000000   0.0000000
 NMagM=    0.0000000   0.0000000   0.0000000   2.7928460   2.7928460
 AtZNuc=   6.0000000  16.0000000   8.0000000   1.0000000   1.0000000
 Leave Link  101 at Tue Jan  3 09:07:35 2023, MaxMem=   536870912 cpu:               0.5 elap:               0.2
 (Enter /opt/software/gaussian/g16.c01/l202.exe)
                          Input orientation:                          
 ---------------------------------------------------------------------
 Center     Atomic      Atomic             Coordinates (Angstroms)
 Number     Number       Type             X           Y           Z
 ---------------------------------------------------------------------
      1          6           0        0.977025   -0.019796   -0.100827
      2         16           0        2.588002   -0.034566   -0.126439
      3          8           0        3.171240   -0.714312   -1.316494
      4          1           0        0.518072    0.471588    0.758898
      5          1           0        0.370802   -0.470204   -0.889047
 ---------------------------------------------------------------------
                    Distance matrix (angstroms):
                    1          2          3          4          5
     1  C    0.000000
     2  S    1.611249   0.000000
     3  O    2.602840   1.489446   0.000000
     4  H    1.091432   2.307515   3.571121   0.000000
     5  H    1.091634   2.384812   2.843370   1.903781   0.000000
 Symmetry turned off by external request.
 Stoichiometry    CH2OS
 Rotational constants (GHZ):          39.0370487           9.3459813           7.5406507
 Leave Link  202 at Tue Jan  3 09:07:35 2023, MaxMem=   536870912 cpu:               0.0 elap:               0.0
 (Enter /opt/software/gaussian/g16.c01/l301.exe)
 General basis read from cards:  (5D, 7F)
 Centers:       4      5
 S 3 1.00
     Exponent=  3.4061341000D+01 Coefficients=  6.0251978000D-03
     Exponent=  5.1235746000D+00 Coefficients=  4.5021094000D-02
     Exponent=  1.1646626000D+00 Coefficients=  2.0189726000D-01
 S 1 1.00
     Exponent=  3.2723041000D-01 Coefficients=  1.0000000000D+00
 S 1 1.00
     Exponent=  1.0307241000D-01 Coefficients=  1.0000000000D+00
 P 1 1.00
     Exponent=  8.0000000000D-01 Coefficients=  1.0000000000D+00
 P 1 1.00
     Exponent=  9.5774129632D-02 Coefficients=  1.0000000000D+00
 ****
 Centers:       1
 S 6 1.00
     Exponent=  1.3575349682D+04 Coefficients=  2.2245814352D-04
     Exponent=  2.0352333680D+03 Coefficients=  1.7232738252D-03
     Exponent=  4.6322562359D+02 Coefficients=  8.9255715314D-03
     Exponent=  1.3120019598D+02 Coefficients=  3.5727984502D-02
     Exponent=  4.2853015891D+01 Coefficients=  1.1076259931D-01
     Exponent=  1.5584185766D+01 Coefficients=  2.4295627626D-01
 S 2 1.00
     Exponent=  6.2067138508D+00 Coefficients=  4.1440263448D-01
     Exponent=  2.5764896527D+00 Coefficients=  2.3744968655D-01
 S 1 1.00
     Exponent=  5.7696339419D-01 Coefficients=  1.0000000000D+00
 S 1 1.00
     Exponent=  2.2972831358D-01 Coefficients=  1.0000000000D+00
 S 1 1.00
     Exponent=  9.5164440028D-02 Coefficients=  1.0000000000D+00
 S 1 1.00
     Exponent=  4.8475401370D-02 Coefficients=  1.0000000000D+00
 P 4 1.00
     Exponent=  3.4697232244D+01 Coefficients=  5.3333657805D-03
     Exponent=  7.9582622826D+00 Coefficients=  3.5864109092D-02
     Exponent=  2.3780826883D+00 Coefficients=  1.4215873329D-01
     Exponent=  8.1433208183D-01 Coefficients=  3.4270471845D-01
 P 1 1.00
     Exponent=  2.8887547253D-01 Coefficients=  4.6445822433D-01
 P 1 1.00
     Exponent=  1.0056823671D-01 Coefficients=  2.4955789874D-01
 D 1 1.00
     Exponent=  1.0970000000D+00 Coefficients=  1.0000000000D+00
 D 1 1.00
     Exponent=  3.1800000000D-01 Coefficients=  1.0000000000D+00
 D 1 1.00
     Exponent=  9.0985336424D-02 Coefficients=  1.0000000000D+00
 F 1 1.00
     Exponent=  7.6100000000D-01 Coefficients=  1.0000000000D+00
 ****
 Centers:       3
 S 6 1.00
     Exponent=  2.7032382631D+04 Coefficients=  2.1726302465D-04
     Exponent=  4.0523871392D+03 Coefficients=  1.6838662199D-03
     Exponent=  9.2232722710D+02 Coefficients=  8.7395616265D-03
     Exponent=  2.6124070989D+02 Coefficients=  3.5239968808D-02
     Exponent=  8.5354641351D+01 Coefficients=  1.1153519115D-01
     Exponent=  3.1035035245D+01 Coefficients=  2.5588953961D-01
 S 2 1.00
     Exponent=  1.2260860728D+01 Coefficients=  3.9768730901D-01
     Exponent=  4.9987076005D+00 Coefficients=  2.4627849430D-01
 S 1 1.00
     Exponent=  1.1703108158D+00 Coefficients=  1.0000000000D+00
 S 1 1.00
     Exponent=  4.6474740994D-01 Coefficients=  1.0000000000D+00
 S 1 1.00
     Exponent=  1.8504536357D-01 Coefficients=  1.0000000000D+00
 S 1 1.00
     Exponent=  7.0288026270D-02 Coefficients=  1.0000000000D+00
 P 4 1.00
     Exponent=  6.3274954801D+01 Coefficients=  6.0685103418D-03
     Exponent=  1.4627049379D+01 Coefficients=  4.1912575824D-02
     Exponent=  4.4501223456D+00 Coefficients=  1.6153841088D-01
     Exponent=  1.5275799647D+00 Coefficients=  3.5706951311D-01
 P 1 1.00
     Exponent=  5.2935117943D-01 Coefficients=  4.4794207502D-01
 P 1 1.00
     Exponent=  1.7478421270D-01 Coefficients=  2.4446069663D-01
 P 1 1.00
     Exponent=  5.1112745706D-02 Coefficients=  1.0000000000D+00
 D 1 1.00
     Exponent=  2.3140000000D+00 Coefficients=  1.0000000000D+00
 D 1 1.00
     Exponent=  6.4500000000D-01 Coefficients=  1.0000000000D+00
 D 1 1.00
     Exponent=  1.4696477366D-01 Coefficients=  1.0000000000D+00
 F 1 1.00
     Exponent=  1.4280000000D+00 Coefficients=  1.0000000000D+00
 ****
 Centers:       2
 S 7 1.00
     Exponent=  6.0700928104D+04 Coefficients=  5.4695944225D-04
     Exponent=  9.1026106854D+03 Coefficients=  4.2297224557D-03
     Exponent=  2.0714166009D+03 Coefficients=  2.1747824159D-02
     Exponent=  5.8602476821D+02 Coefficients=  8.5100053589D-02
     Exponent=  1.9055395021D+02 Coefficients=  2.4799128459D-01
     Exponent=  6.7630384260D+01 Coefficients=  4.6703640406D-01
     Exponent=  2.5127306905D+01 Coefficients=  3.6434587550D-01
 S 3 1.00
     Exponent=  1.1257463010D+02 Coefficients=  2.1670040240D-02
     Exponent=  3.4795554217D+01 Coefficients=  9.3602301760D-02
     Exponent=  6.5115556215D+00 Coefficients= -2.6068001422D-01
 S 2 1.00
     Exponent=  3.2399032261D+00 Coefficients=  1.2842089435D+00
     Exponent=  1.5477160881D+00 Coefficients=  6.6036416584D-01
 S 1 1.00
     Exponent=  4.0541030112D-01 Coefficients=  1.0000000000D+00
 S 1 1.00
     Exponent=  1.4550651059D-01 Coefficients=  1.0000000000D+00
 S 1 1.00
     Exponent=  5.0178839540D-02 Coefficients=  1.0000000000D+00
 P 5 1.00
     Exponent=  5.6436716027D+02 Coefficients=  2.4796796317D-03
     Exponent=  1.3342624379D+02 Coefficients=  1.9677930250D-02
     Exponent=  4.2468271189D+01 Coefficients=  8.9980008258D-02
     Exponent=  1.5616527580D+01 Coefficients=  2.5705880575D-01
     Exponent=  6.1093988469D+00 Coefficients=  4.3515167292D-01
 P 1 1.00
     Exponent=  2.4404160198D+00 Coefficients=  3.4883240595D-01
 P 1 1.00
     Exponent=  8.3882201296D-01 Coefficients=  1.0000000000D+00
 P 1 1.00
     Exponent=  3.1288746900D-01 Coefficients=  1.0000000000D+00
 P 1 1.00
     Exponent=  1.0770109004D-01 Coefficients=  1.0000000000D+00
 P 1 1.00
     Exponent=  3.0359833649D-02 Coefficients=  1.0000000000D+00
 D 2 1.00
     Exponent=  3.7560000000D+00 Coefficients=  2.0000000000D-01
     Exponent=  8.1200000000D-01 Coefficients=  1.0000000000D+00
 D 1 1.00
     Exponent=  2.7300000000D-01 Coefficients=  1.0000000000D+00
 D 1 1.00
     Exponent=  8.1547024970D-02 Coefficients=  1.0000000000D+00
 F 1 1.00
     Exponent=  5.5700000000D-01 Coefficients=  1.0000000000D+00
 ****
 Ernie: Thresh=  0.10000D-02 Tol=  0.10000D-05 Strict=F.
   141 basis functions,   220 primitive gaussians,   159 cartesian basis functions
    16 alpha electrons       16 beta electrons
       nuclear repulsion energy       102.7536228800 Hartrees.
 IExCor=    0 DFT=F Ex=HF Corr=None ExCW=0 ScaHFX=  1.000000
 ScaDFX=  1.000000  1.000000  1.000000  1.000000 ScalE2=  1.000000  1.000000
 IRadAn=      5 IRanWt=     -1 IRanGd=            0 ICorTp=0 IEmpDi=  4
 NAtoms=    5 NActive=    5 NUniq=    5 SFac= 1.00D+00 NAtFMM=   60 NAOKFM=F Big=F
 Integral buffers will be    131072 words long.
 Raffenetti 2 integral format.
 Two-electron integral symmetry is turned off.
 Leave Link  301 at Tue Jan  3 09:07:35 2023, MaxMem=   536870912 cpu:               0.2 elap:               0.1
 (Enter /opt/software/gaussian/g16.c01/l302.exe)
 NPDir=0 NMtPBC=     1 NCelOv=     1 NCel=       1 NClECP=     1 NCelD=      1
         NCelK=      1 NCelE2=     1 NClLst=     1 CellRange=     0.0.
 One-electron integrals computed using PRISM.
 NBasis=   141 RedAO= T EigKep=  5.73D-05  NBF=   141
 NBsUse=   141 1.00D-06 EigRej= -1.00D+00 NBFU=   141
 Leave Link  302 at Tue Jan  3 09:07:35 2023, MaxMem=   536870912 cpu:               0.3 elap:               0.1
 (Enter /opt/software/gaussian/g16.c01/l303.exe)
 DipDrv:  MaxL=1.
 Leave Link  303 at Tue Jan  3 09:07:35 2023, MaxMem=   536870912 cpu:               0.1 elap:               0.0
 (Enter /opt/software/gaussian/g16.c01/l401.exe)
 ExpMin= 3.04D-02 ExpMax= 6.07D+04 ExpMxC= 2.07D+03 IAcc=3 IRadAn=         5 AccDes= 0.00D+00
 Harris functional with IExCor=  205 and IRadAn=       5 diagonalized for initial guess.
 HarFok:  IExCor=  205 AccDes= 0.00D+00 IRadAn=         5 IDoV= 1 UseB2=F ITyADJ=14
 ICtDFT=  3500011 ScaDFX=  1.000000  1.000000  1.000000  1.000000
 FoFCou: FMM=F IPFlag=           0 FMFlag=      100000 FMFlg1=           0
         NFxFlg=           0 DoJE=T BraDBF=F KetDBF=T FulRan=T
         wScrn=  0.000000 ICntrl=       500 IOpCl=  0 I1Cent=   200000004 NGrid=           0
         NMat0=    1 NMatS0=      1 NMatT0=    0 NMatD0=    1 NMtDS0=    0 NMtDT0=    0
 Symmetry not used in FoFCou.
 Harris En= -511.197450961721    
 JPrj=0 DoOrth=F DoCkMO=F.
 Initial guess <Sx>= 0.0000 <Sy>= 0.0000 <Sz>= 0.0000 <S**2>=-0.0000 S=-0.0000
 Leave Link  401 at Tue Jan  3 09:07:36 2023, MaxMem=   536870912 cpu:               0.8 elap:               0.4
 (Enter /opt/software/gaussian/g16.c01/l502.exe)
 Keep R1 and R2 ints in memory in canonical form, NReq=102278563.
 FoFCou: FMM=F IPFlag=           0 FMFlag=           0 FMFlg1=           0
         NFxFlg=           0 DoJE=F BraDBF=F KetDBF=F FulRan=T
         wScrn=  0.000000 ICntrl=       600 IOpCl=  0 I1Cent=           0 NGrid=           0
         NMat0=    1 NMatS0=  10011 NMatT0=    0 NMatD0=    1 NMtDS0=    0 NMtDT0=    0
 Symmetry not used in FoFCou.
 Two-electron integral symmetry not used.
 UHF open shell SCF:
 Using DIIS extrapolation, IDIIS=  1040.
 NGot=   536870912 LenX=   436588043 LenY=   436562321
 Requested convergence on RMS density matrix=1.00D-08 within 128 cycles.
 Requested convergence on MAX density matrix=1.00D-06.
 Requested convergence on             energy=1.00D-06.
 No special actions if energy rises.

 Cycle   1  Pass 1  IDiag  1:
 E= -511.199159264258    
 DIIS: error= 7.84D-02 at cycle   1 NSaved=   1.
 NSaved= 1 IEnMin= 1 EnMin= -511.199159264258     IErMin= 1 ErrMin= 7.84D-02
 ErrMax= 7.84D-02  0.00D+00 EMaxC= 1.00D-01 BMatC= 1.94D+00 BMatP= 1.94D+00
 IDIUse=3 WtCom= 2.16D-01 WtEn= 7.84D-01
 Coeff-Com:  0.100D+01
 Coeff-En:   0.100D+01
 Coeff:      0.100D+01
 Gap=     0.480 Goal=   None    Shift=    0.000
 Gap=     0.480 Goal=   None    Shift=    0.000
 GapD=    0.480 DampG=2.000 DampE=0.500 DampFc=1.0000 IDamp=-1.
 RMSDP=3.39D-03 MaxDP=8.07D-02              OVMax= 1.97D-01

 Cycle   2  Pass 1  IDiag  1:
 E= -511.327610109999     Delta-E=       -0.128450845741 Rises=F Damp=F
 DIIS: error= 2.44D-02 at cycle   2 NSaved=   2.
 NSaved= 2 IEnMin= 2 EnMin= -511.327610109999     IErMin= 2 ErrMin= 2.44D-02
 ErrMax= 2.44D-02  0.00D+00 EMaxC= 1.00D-01 BMatC= 4.85D-01 BMatP= 1.94D+00
 IDIUse=3 WtCom= 7.56D-01 WtEn= 2.44D-01
 Coeff-Com:  0.293D+00 0.707D+00
 Coeff-En:   0.184D+00 0.816D+00
 Coeff:      0.267D+00 0.733D+00
 Gap=     0.468 Goal=   None    Shift=    0.000
 Gap=     0.468 Goal=   None    Shift=    0.000
 RMSDP=1.77D-03 MaxDP=8.25D-02 DE=-1.28D-01 OVMax= 1.05D-01

 Cycle   3  Pass 1  IDiag  1:
 E= -511.410068441270     Delta-E=       -0.082458331271 Rises=F Damp=F
 DIIS: error= 7.98D-03 at cycle   3 NSaved=   3.
 NSaved= 3 IEnMin= 3 EnMin= -511.410068441270     IErMin= 3 ErrMin= 7.98D-03
 ErrMax= 7.98D-03  0.00D+00 EMaxC= 1.00D-01 BMatC= 4.64D-02 BMatP= 4.85D-01
 IDIUse=3 WtCom= 9.20D-01 WtEn= 7.98D-02
 Coeff-Com: -0.164D-01 0.212D+00 0.804D+00
 Coeff-En:   0.000D+00 0.000D+00 0.100D+01
 Coeff:     -0.151D-01 0.195D+00 0.820D+00
 Gap=     0.425 Goal=   None    Shift=    0.000
 Gap=     0.425 Goal=   None    Shift=    0.000
 RMSDP=4.75D-04 MaxDP=1.47D-02 DE=-8.25D-02 OVMax= 2.84D-02

 Cycle   4  Pass 1  IDiag  1:
 E= -511.418173366320     Delta-E=       -0.008104925050 Rises=F Damp=F
 DIIS: error= 2.16D-03 at cycle   4 NSaved=   4.
 NSaved= 4 IEnMin= 4 EnMin= -511.418173366320     IErMin= 4 ErrMin= 2.16D-03
 ErrMax= 2.16D-03  0.00D+00 EMaxC= 1.00D-01 BMatC= 2.61D-03 BMatP= 4.64D-02
 IDIUse=3 WtCom= 9.78D-01 WtEn= 2.16D-02
 Coeff-Com: -0.126D-01 0.400D-01 0.281D+00 0.692D+00
 Coeff-En:   0.000D+00 0.000D+00 0.000D+00 0.100D+01
 Coeff:     -0.123D-01 0.392D-01 0.274D+00 0.699D+00
 Gap=     0.424 Goal=   None    Shift=    0.000
 Gap=     0.424 Goal=   None    Shift=    0.000
 RMSDP=1.35D-04 MaxDP=3.05D-03 DE=-8.10D-03 OVMax= 1.62D-02

 Cycle   5  Pass 1  IDiag  1:
 E= -511.418855969680     Delta-E=       -0.000682603360 Rises=F Damp=F
 DIIS: error= 5.96D-04 at cycle   5 NSaved=   5.
 NSaved= 5 IEnMin= 5 EnMin= -511.418855969680     IErMin= 5 ErrMin= 5.96D-04
 ErrMax= 5.96D-04  0.00D+00 EMaxC= 1.00D-01 BMatC= 3.29D-04 BMatP= 2.61D-03
 IDIUse=3 WtCom= 9.94D-01 WtEn= 5.96D-03
 Coeff-Com:  0.306D-02-0.347D-01-0.120D+00 0.122D+00 0.103D+01
 Coeff-En:   0.000D+00 0.000D+00 0.000D+00 0.000D+00 0.100D+01
 Coeff:      0.304D-02-0.345D-01-0.119D+00 0.121D+00 0.103D+01
 Gap=     0.424 Goal=   None    Shift=    0.000
 Gap=     0.424 Goal=   None    Shift=    0.000
 RMSDP=8.28D-05 MaxDP=2.64D-03 DE=-6.83D-04 OVMax= 4.93D-03

 Cycle   6  Pass 1  IDiag  1:
 E= -511.419007772404     Delta-E=       -0.000151802724 Rises=F Damp=F
 DIIS: error= 2.53D-04 at cycle   6 NSaved=   6.
 NSaved= 6 IEnMin= 6 EnMin= -511.419007772404     IErMin= 6 ErrMin= 2.53D-04
 ErrMax= 2.53D-04  0.00D+00 EMaxC= 1.00D-01 BMatC= 3.16D-05 BMatP= 3.29D-04
 IDIUse=3 WtCom= 9.97D-01 WtEn= 2.53D-03
 Coeff-Com:  0.949D-03-0.370D-02-0.183D-01-0.380D-01-0.217D+00 0.128D+01
 Coeff-En:   0.000D+00 0.000D+00 0.000D+00 0.000D+00 0.000D+00 0.100D+01
 Coeff:      0.947D-03-0.369D-02-0.183D-01-0.379D-01-0.216D+00 0.127D+01
 Gap=     0.425 Goal=   None    Shift=    0.000
 Gap=     0.425 Goal=   None    Shift=    0.000
 RMSDP=4.63D-05 MaxDP=9.29D-04 DE=-1.52D-04 OVMax= 4.75D-03

 Cycle   7  Pass 1  IDiag  1:
 E= -511.419043419796     Delta-E=       -0.000035647392 Rises=F Damp=F
 DIIS: error= 1.23D-04 at cycle   7 NSaved=   7.
 NSaved= 7 IEnMin= 7 EnMin= -511.419043419796     IErMin= 7 ErrMin= 1.23D-04
 ErrMax= 1.23D-04  0.00D+00 EMaxC= 1.00D-01 BMatC= 7.91D-06 BMatP= 3.16D-05
 IDIUse=3 WtCom= 9.99D-01 WtEn= 1.23D-03
 Coeff-Com: -0.516D-03 0.574D-02 0.245D-01 0.301D-02-0.217D+00-0.928D-01
 Coeff-Com:  0.128D+01
 Coeff-En:   0.000D+00 0.000D+00 0.000D+00 0.000D+00 0.000D+00 0.000D+00
 Coeff-En:   0.100D+01
 Coeff:     -0.516D-03 0.573D-02 0.245D-01 0.300D-02-0.217D+00-0.927D-01
 Coeff:      0.128D+01
 Gap=     0.425 Goal=   None    Shift=    0.000
 Gap=     0.425 Goal=   None    Shift=    0.000
 RMSDP=2.71D-05 MaxDP=5.53D-04 DE=-3.56D-05 OVMax= 2.69D-03

 Cycle   8  Pass 1  IDiag  1:
 E= -511.419052656299     Delta-E=       -0.000009236503 Rises=F Damp=F
 DIIS: error= 4.88D-05 at cycle   8 NSaved=   8.
 NSaved= 8 IEnMin= 8 EnMin= -511.419052656299     IErMin= 8 ErrMin= 4.88D-05
 ErrMax= 4.88D-05  0.00D+00 EMaxC= 1.00D-01 BMatC= 1.13D-06 BMatP= 7.91D-06
 IDIUse=1 WtCom= 1.00D+00 WtEn= 0.00D+00
 Coeff-Com: -0.231D-03 0.979D-04 0.242D-02 0.155D-01 0.464D-01-0.181D+00
 Coeff-Com: -0.354D+00 0.147D+01
 Coeff:     -0.231D-03 0.979D-04 0.242D-02 0.155D-01 0.464D-01-0.181D+00
 Coeff:     -0.354D+00 0.147D+01
 Gap=     0.425 Goal=   None    Shift=    0.000
 Gap=     0.425 Goal=   None    Shift=    0.000
 RMSDP=1.33D-05 MaxDP=2.54D-04 DE=-9.24D-06 OVMax= 1.33D-03

 Cycle   9  Pass 1  IDiag  1:
 E= -511.419054201453     Delta-E=       -0.000001545154 Rises=F Damp=F
 DIIS: error= 9.46D-06 at cycle   9 NSaved=   9.
 NSaved= 9 IEnMin= 9 EnMin= -511.419054201453     IErMin= 9 ErrMin= 9.46D-06
 ErrMax= 9.46D-06  0.00D+00 EMaxC= 1.00D-01 BMatC= 5.02D-08 BMatP= 1.13D-06
 IDIUse=1 WtCom= 1.00D+00 WtEn= 0.00D+00
 Coeff-Com:  0.971D-04-0.465D-03-0.271D-02-0.346D-02 0.642D-02 0.506D-01
 Coeff-Com: -0.195D-01-0.332D+00 0.130D+01
 Coeff:      0.971D-04-0.465D-03-0.271D-02-0.346D-02 0.642D-02 0.506D-01
 Coeff:     -0.195D-01-0.332D+00 0.130D+01
 Gap=     0.425 Goal=   None    Shift=    0.000
 Gap=     0.425 Goal=   None    Shift=    0.000
 RMSDP=1.86D-06 MaxDP=4.41D-05 DE=-1.55D-06 OVMax= 1.73D-04

 Cycle  10  Pass 1  IDiag  1:
 E= -511.419054254088     Delta-E=       -0.000000052634 Rises=F Damp=F
 DIIS: error= 2.63D-06 at cycle  10 NSaved=  10.
 NSaved=10 IEnMin=10 EnMin= -511.419054254088     IErMin=10 ErrMin= 2.63D-06
 ErrMax= 2.63D-06  0.00D+00 EMaxC= 1.00D-01 BMatC= 3.74D-09 BMatP= 5.02D-08
 IDIUse=1 WtCom= 1.00D+00 WtEn= 0.00D+00
 Coeff-Com: -0.116D-04 0.153D-03 0.672D-03-0.291D-03-0.675D-02 0.756D-03
 Coeff-Com:  0.478D-01-0.555D-01-0.329D+00 0.134D+01
 Coeff:     -0.116D-04 0.153D-03 0.672D-03-0.291D-03-0.675D-02 0.756D-03
 Coeff:      0.478D-01-0.555D-01-0.329D+00 0.134D+01
 Gap=     0.425 Goal=   None    Shift=    0.000
 Gap=     0.425 Goal=   None    Shift=    0.000
 RMSDP=4.75D-07 MaxDP=1.13D-05 DE=-5.26D-08 OVMax= 4.11D-05

 Cycle  11  Pass 1  IDiag  1:
 E= -511.419054257443     Delta-E=       -0.000000003355 Rises=F Damp=F
 DIIS: error= 5.48D-07 at cycle  11 NSaved=  11.
 NSaved=11 IEnMin=11 EnMin= -511.419054257443     IErMin=11 ErrMin= 5.48D-07
 ErrMax= 5.48D-07  0.00D+00 EMaxC= 1.00D-01 BMatC= 2.04D-10 BMatP= 3.74D-09
 IDIUse=1 WtCom= 1.00D+00 WtEn= 0.00D+00
 Coeff-Com: -0.189D-05-0.149D-04-0.428D-04 0.345D-03 0.123D-02-0.250D-02
 Coeff-Com: -0.128D-01 0.324D-01 0.223D-01-0.360D+00 0.132D+01
 Coeff:     -0.189D-05-0.149D-04-0.428D-04 0.345D-03 0.123D-02-0.250D-02
 Coeff:     -0.128D-01 0.324D-01 0.223D-01-0.360D+00 0.132D+01
 Gap=     0.425 Goal=   None    Shift=    0.000
 Gap=     0.425 Goal=   None    Shift=    0.000
 RMSDP=1.17D-07 MaxDP=2.64D-06 DE=-3.36D-09 OVMax= 7.98D-06

 Cycle  12  Pass 1  IDiag  1:
 E= -511.419054257590     Delta-E=       -0.000000000147 Rises=F Damp=F
 DIIS: error= 1.41D-07 at cycle  12 NSaved=  12.
 NSaved=12 IEnMin=12 EnMin= -511.419054257590     IErMin=12 ErrMin= 1.41D-07
 ErrMax= 1.41D-07  0.00D+00 EMaxC= 1.00D-01 BMatC= 9.65D-12 BMatP= 2.04D-10
 IDIUse=1 WtCom= 1.00D+00 WtEn= 0.00D+00
 Coeff-Com:  0.105D-05-0.695D-05-0.337D-04-0.399D-04 0.195D-03 0.439D-03
 Coeff-Com: -0.946D-03-0.184D-02 0.192D-01-0.415D-01-0.134D+00 0.116D+01
 Coeff:      0.105D-05-0.695D-05-0.337D-04-0.399D-04 0.195D-03 0.439D-03
 Coeff:     -0.946D-03-0.184D-02 0.192D-01-0.415D-01-0.134D+00 0.116D+01
 Gap=     0.425 Goal=   None    Shift=    0.000
 Gap=     0.425 Goal=   None    Shift=    0.000
 RMSDP=2.19D-08 MaxDP=3.88D-07 DE=-1.47D-10 OVMax= 1.53D-06

 Cycle  13  Pass 1  IDiag  1:
 E= -511.419054257598     Delta-E=       -0.000000000008 Rises=F Damp=F
 DIIS: error= 3.77D-08 at cycle  13 NSaved=  13.
 NSaved=13 IEnMin=13 EnMin= -511.419054257598     IErMin=13 ErrMin= 3.77D-08
 ErrMax= 3.77D-08  0.00D+00 EMaxC= 1.00D-01 BMatC= 1.22D-12 BMatP= 9.65D-12
 IDIUse=1 WtCom= 1.00D+00 WtEn= 0.00D+00
 Coeff-Com: -0.125D-06 0.223D-05 0.112D-04-0.179D-04-0.152D-03 0.172D-03
 Coeff-Com:  0.108D-02-0.236D-02-0.407D-02 0.332D-01-0.668D-01-0.296D+00
 Coeff-Com:  0.134D+01
 Coeff:     -0.125D-06 0.223D-05 0.112D-04-0.179D-04-0.152D-03 0.172D-03
 Coeff:      0.108D-02-0.236D-02-0.407D-02 0.332D-01-0.668D-01-0.296D+00
 Coeff:      0.134D+01
 Gap=     0.425 Goal=   None    Shift=    0.000
 Gap=     0.425 Goal=   None    Shift=    0.000
 RMSDP=8.78D-09 MaxDP=1.34D-07 DE=-7.73D-12 OVMax= 6.59D-07

 SCF Done:  E(UHF) =  -511.419054258     A.U. after   13 cycles
            NFock= 13  Conv=0.88D-08     -V/T= 2.0007
 <Sx>= 0.0000 <Sy>= 0.0000 <Sz>= 0.0000 <S**2>=-0.0000 S=-0.0000
 <L.S>=  0.00000000000    
 KE= 5.110554457975D+02 PE=-1.419883417226D+03 EE= 2.946552942911D+02
 Annihilation of the first spin contaminant:
 S**2 before annihilation    -0.0000,   after     0.0000
 Leave Link  502 at Tue Jan  3 09:07:39 2023, MaxMem=   536870912 cpu:               6.1 elap:               3.7
 (Enter /opt/software/gaussian/g16.c01/l508.exe)
 QCSCF skips out because SCF is already converged.
 Leave Link  508 at Tue Jan  3 09:07:40 2023, MaxMem=   536870912 cpu:               0.0 elap:               0.0
 (Enter /opt/software/gaussian/g16.c01/l601.exe)
 Copying SCF densities to generalized density rwf, IOpCl= 1 IROHF=0.

 **********************************************************************

            Population analysis using the SCF Density.

 **********************************************************************

 Alpha  occ. eigenvalues --  -92.08339 -20.54663 -11.30244  -9.07420  -6.75556
 Alpha  occ. eigenvalues --   -6.75549  -6.75456  -1.36557  -1.06853  -0.81505
 Alpha  occ. eigenvalues --   -0.66562  -0.63475  -0.56987  -0.54737  -0.43578
 Alpha  occ. eigenvalues --   -0.38387
 Alpha virt. eigenvalues --    0.04080   0.05912   0.06285   0.07373   0.07703
 Alpha virt. eigenvalues --    0.12326   0.13440   0.15054   0.17587   0.18368
 Alpha virt. eigenvalues --    0.19251   0.21300   0.23856   0.23866   0.25451
 Alpha virt. eigenvalues --    0.26884   0.29145   0.30078   0.32863   0.33913
 Alpha virt. eigenvalues --    0.34309   0.36199   0.38497   0.38867   0.39258
 Alpha virt. eigenvalues --    0.43022   0.43647   0.45291   0.45758   0.47491
 Alpha virt. eigenvalues --    0.50183   0.52535   0.54250   0.56838   0.58602
 Alpha virt. eigenvalues --    0.60985   0.62637   0.65867   0.67990   0.69377
 Alpha virt. eigenvalues --    0.70560   0.73839   0.76703   0.78713   0.83504
 Alpha virt. eigenvalues --    0.84104   0.89891   0.96874   1.01388   1.01542
 Alpha virt. eigenvalues --    1.01893   1.06179   1.08532   1.15993   1.18640
 Alpha virt. eigenvalues --    1.24098   1.31373   1.33444   1.34538   1.75933
 Alpha virt. eigenvalues --    1.78776   1.81944   1.82711   1.84333   1.86191
 Alpha virt. eigenvalues --    1.86812   1.92970   1.94630   2.03462   2.05786
 Alpha virt. eigenvalues --    2.08229   2.08425   2.10362   2.11116   2.15848
 Alpha virt. eigenvalues --    2.16379   2.29696   2.33585   2.36577   2.41524
 Alpha virt. eigenvalues --    2.45784   2.61330   2.65568   2.66063   2.70438
 Alpha virt. eigenvalues --    2.85180   2.90554   2.92060   2.97719   3.05773
 Alpha virt. eigenvalues --    3.12481   3.29600   3.40670   3.45599   3.47195
 Alpha virt. eigenvalues --    3.47895   3.51008   3.57852   3.63263   3.76382
 Alpha virt. eigenvalues --    3.78353   3.83615   4.02228   4.08076   4.32644
 Alpha virt. eigenvalues --    4.55410   4.90011   5.61084   5.61148   5.69509
 Alpha virt. eigenvalues --    5.72623   5.91773   5.99544   6.02150   6.96387
 Alpha virt. eigenvalues --    6.98094   7.18422   7.25210   7.53626   9.56783
 Alpha virt. eigenvalues --    9.94529  10.32399  21.66082  23.25084  45.29663
  Beta  occ. eigenvalues --  -92.08339 -20.54663 -11.30244  -9.07420  -6.75556
  Beta  occ. eigenvalues --   -6.75549  -6.75456  -1.36557  -1.06853  -0.81505
  Beta  occ. eigenvalues --   -0.66562  -0.63475  -0.56987  -0.54737  -0.43578
  Beta  occ. eigenvalues --   -0.38387
  Beta virt. eigenvalues --    0.04080   0.05912   0.06285   0.07373   0.07703
  Beta virt. eigenvalues --    0.12326   0.13440   0.15054   0.17587   0.18368
  Beta virt. eigenvalues --    0.19251   0.21300   0.23856   0.23866   0.25451
  Beta virt. eigenvalues --    0.26884   0.29145   0.30078   0.32863   0.33913
  Beta virt. eigenvalues --    0.34309   0.36199   0.38497   0.38867   0.39258
  Beta virt. eigenvalues --    0.43022   0.43647   0.45291   0.45758   0.47491
  Beta virt. eigenvalues --    0.50183   0.52535   0.54250   0.56838   0.58602
  Beta virt. eigenvalues --    0.60985   0.62637   0.65867   0.67990   0.69377
  Beta virt. eigenvalues --    0.70560   0.73839   0.76703   0.78713   0.83504
  Beta virt. eigenvalues --    0.84104   0.89891   0.96874   1.01388   1.01542
  Beta virt. eigenvalues --    1.01893   1.06179   1.08532   1.15993   1.18640
  Beta virt. eigenvalues --    1.24098   1.31373   1.33444   1.34538   1.75933
  Beta virt. eigenvalues --    1.78776   1.81944   1.82711   1.84333   1.86191
  Beta virt. eigenvalues --    1.86812   1.92970   1.94630   2.03462   2.05786
  Beta virt. eigenvalues --    2.08229   2.08425   2.10362   2.11116   2.15848
  Beta virt. eigenvalues --    2.16379   2.29696   2.33585   2.36577   2.41524
  Beta virt. eigenvalues --    2.45784   2.61330   2.65568   2.66063   2.70438
  Beta virt. eigenvalues --    2.85180   2.90554   2.92060   2.97719   3.05773
  Beta virt. eigenvalues --    3.12481   3.29600   3.40670   3.45599   3.47195
  Beta virt. eigenvalues --    3.47895   3.51008   3.57852   3.63263   3.76382
  Beta virt. eigenvalues --    3.78353   3.83615   4.02228   4.08076   4.32644
  Beta virt. eigenvalues --    4.55410   4.90011   5.61084   5.61148   5.69509
  Beta virt. eigenvalues --    5.72623   5.91773   5.99544   6.02150   6.96387
  Beta virt. eigenvalues --    6.98094   7.18422   7.25210   7.53626   9.56783
  Beta virt. eigenvalues --    9.94529  10.32399  21.66082  23.25084  45.29663
          Condensed to atoms (all electrons):
               1          2          3          4          5
     1  C    5.044935   0.484934  -0.060059   0.389399   0.415481
     2  S    0.484934  14.829993   0.284473  -0.047889  -0.030413
     3  O   -0.060059   0.284473   8.401909   0.001278   0.008052
     4  H    0.389399  -0.047889   0.001278   0.448876  -0.028716
     5  H    0.415481  -0.030413   0.008052  -0.028716   0.441211
          Atomic-Atomic Spin Densities.
               1          2          3          4          5
     1  C    0.000000   0.000000   0.000000   0.000000   0.000000
     2  S    0.000000   0.000000   0.000000   0.000000   0.000000
     3  O    0.000000   0.000000   0.000000   0.000000   0.000000
     4  H    0.000000   0.000000   0.000000   0.000000   0.000000
     5  H    0.000000   0.000000   0.000000   0.000000   0.000000
 Mulliken charges and spin densities:
               1          2
     1  C   -0.274689   0.000000
     2  S    0.478903   0.000000
     3  O   -0.635652   0.000000
     4  H    0.237053   0.000000
     5  H    0.194385   0.000000
 Sum of Mulliken charges =  -0.00000   0.00000
 Mulliken charges and spin densities with hydrogens summed into heavy atoms:
               1          2
     1  C    0.156749   0.000000
     2  S    0.478903   0.000000
     3  O   -0.635652   0.000000
 Electronic spatial extent (au):  <R**2>=            830.4605
 Charge=             -0.0000 electrons
 Dipole moment (field-independent basis, Debye):
    X=             -2.9113    Y=              1.2831    Z=              2.2462  Tot=              3.8945
 Quadrupole moment (field-independent basis, Debye-Ang):
   XX=            -35.9119   YY=            -25.9688   ZZ=            -27.9674
   XY=              4.4298   XZ=              7.9477   YZ=             -1.5269
 Traceless Quadrupole moment (field-independent basis, Debye-Ang):
   XX=             -5.9625   YY=              3.9806   ZZ=              1.9819
   XY=              4.4298   XZ=              7.9477   YZ=             -1.5269
 Octapole moment (field-independent basis, Debye-Ang**2):
  XXX=           -205.9094  YYY=             14.1646  ZZZ=             34.2069  XYY=            -59.1743
  XXY=             19.0534  XXZ=             35.7279  XZZ=            -68.9694  YZZ=              7.8654
  YYZ=             11.2400  XYZ=             -7.7185
 Hexadecapole moment (field-independent basis, Debye-Ang**3):
 XXXX=          -1027.8734 YYYY=            -49.4843 ZZZZ=           -101.8577 XXXY=             89.6666
 XXXZ=            170.5636 YYYX=             44.2469 YYYZ=            -19.0657 ZZZX=            101.9988
 ZZZY=            -20.7757 XXYY=           -167.2483 XXZZ=           -207.9609 YYZZ=            -25.6184
 XXYZ=            -31.9126 YYXZ=             33.2737 ZZXY=             24.0534
 N-N= 1.027536228800D+02 E-N=-1.419883417645D+03  KE= 5.110554457975D+02
                          Isotropic Fermi Contact Couplings
        Atom                 a.u.       MegaHertz       Gauss      10(-4) cm-1
     1  C(13)              0.00000       0.00000       0.00000       0.00000
     2  S(33)              0.00000       0.00000       0.00000       0.00000
     3  O(17)              0.00000      -0.00000      -0.00000      -0.00000
     4  H(1)               0.00000       0.00000       0.00000       0.00000
     5  H(1)               0.00000       0.00000       0.00000       0.00000
 --------------------------------------------------------
       Center         ----  Spin Dipole Couplings  ----
                      3XX-RR        3YY-RR        3ZZ-RR
 --------------------------------------------------------
     1   Atom        0.000000      0.000000      0.000000
     2   Atom        0.000000      0.000000      0.000000
     3   Atom        0.000000      0.000000      0.000000
     4   Atom        0.000000      0.000000      0.000000
     5   Atom        0.000000      0.000000      0.000000
 --------------------------------------------------------
                        XY            XZ            YZ
 --------------------------------------------------------
     1   Atom        0.000000      0.000000      0.000000
     2   Atom        0.000000      0.000000      0.000000
     3   Atom        0.000000      0.000000      0.000000
     4   Atom        0.000000      0.000000      0.000000
     5   Atom        0.000000      0.000000      0.000000
 --------------------------------------------------------


 ---------------------------------------------------------------------------------
              Anisotropic Spin Dipole Couplings in Principal Axis System
 ---------------------------------------------------------------------------------

       Atom             a.u.   MegaHertz   Gauss  10(-4) cm-1        Axes

              Baa     0.0000     0.000     0.000     0.000  1.0000  0.0000  0.0000
     1 C(13)  Bbb     0.0000     0.000     0.000     0.000 -0.0000  1.0000  0.0000
              Bcc     0.0000     0.000     0.000     0.000  0.0000  0.0000  1.0000
 
              Baa     0.0000     0.000     0.000     0.000  1.0000  0.0000  0.0000
     2 S(33)  Bbb     0.0000     0.000     0.000     0.000 -0.0000  1.0000  0.0000
              Bcc     0.0000     0.000     0.000     0.000  0.0000  0.0000  1.0000
 
              Baa     0.0000    -0.000    -0.000    -0.000  1.0000  0.0000  0.0000
     3 O(17)  Bbb     0.0000    -0.000    -0.000    -0.000 -0.0000  1.0000  0.0000
              Bcc     0.0000    -0.000    -0.000    -0.000  0.0000  0.0000  1.0000
 
              Baa     0.0000     0.000     0.000     0.000  1.0000  0.0000  0.0000
     4 H(1)   Bbb     0.0000     0.000     0.000     0.000 -0.0000  1.0000  0.0000
              Bcc     0.0000     0.000     0.000     0.000  0.0000  0.0000  1.0000
 
              Baa     0.0000     0.000     0.000     0.000  1.0000  0.0000  0.0000
     5 H(1)   Bbb     0.0000     0.000     0.000     0.000 -0.0000  1.0000  0.0000
              Bcc     0.0000     0.000     0.000     0.000  0.0000  0.0000  1.0000
 

 ---------------------------------------------------------------------------------

 No NMR shielding tensors so no spin-rotation constants.
 Leave Link  601 at Tue Jan  3 09:07:40 2023, MaxMem=   536870912 cpu:               0.4 elap:               0.2
 (Enter /opt/software/gaussian/g16.c01/l801.exe)
 Range of M.O.s used for correlation:     1   141
 NBasis=   141 NAE=    16 NBE=    16 NFC=     0 NFV=     0
 NROrb=    141 NOA=    16 NOB=    16 NVA=   125 NVB=   125

 **** Warning!!: The largest alpha MO coefficient is  0.48279050D+02


 **** Warning!!: The largest beta MO coefficient is  0.48279050D+02

 Leave Link  801 at Tue Jan  3 09:07:40 2023, MaxMem=   536870912 cpu:               0.1 elap:               0.0
 (Enter /opt/software/gaussian/g16.c01/l914.exe)
 UHF ground state
 Doing stability rather than CIS.
 Keep R1 and R2 ints in memory in canonical form, NReq=102278903.
 FoFCou: FMM=F IPFlag=           0 FMFlag=           0 FMFlg1=           0
         NFxFlg=           0 DoJE=F BraDBF=F KetDBF=F FulRan=T
         wScrn=  0.000000 ICntrl=       600 IOpCl=  0 I1Cent=           0 NGrid=           0
         NMat0=    1 NMatS0=  10011 NMatT0=    0 NMatD0=    1 NMtDS0=    0 NMtDT0=    0
 Symmetry not used in FoFCou.
 Two-electron integral symmetry not used.
 MDV=   536870912 DFT=F DoStab=T Mixed=F DoRPA=F DoScal=F NonHer=F
 Making orbital integer symmetry assigments:
    12 initial guesses have been made.
 Convergence on wavefunction:    0.001000000000000
 Davidson Disk Diagonalization:  ConvIn= 1.00D-03 SkipCon=T Conv= 1.00D-03.
 Max sub-space:  2000 roots to seek:    12 dimension of matrix:         4000
 Iteration     1 Dimension    12 NMult     0 NNew     12
 CISAX will form    12 AO SS matrices at one time.
 NMat=    12 NSing=    12 JSym2X= 0.
 New state      1 was old state      2
 Excitation Energies [eV] at current iteration:
 Root      1 :    -0.084734803138936
 Root      2 :     3.889582221512879
 Root      3 :     5.946833189273651
 Root      4 :     6.251781186356595
 Root      5 :     6.292098242439149
 Root      6 :     6.971709697680487
 Root      7 :     7.218078049544178
 Root      8 :     7.977222684588098
 Root      9 :     8.329835890782887
 Root     10 :     9.205778940133872
 Root     11 :    10.231008400586594
 Root     12 :    13.324903712808991
 Iteration     2 Dimension    24 NMult    12 NNew     12
 CISAX will form    12 AO SS matrices at one time.
 NMat=    12 NSing=    12 JSym2X= 0.
 Root      1 not converged, maximum delta is    0.050307222237236
 Excitation Energies [eV] at current iteration:
 Root      1 :    -1.181051080284884   Change is   -1.096316277145948
 Root      2 :     2.495026203520148   Change is   -1.394556017992731
 Root      3 :     4.640627382544445   Change is   -1.651470859894704
 Root      4 :     5.009101045294481   Change is   -0.937732143979170
 Root      5 :     5.075119431358823   Change is   -1.176661754997772
 Root      6 :     5.395922982452942   Change is   -1.575786715227545
 Root      7 :     5.437044779080038   Change is   -4.793963621506555
 Root      8 :     6.508133975187392   Change is   -0.709944074356786
 Root      9 :     6.815913234580088   Change is   -1.161309450008010
 Root     10 :     7.934649193501724   Change is   -0.395186697281163
 Root     11 :     8.493556732731877   Change is   -0.712222207401995
 Root     12 :     9.684581178966249   Change is   -3.640322533842742
 Iteration     3 Dimension    27 NMult    24 NNew      3
 CISAX will form     3 AO SS matrices at one time.
 NMat=     3 NSing=     3 JSym2X= 0.
 Root      1 not converged, maximum delta is    0.007951609842786
 Excitation Energies [eV] at current iteration:
 Root      1 :    -1.227945877555573   Change is   -0.046894797270689
 Root      2 :     2.360635268241358   Change is   -0.134390935278790
 Root      3 :     4.478556471578941   Change is   -0.162070910965505
 Iteration     4 Dimension    30 NMult    27 NNew      3
 CISAX will form     3 AO SS matrices at one time.
 NMat=     3 NSing=     3 JSym2X= 0.
 Root      1 not converged, maximum delta is    0.002369896595669
 Excitation Energies [eV] at current iteration:
 Root      1 :    -1.232310831170454   Change is   -0.004364953614880
 Root      2 :     2.336890185697009   Change is   -0.023745082544349
 Root      3 :     4.451241480040959   Change is   -0.027314991537981
 Iteration     5 Dimension    33 NMult    30 NNew      3
 CISAX will form     3 AO SS matrices at one time.
 NMat=     3 NSing=     3 JSym2X= 0.
 Root      1 has converged.
 Excitation Energies [eV] at current iteration:
 Root      1 :    -1.232681776862932   Change is   -0.000370945692479
 Root      2 :     2.333561558013103   Change is   -0.003328627683906
 Root      3 :     4.440796972316262   Change is   -0.010444507724698
 Convergence achieved on expansion vectors.
 ***********************************************************************
 Stability analysis using <AA,BB:AA,BB> singles matrix:
 ***********************************************************************
 1PDM for each excited state written to RWF  633
 Ground to excited state transition densities written to RWF  633

 Eigenvectors of the stability matrix:
 
 Excited state symmetry could not be determined.
 Eigenvector   1:  3.000-?Sym  Eigenvalue=-0.0453002  <S**2>=2.000
     13A -> 17A       -0.12073
     16A -> 17A        0.64636
     16A -> 30A        0.11137
     16A -> 31A       -0.14556
     13B -> 17B        0.12073
     16B -> 17B       -0.64636
     16B -> 30B       -0.11137
     16B -> 31B        0.14556
 The wavefunction has an internal instability.
 Leave Link  914 at Tue Jan  3 09:07:45 2023, MaxMem=   536870912 cpu:              11.1 elap:               5.6
 (Enter /opt/software/gaussian/g16.c01/l508.exe)
 Keep R1 and R2 ints in memory in canonical form, NReq=102278963.
 FoFCou: FMM=F IPFlag=           0 FMFlag=           0 FMFlg1=           0
         NFxFlg=           0 DoJE=F BraDBF=F KetDBF=F FulRan=T
         wScrn=  0.000000 ICntrl=       600 IOpCl=  0 I1Cent=           0 NGrid=           0
         NMat0=    1 NMatS0=  10011 NMatT0=    0 NMatD0=    1 NMtDS0=    0 NMtDT0=    0
 Symmetry not used in FoFCou.
 Two-electron integral symmetry not used.
 Very tight linear equation convergence will be used.
 UHF wavefunction.
 Quadratic Convergence SCF Method.
 Line search only if initial step raises energy.
 Perform preliminary linear searches along instability eigenvector.
     ILin= 1 X=0.000D+00 Y=-5.114190542576D+02 DE= 0.00D+00
     ILin= 2 X=1.000D-01 Y=-5.114194947030D+02 DE=-4.40D-04
     ILin= 3 X=1.414D-01 Y=-5.114199103695D+02 DE=-8.56D-04
     ILin= 4 X=2.000D-01 Y=-5.114206682103D+02 DE=-1.61D-03
     ILin= 5 X=2.828D-01 Y=-5.114218957472D+02 DE=-2.84D-03
     ILin= 6 X=4.000D-01 Y=-5.114232438917D+02 DE=-4.19D-03
     ILin= 7 X=5.657D-01 Y=-5.114218626042D+02 DE=-2.81D-03
     An  expanding polynomial of degree  7 produced  0.4440
 Iteration F X= 4.440D-01 EE=-5.114233906817319D+02
     ILin= 1 X=0.000D+00 Y=-5.114190542576D+02 DE= 0.00D+00
     ILin= 2 X=1.000D-01 Y=-5.114194947033D+02 DE=-4.40D-04
     ILin= 3 X=1.414D-01 Y=-5.114199103705D+02 DE=-8.56D-04
 The two search directions are symmetric.
 Iteration B X= 4.440D-01 EE=-5.114233906817319D+02
 Take forward step, X= 4.440D-01 Step= 4.440D-01
 Iteration   1 EE= -511.423390774923                                    Grad=2.633D-02 Max rot=    0.3151 deg.
 Gradient too large for Newton-Raphson -- use scaled steepest descent instead.
 Alpha Gap=     0.470 HL deriv= 2.61D-04
  Beta Gap=     0.466 HL deriv= 2.26D-03
     ILin= 1 X=0.000D+00 Y=-5.114233907749D+02 DE= 0.00D+00 F= -1.11D-03
     ILin= 2 X=3.000D-01 Y=-5.114236890122D+02 DE=-2.98D-04 F= -8.77D-04 OKLS=F
     ILin= 3 X=6.000D-01 Y=-5.114239172020D+02 DE=-5.26D-04 F= -6.44D-04
     ILin= 4 X=1.200D+00 Y=-5.114241639411D+02 DE=-7.73D-04 F= -1.79D-04
     ILin= 5 X=2.400D+00 Y=-5.114238225004D+02 DE=-4.32D-04 F=  7.47D-04
     An  expanding polynomial of degree  5 produced  1.4311
 Iteration   2 EE= -511.424184583808     Delta-E=       -0.000793808885 Grad=1.215D-02 Max rot=    0.2061 deg.
 Gradient too large for Newton-Raphson -- use scaled steepest descent instead.
 Alpha Gap=     0.468 HL deriv= 3.38D-03
  Beta Gap=     0.464 HL deriv= 6.56D-03
     ILin= 1 X=0.000D+00 Y=-5.114241845838D+02 DE= 0.00D+00 F= -2.26D-04
     ILin= 2 X=7.000D-01 Y=-5.114242850859D+02 DE=-1.01D-04 F= -6.09D-05 OKLS=T
     Reject lnstep IMin12=  1  2 Big=T Turn=F Min= 1.151D+00 FVal=-5.114243139161D+02 Lims=  0.00D+00  7.00D-01
     ILin= 3 X=1.300D+00 Y=-5.114242790630D+02 DE=-9.45D-05 F=  8.10D-05
     An  expanding polynomial of degree  3 produced  0.9575
 Iteration   3 EE= -511.424292933415     Delta-E=       -0.000108349607 Grad=8.659D-03 Max rot=    0.1107 deg.
 QCNR:  CnvC1=6.32D-10 CnvC2=6.32D-09
 LinEq1:  Iter=  0 NonCon=     1 RMS=1.32D-04 Max=4.49D-03 NDo=     1
 AX will form     1 AO Fock derivatives at one time.
 LinEq1:  Iter=  1 NonCon=     1 RMS=1.15D-04 Max=3.87D-03 NDo=     1
 LinEq1:  Iter=  2 NonCon=     1 RMS=2.33D-05 Max=4.32D-04 NDo=     1
 LinEq1:  Iter=  3 NonCon=     1 RMS=1.17D-05 Max=3.64D-04 NDo=     1
 LinEq1:  Iter=  4 NonCon=     1 RMS=2.83D-06 Max=8.20D-05 NDo=     1
 LinEq1:  Iter=  5 NonCon=     1 RMS=1.24D-06 Max=2.51D-05 NDo=     1
 LinEq1:  Iter=  6 NonCon=     1 RMS=3.90D-07 Max=7.11D-06 NDo=     1
 LinEq1:  Iter=  7 NonCon=     1 RMS=7.47D-08 Max=8.93D-07 NDo=     1
 LinEq1:  Iter=  8 NonCon=     1 RMS=2.07D-08 Max=1.99D-07 NDo=     1
 LinEq1:  Iter=  9 NonCon=     1 RMS=5.72D-09 Max=6.34D-08 NDo=     1
 LinEq1:  Iter= 10 NonCon=     1 RMS=9.78D-10 Max=9.29D-09 NDo=     1
 LinEq1:  Iter= 11 NonCon=     0 RMS=2.07D-10 Max=2.15D-09 NDo=     1
 Linear equations converged to 6.325D-10 6.325D-09 after    11 iterations.
 Angle between quadratic step and gradient=  59.92 degrees.
     ILin= 1 X=0.000D+00 Y=-5.114242929334D+02 DE= 0.00D+00 F= -5.85D-04
     ILin= 2 X=1.000D+00 Y=-5.114245714781D+02 DE=-2.79D-04 F=  4.35D-05 OKLS=T
     Accept linear search using points  1 and  2.
     An  expanding polynomial of degree  2 produced  0.9353
     Minimum is close to point  2 DX= -6.47D-02 DF= -1.40D-06 DXR=  6.91D-02 DFR=  5.04D-03 which will be used.
 Iteration   4 EE= -511.424571478089     Delta-E=       -0.000278544674 Grad=1.019D-03 Max rot=    0.0257 deg.
 QCNR:  CnvC1=6.32D-10 CnvC2=6.32D-09
 LinEq1:  Iter=  0 NonCon=     1 RMS=2.22D-05 Max=7.46D-04 NDo=     1
 LinEq1:  Iter=  1 NonCon=     1 RMS=6.65D-06 Max=1.17D-04 NDo=     1
 LinEq1:  Iter=  2 NonCon=     1 RMS=4.72D-06 Max=1.23D-04 NDo=     1
 LinEq1:  Iter=  3 NonCon=     1 RMS=1.17D-06 Max=2.40D-05 NDo=     1
 LinEq1:  Iter=  4 NonCon=     1 RMS=5.96D-07 Max=1.85D-05 NDo=     1
 LinEq1:  Iter=  5 NonCon=     1 RMS=1.83D-07 Max=2.88D-06 NDo=     1
 LinEq1:  Iter=  6 NonCon=     1 RMS=6.72D-08 Max=1.17D-06 NDo=     1
 LinEq1:  Iter=  7 NonCon=     1 RMS=2.21D-08 Max=2.67D-07 NDo=     1
 LinEq1:  Iter=  8 NonCon=     1 RMS=4.86D-09 Max=4.69D-08 NDo=     1
 LinEq1:  Iter=  9 NonCon=     1 RMS=1.24D-09 Max=1.35D-08 NDo=     1
 LinEq1:  Iter= 10 NonCon=     0 RMS=3.57D-10 Max=4.25D-09 NDo=     1
 Linear equations converged to 6.325D-10 6.325D-09 after    10 iterations.
 Angle between quadratic step and gradient=  43.87 degrees.
     ILin= 1 X=0.000D+00 Y=-5.114245714781D+02 DE= 0.00D+00 F= -9.07D-06
     ILin= 2 X=1.000D+00 Y=-5.114245760492D+02 DE=-4.57D-06 F= -1.07D-07 OKLS=T
     Reject lnstep IMin12=  1  2 Big=T Turn=F Min= 1.012D+00 FVal=-5.114245760499D+02 Lims=  0.00D+00  1.00D+00
     ILin= 3 X=2.000D+00 Y=-5.114245717633D+02 DE=-2.85D-07 F=  8.64D-06
     An  expanding polynomial of degree  3 produced  1.0161
     Minimum is close to point  2 DX=  1.61D-02 DF= -1.15D-09 DXR=  1.58D-02 DFR=  2.51D-04 which will be used.
 Iteration   5 EE= -511.424576049220     Delta-E=       -0.000004571131 Grad=1.154D-05 Max rot=    0.0003 deg.
 QCNR:  CnvC1=1.15D-10 CnvC2=1.15D-09
 LinEq1:  Iter=  0 NonCon=     1 RMS=2.80D-07 Max=1.03D-05 NDo=     1
 LinEq1:  Iter=  1 NonCon=     1 RMS=5.13D-08 Max=8.08D-07 NDo=     1
 LinEq1:  Iter=  2 NonCon=     1 RMS=2.74D-08 Max=6.38D-07 NDo=     1
 LinEq1:  Iter=  3 NonCon=     1 RMS=1.20D-08 Max=1.31D-07 NDo=     1
 LinEq1:  Iter=  4 NonCon=     1 RMS=6.18D-09 Max=1.60D-07 NDo=     1
 LinEq1:  Iter=  5 NonCon=     1 RMS=1.54D-09 Max=2.18D-08 NDo=     1
 LinEq1:  Iter=  6 NonCon=     1 RMS=4.90D-10 Max=6.76D-09 NDo=     1
 LinEq1:  Iter=  7 NonCon=     1 RMS=1.72D-10 Max=2.29D-09 NDo=     1
 LinEq1:  Iter=  8 NonCon=     0 RMS=5.86D-11 Max=9.45D-10 NDo=     1
 Linear equations converged to 1.154D-10 1.154D-09 after     8 iterations.
 Angle between quadratic step and gradient=  40.79 degrees.
     ILin= 1 X=0.000D+00 Y=-5.114245760492D+02 DE= 0.00D+00 F= -1.99D-09
     ILin= 2 X=1.000D+00 Y=-5.114245760502D+02 DE=-9.94D-10
 Iteration   6 EE= -511.424576050214     Delta-E=       -0.000000000994 Grad=3.431D-07 Max rot=    0.0000 deg.
 Rotation gradient small -- convergence achieved.
 SCF Done:  E(UHF) =  -511.424576050     a.u. after    6 cycles
            Convg  =    0.3431D-06                    50 Fock formations.
              S**2 =  0.4333                  -V/T =  2.0004
 <Sx>= 0.0000 <Sy>= 0.0000 <Sz>= 0.0000 <S**2>= 0.4333 S= 0.3266
 <L.S>=  0.00000000000    
 Annihilation of the first spin contaminant:
 S**2 before annihilation     0.4333,   after     0.0435
 Leave Link  508 at Tue Jan  3 09:07:57 2023, MaxMem=   536870912 cpu:              14.2 elap:              11.7
 (Enter /opt/software/gaussian/g16.c01/l801.exe)
 Range of M.O.s used for correlation:     1   141
 NBasis=   141 NAE=    16 NBE=    16 NFC=     0 NFV=     0
 NROrb=    141 NOA=    16 NOB=    16 NVA=   125 NVB=   125

 **** Warning!!: The largest alpha MO coefficient is  0.49455187D+02


 **** Warning!!: The largest beta MO coefficient is  0.50214779D+02

 Leave Link  801 at Tue Jan  3 09:07:57 2023, MaxMem=   536870912 cpu:               0.1 elap:               0.1
 (Enter /opt/software/gaussian/g16.c01/l914.exe)
 UHF ground state
 Doing stability rather than CIS.
 Keep R1 and R2 ints in memory in canonical form, NReq=102278903.
 FoFCou: FMM=F IPFlag=           0 FMFlag=           0 FMFlg1=           0
         NFxFlg=           0 DoJE=F BraDBF=F KetDBF=F FulRan=T
         wScrn=  0.000000 ICntrl=       600 IOpCl=  0 I1Cent=           0 NGrid=           0
         NMat0=    1 NMatS0=  10011 NMatT0=    0 NMatD0=    1 NMtDS0=    0 NMtDT0=    0
 Symmetry not used in FoFCou.
 Two-electron integral symmetry not used.
 MDV=   536870912 DFT=F DoStab=T Mixed=F DoRPA=F DoScal=F NonHer=F
 Making orbital integer symmetry assigments:
    12 initial guesses have been made.
 Convergence on wavefunction:    0.001000000000000
 Davidson Disk Diagonalization:  ConvIn= 1.00D-03 SkipCon=T Conv= 1.00D-03.
 Max sub-space:  2000 roots to seek:    12 dimension of matrix:         4000
 Iteration     1 Dimension    12 NMult     0 NNew     12
 CISAX will form    12 AO SS matrices at one time.
 NMat=    12 NSing=    12 JSym2X= 0.
 Excitation Energies [eV] at current iteration:
 Root      1 :     3.382800269099207
 Root      2 :     4.029032204538057
 Root      3 :     6.529628157314377
 Root      4 :     6.569585785032788
 Root      5 :     6.696174100379650
 Root      6 :     7.157269810075843
 Root      7 :     7.354343461778376
 Root      8 :     8.249255969605857
 Root      9 :     8.414157556740932
 Root     10 :     9.440227311096997
 Root     11 :     9.652804939414452
 Root     12 :    10.272820659636727
 Iteration     2 Dimension    24 NMult    12 NNew     12
 CISAX will form    12 AO SS matrices at one time.
 NMat=    12 NSing=    12 JSym2X= 0.
 Root      1 not converged, maximum delta is    0.138279470241866
 Excitation Energies [eV] at current iteration:
 Root      1 :     2.140105613967545   Change is   -1.242694655131663
 Root      2 :     2.724510034744789   Change is   -1.304522169793268
 Root      3 :     4.041434221241407   Change is   -2.528151563791381
 Root      4 :     5.236067243418843   Change is   -1.293560913895535
 Root      5 :     5.531212018986339   Change is   -1.823131442792037
 Root      6 :     5.641551042007230   Change is   -1.054623058372420
 Root      7 :     6.155712381693705   Change is   -1.001557428382138
 Root      8 :     7.387217996034278   Change is   -2.885602663602449
 Root      9 :     7.488075208544903   Change is   -0.761180761060954
 Root     10 :     7.613639862337515   Change is   -0.800517694403416
 Root     11 :     8.187778796151168   Change is   -1.465026143263283
 Root     12 :     8.427480935948768   Change is   -1.012746375148229
 Iteration     3 Dimension    27 NMult    24 NNew      3
 CISAX will form     3 AO SS matrices at one time.
 NMat=     3 NSing=     3 JSym2X= 0.
 Root      1 not converged, maximum delta is    0.080160416325660
 Excitation Energies [eV] at current iteration:
 Root      1 :     1.901896756770547   Change is   -0.238208857196997
 Root      2 :     2.653703622247161   Change is   -0.070806412497628
 Root      3 :     3.508760283466289   Change is   -0.532673937775118
 Iteration     4 Dimension    30 NMult    27 NNew      3
 CISAX will form     3 AO SS matrices at one time.
 NMat=     3 NSing=     3 JSym2X= 0.
 Root      1 not converged, maximum delta is    0.015200391183890
 Excitation Energies [eV] at current iteration:
 Root      1 :     1.859816773629581   Change is   -0.042079983140966
 Root      2 :     2.650277538287955   Change is   -0.003426083959206
 Root      3 :     3.446009635862224   Change is   -0.062750647604065
 Iteration     5 Dimension    33 NMult    30 NNew      3
 CISAX will form     3 AO SS matrices at one time.
 NMat=     3 NSing=     3 JSym2X= 0.
 Root      1 not converged, maximum delta is    0.004835218767819
 Excitation Energies [eV] at current iteration:
 Root      1 :     1.851647220848192   Change is   -0.008169552781389
 Root      2 :     2.649878107148926   Change is   -0.000399431139029
 Root      3 :     3.436975831259710   Change is   -0.009033804602514
 Iteration     6 Dimension    36 NMult    33 NNew      3
 CISAX will form     3 AO SS matrices at one time.
 NMat=     3 NSing=     3 JSym2X= 0.
 Root      1 not converged, maximum delta is    0.002319033003710
 Excitation Energies [eV] at current iteration:
 Root      1 :     1.849887442253950   Change is   -0.001759778594242
 Root      2 :     2.649830310937582   Change is   -0.000047796211344
 Root      3 :     3.434587795937062   Change is   -0.002388035322649
 Iteration     7 Dimension    39 NMult    36 NNew      3
 CISAX will form     3 AO SS matrices at one time.
 NMat=     3 NSing=     3 JSym2X= 0.
 Root      1 not converged, maximum delta is    0.001000097439686
 Excitation Energies [eV] at current iteration:
 Root      1 :     1.849620873467420   Change is   -0.000266568786530
 Root      2 :     2.649824954509309   Change is   -0.000005356428273
 Root      3 :     3.433962838848964   Change is   -0.000624957088098
 Iteration     8 Dimension    42 NMult    39 NNew      3
 CISAX will form     3 AO SS matrices at one time.
 NMat=     3 NSing=     3 JSym2X= 0.
 Root      1 has converged.
 Excitation Energies [eV] at current iteration:
 Root      1 :     1.849581954334227   Change is   -0.000038919133193
 Root      2 :     2.649823970154751   Change is   -0.000000984354558
 Root      3 :     3.433826587854049   Change is   -0.000136250994914
 Convergence achieved on expansion vectors.
 ***********************************************************************
 Stability analysis using <AA,BB:AA,BB> singles matrix:
 ***********************************************************************
 1PDM for each excited state written to RWF  633
 Ground to excited state transition densities written to RWF  633

 Eigenvectors of the stability matrix:
 
 Excited state symmetry could not be determined.
 Eigenvector   1:  2.363-?Sym  Eigenvalue= 0.0679709  <S**2>=1.146
     16A -> 18A        0.36505
     16A -> 21A       -0.22402
     16A -> 31A        0.12219
     14B -> 17B       -0.10460
     16B -> 17B        0.73329
     16B -> 21B       -0.29189
     16B -> 25B        0.10031
     16B -> 29B       -0.17521
 The wavefunction is stable under the perturbations considered.
 Leave Link  914 at Tue Jan  3 09:08:04 2023, MaxMem=   536870912 cpu:              13.6 elap:               6.8
 (Enter /opt/software/gaussian/g16.c01/l508.exe)
 The wavefunction is already stable.
 Leave Link  508 at Tue Jan  3 09:08:04 2023, MaxMem=   536870912 cpu:               0.0 elap:               0.0
 (Enter /opt/software/gaussian/g16.c01/l601.exe)
 Copying SCF densities to generalized density rwf, IOpCl= 1 IROHF=0.

 **********************************************************************

            Population analysis using the SCF Density.

 **********************************************************************

 Alpha  occ. eigenvalues --  -92.07163 -20.56529 -11.28004  -9.06495  -6.75275
 Alpha  occ. eigenvalues --   -6.74591  -6.74381  -1.38693  -1.06098  -0.81141
 Alpha  occ. eigenvalues --   -0.65981  -0.63704  -0.61273  -0.55556  -0.44547
 Alpha  occ. eigenvalues --   -0.40703
 Alpha virt. eigenvalues --    0.06028   0.06105   0.06389   0.07685   0.07914
 Alpha virt. eigenvalues --    0.12357   0.13411   0.15071   0.17341   0.18316
 Alpha virt. eigenvalues --    0.19278   0.21280   0.23697   0.24107   0.26812
 Alpha virt. eigenvalues --    0.27069   0.29432   0.30122   0.32900   0.34009
 Alpha virt. eigenvalues --    0.34159   0.36385   0.38637   0.39102   0.39317
 Alpha virt. eigenvalues --    0.43341   0.43992   0.45213   0.45946   0.47881
 Alpha virt. eigenvalues --    0.50256   0.52571   0.54184   0.56967   0.58561
 Alpha virt. eigenvalues --    0.61048   0.62913   0.66368   0.68173   0.69589
 Alpha virt. eigenvalues --    0.70292   0.73761   0.75369   0.78787   0.83695
 Alpha virt. eigenvalues --    0.84453   0.90007   0.96870   1.00484   1.01927
 Alpha virt. eigenvalues --    1.03079   1.06442   1.08347   1.17454   1.18525
 Alpha virt. eigenvalues --    1.24234   1.31989   1.33829   1.34833   1.75556
 Alpha virt. eigenvalues --    1.79537   1.81959   1.83090   1.85607   1.86024
 Alpha virt. eigenvalues --    1.86917   1.93570   1.94936   2.02917   2.06180
 Alpha virt. eigenvalues --    2.08045   2.08779   2.11029   2.11522   2.15752
 Alpha virt. eigenvalues --    2.16109   2.29546   2.33846   2.36834   2.41612
 Alpha virt. eigenvalues --    2.46113   2.61041   2.64745   2.65860   2.70906
 Alpha virt. eigenvalues --    2.85534   2.90866   2.92577   2.97904   3.06843
 Alpha virt. eigenvalues --    3.12796   3.27712   3.42860   3.47206   3.47594
 Alpha virt. eigenvalues --    3.48650   3.52179   3.56447   3.64235   3.77698
 Alpha virt. eigenvalues --    3.79797   3.84400   4.02776   4.08918   4.32260
 Alpha virt. eigenvalues --    4.56032   4.90876   5.59085   5.59149   5.67996
 Alpha virt. eigenvalues --    5.71052   5.90099   5.98666   6.01096   6.93563
 Alpha virt. eigenvalues --    6.95295   7.15849   7.23969   7.52094   9.57083
 Alpha virt. eigenvalues --    9.95350  10.33089  21.66800  23.26950  45.28148
  Beta  occ. eigenvalues --  -92.06710 -20.54952 -11.29617  -9.06047  -6.74296
  Beta  occ. eigenvalues --   -6.74192  -6.73483  -1.35339  -1.07555  -0.80957
  Beta  occ. eigenvalues --   -0.66542  -0.63368  -0.54358  -0.54090  -0.43207
  Beta  occ. eigenvalues --   -0.39938
  Beta virt. eigenvalues --    0.05588   0.05991   0.06341   0.07650   0.07782
  Beta virt. eigenvalues --    0.12363   0.13536   0.15055   0.17679   0.18441
  Beta virt. eigenvalues --    0.19296   0.21506   0.23763   0.24178   0.24785
  Beta virt. eigenvalues --    0.26903   0.29232   0.30152   0.32792   0.33963
  Beta virt. eigenvalues --    0.34711   0.36173   0.38478   0.38937   0.39517
  Beta virt. eigenvalues --    0.42886   0.43646   0.45674   0.45688   0.47248
  Beta virt. eigenvalues --    0.50222   0.52712   0.54227   0.56769   0.58500
  Beta virt. eigenvalues --    0.60916   0.62290   0.65934   0.67938   0.69133
  Beta virt. eigenvalues --    0.71239   0.73730   0.78184   0.78711   0.83338
  Beta virt. eigenvalues --    0.84768   0.90215   0.96884   1.00402   1.02005
  Beta virt. eigenvalues --    1.02112   1.05613   1.08483   1.15226   1.18576
  Beta virt. eigenvalues --    1.24504   1.30807   1.33638   1.34731   1.76666
  Beta virt. eigenvalues --    1.77928   1.82241   1.82951   1.84894   1.86777
  Beta virt. eigenvalues --    1.88044   1.92935   1.94933   2.04787   2.06014
  Beta virt. eigenvalues --    2.08462   2.08590   2.10410   2.11746   2.16164
  Beta virt. eigenvalues --    2.17482   2.30501   2.33906   2.37174   2.41833
  Beta virt. eigenvalues --    2.46054   2.61212   2.65565   2.66934   2.70124
  Beta virt. eigenvalues --    2.85248   2.90763   2.92317   2.97890   3.05477
  Beta virt. eigenvalues --    3.12597   3.30305   3.39371   3.44320   3.46747
  Beta virt. eigenvalues --    3.47636   3.50735   3.57626   3.63022   3.76091
  Beta virt. eigenvalues --    3.77883   3.83495   4.02356   4.07996   4.32639
  Beta virt. eigenvalues --    4.55475   4.90103   5.60933   5.60996   5.69253
  Beta virt. eigenvalues --    5.72407   5.91751   5.99160   6.01977   6.97011
  Beta virt. eigenvalues --    6.98702   7.18950   7.24794   7.53490   9.58708
  Beta virt. eigenvalues --    9.95561  10.33319  21.67346  23.25870  45.29066
          Condensed to atoms (all electrons):
               1          2          3          4          5
     1  C    5.153026   0.368787  -0.050656   0.393594   0.413706
     2  S    0.368787  14.975286   0.291460  -0.050447  -0.034918
     3  O   -0.050656   0.291460   8.348994   0.001663   0.007581
     4  H    0.393594  -0.050447   0.001663   0.452365  -0.027206
     5  H    0.413706  -0.034918   0.007581  -0.027206   0.443203
          Atomic-Atomic Spin Densities.
               1          2          3          4          5
     1  C   -0.822469  -0.002428   0.011289  -0.003931   0.002216
     2  S   -0.002428   0.617140  -0.127615  -0.010134  -0.008259
     3  O    0.011289  -0.127615   0.386582   0.000282  -0.000911
     4  H   -0.003931  -0.010134   0.000282   0.057815  -0.006511
     5  H    0.002216  -0.008259  -0.000911  -0.006511   0.052935
 Mulliken charges and spin densities:
               1          2
     1  C   -0.278456  -0.815322
     2  S    0.449833   0.468704
     3  O   -0.599042   0.269627
     4  H    0.230031   0.037520
     5  H    0.197635   0.039471
 Sum of Mulliken charges =   0.00000   0.00000
 Mulliken charges and spin densities with hydrogens summed into heavy atoms:
               1          2
     1  C    0.149210  -0.738331
     2  S    0.449833   0.468704
     3  O   -0.599042   0.269627
 Electronic spatial extent (au):  <R**2>=            830.0160
 Charge=              0.0000 electrons
 Dipole moment (field-independent basis, Debye):
    X=             -2.8449    Y=              1.1886    Z=              2.0806  Tot=              3.7195
 Quadrupole moment (field-independent basis, Debye-Ang):
   XX=            -35.8895   YY=            -25.7581   ZZ=            -27.6026
   XY=              4.0520   XZ=              7.2816   YZ=             -1.4085
 Traceless Quadrupole moment (field-independent basis, Debye-Ang):
   XX=             -6.1394   YY=              3.9919   ZZ=              2.1475
   XY=              4.0520   XZ=              7.2816   YZ=             -1.4085
 Octapole moment (field-independent basis, Debye-Ang**2):
  XXX=           -205.8790  YYY=             13.9957  ZZZ=             33.6972  XYY=            -58.8687
  XXY=             17.7099  XXZ=             33.3735  XZZ=            -67.8927  YZZ=              7.6851
  YYZ=             11.0809  XYZ=             -7.1140
 Hexadecapole moment (field-independent basis, Debye-Ang**3):
 XXXX=          -1026.4325 YYYY=            -48.4614 ZZZZ=           -100.4599 XXXY=             84.8909
 XXXZ=            162.1990 YYYX=             43.4541 YYYZ=            -18.8637 ZZZX=            100.1267
 ZZZY=            -20.7209 XXYY=           -166.8657 XXZZ=           -204.7187 YYZZ=            -25.2785
 XXYZ=            -29.6625 YYXZ=             32.7003 ZZXY=             23.4998
 N-N= 1.027536228800D+02 E-N=-1.420124615884D+03  KE= 5.112160506805D+02
                          Isotropic Fermi Contact Couplings
        Atom                 a.u.       MegaHertz       Gauss      10(-4) cm-1
     1  C(13)             -0.10829     -60.86809     -21.71925     -20.30341
     2  S(33)              0.15066      25.87450       9.23266       8.63080
     3  O(17)              0.10851     -32.88829     -11.73536     -10.97035
     4  H(1)               0.01596      35.67154      12.72849      11.89874
     5  H(1)               0.01698      37.95463      13.54316      12.66030
 --------------------------------------------------------
       Center         ----  Spin Dipole Couplings  ----
                      3XX-RR        3YY-RR        3ZZ-RR
 --------------------------------------------------------
     1   Atom        0.374546     -0.466557      0.092011
     2   Atom       -0.762075      1.137221     -0.375146
     3   Atom       -0.636320      0.824322     -0.188002
     4   Atom        0.039684     -0.010263     -0.029421
     5   Atom        0.025299     -0.006441     -0.018858
 --------------------------------------------------------
                        XY            XZ            YZ
 --------------------------------------------------------
     1   Atom        0.001317      0.002444      0.474037
     2   Atom        0.005537      0.009188     -1.282194
     3   Atom        0.011659      0.019997     -0.858222
     4   Atom        0.017339      0.030345     -0.016262
     5   Atom       -0.022688     -0.039699     -0.010530
 --------------------------------------------------------


 ---------------------------------------------------------------------------------
              Anisotropic Spin Dipole Couplings in Principal Axis System
 ---------------------------------------------------------------------------------

       Atom             a.u.   MegaHertz   Gauss  10(-4) cm-1        Axes

              Baa    -0.7375   -98.961   -35.312   -33.010  0.0001  0.8682 -0.4962
     1 C(13)  Bbb     0.3623    48.616    17.347    16.217 -0.2209  0.4839  0.8468
              Bcc     0.3752    50.345    17.964    16.793  0.9753  0.1095  0.1918
 
              Baa    -1.1079   -45.421   -16.207   -15.151 -0.0310  0.4958  0.8679
     2 S(33)  Bbb    -0.7617   -31.231   -11.144   -10.417  0.9995  0.0153  0.0270
              Bcc     1.8696    76.652    27.351    25.568  0.0001  0.8683 -0.4960
 
              Baa    -0.6885    49.818    17.776    16.617 -0.4056  0.4534  0.7937
     3 O(17)  Bbb    -0.6260    45.300    16.164    15.111  0.9140  0.2011  0.3523
              Bcc     1.3145   -95.118   -33.941   -31.728  0.0001  0.8683 -0.4960
 
              Baa    -0.0520   -27.762    -9.906    -9.261 -0.3561  0.4637  0.8113
     4 H(1)   Bbb    -0.0010    -0.517    -0.184    -0.172  0.0000  0.8682 -0.4962
              Bcc     0.0530    28.279    10.091     9.433  0.9345  0.1766  0.3092
 
              Baa    -0.0519   -27.714    -9.889    -9.244  0.5094  0.4269  0.7472
     5 H(1)   Bbb    -0.0004    -0.227    -0.081    -0.076  0.0001  0.8682 -0.4962
              Bcc     0.0524    27.941     9.970     9.320  0.8605 -0.2528 -0.4423
 

 ---------------------------------------------------------------------------------

 No NMR shielding tensors so no spin-rotation constants.
 Leave Link  601 at Tue Jan  3 09:08:05 2023, MaxMem=   536870912 cpu:               0.5 elap:               0.3
 (Enter /opt/software/gaussian/g16.c01/l9999.exe)

 Test job not archived.
 1\1\GINC-GRA607\Stability\UHF\Gen\C1H2O1S1\BHAVUK\03-Jan-2023\0\\#p uh
 f/gen stable=opt scf=(maxcycle=900,verytightlineq,xqc) integral=grid=u
 ltrafine symmetry=None density=current iop(99/18=-1) output=wfn\\0005_
 q000_m01_k00_opt_uwb97xd_def2svpd/0005_q000_m01_k00_force_uhf_def2tzvp
 d stable-force\\0,1\C,0,0.9770245042,-0.0197961728,-0.1008273286\S,0,2
 .5880021429,-0.0345660623,-0.126439068\O,0,3.1712397907,-0.7143116203,
 -1.3164938758\H,0,0.5180717789,0.4715880124,0.7588975415\H,0,0.3708017
 881,-0.4702041579,-0.8890472689\\Version=ES64L-G16RevC.01\HF=-511.4245
 761\S2=0.433326\S2-1=0.\S2A=0.043469\RMSD=5.425e-09\Dipole=-1.119267,0
 .4676194,0.8185596\Quadrupole=-4.5644865,2.9679075,1.596579,3.0125774,
 5.4137267,-1.0472042\PG=Unknown\\@

 Writing a WFN file to "0005_q000_m01_k00_force_uhf_def2tzvpd.wfn"


 IT CANNOT BE MY BEAUTY, FOR I HAVE NONE; AND IT CANNOT BE MY WIT,
 FOR HE HAS NOT ENOUGH TO KNOW THAT I HAVE ANY.
 -- CATHARINE SEDLEY, PUZZLED ABOUT WHY SHE WAS MISTRESS TO JAMES II
 Job cpu time:       0 days  0 hours  0 minutes 49.4 seconds.
 Elapsed time:       0 days  0 hours  0 minutes 29.8 seconds.
 File lengths (MBytes):  RWF=    113 Int=      0 D2E=      0 Chk=      4 Scr=      1
 Normal termination of Gaussian 16 at Tue Jan  3 09:08:05 2023.
 Initial command:
 /opt/software/gaussian/g16.c01/l1.exe "/localscratch/bhavuk.2151421.0/Gau-19927.inp" -scrdir="/localscratch/bhavuk.2151421.0/"
 Entering Link 1 = /opt/software/gaussian/g16.c01/l1.exe PID=     20408.
  
 Copyright (c) 1988-2019, Gaussian, Inc.  All Rights Reserved.
  
 This is part of the Gaussian(R) 16 program.  It is based on
 the Gaussian(R) 09 system (copyright 2009, Gaussian, Inc.),
 the Gaussian(R) 03 system (copyright 2003, Gaussian, Inc.),
 the Gaussian(R) 98 system (copyright 1998, Gaussian, Inc.),
 the Gaussian(R) 94 system (copyright 1995, Gaussian, Inc.),
 the Gaussian 92(TM) system (copyright 1992, Gaussian, Inc.),
 the Gaussian 90(TM) system (copyright 1990, Gaussian, Inc.),
 the Gaussian 88(TM) system (copyright 1988, Gaussian, Inc.),
 the Gaussian 86(TM) system (copyright 1986, Carnegie Mellon
 University), and the Gaussian 82(TM) system (copyright 1983,
 Carnegie Mellon University). Gaussian is a federally registered
 trademark of Gaussian, Inc.
  
 This software contains proprietary and confidential information,
 including trade secrets, belonging to Gaussian, Inc.
  
 This software is provided under written license and may be
 used, copied, transmitted, or stored only in accord with that
 written license.
  
 The following legend is applicable only to US Government
 contracts under FAR:
  
                    RESTRICTED RIGHTS LEGEND
  
 Use, reproduction and disclosure by the US Government is
 subject to restrictions as set forth in subparagraphs (a)
 and (c) of the Commercial Computer Software - Restricted
 Rights clause in FAR 52.227-19.
  
 Gaussian, Inc.
 340 Quinnipiac St., Bldg. 40, Wallingford CT 06492
  
  
 ---------------------------------------------------------------
 Warning -- This program may not be used in any manner that
 competes with the business of Gaussian, Inc. or will provide
 assistance to any competitor of Gaussian, Inc.  The licensee
 of this program is prohibited from giving any competitor of
 Gaussian, Inc. access to this program.  By using this program,
 the user acknowledges that Gaussian, Inc. is engaged in the
 business of creating and licensing software in the field of
 computational chemistry and represents and warrants to the
 licensee that it is not a competitor of Gaussian, Inc. and that
 it will not use this program in any manner prohibited above.
 ---------------------------------------------------------------
  

 Cite this work as:
 Gaussian 16, Revision C.01,
 M. J. Frisch, G. W. Trucks, H. B. Schlegel, G. E. Scuseria, 
 M. A. Robb, J. R. Cheeseman, G. Scalmani, V. Barone, 
 G. A. Petersson, H. Nakatsuji, X. Li, M. Caricato, A. V. Marenich, 
 J. Bloino, B. G. Janesko, R. Gomperts, B. Mennucci, H. P. Hratchian, 
 J. V. Ortiz, A. F. Izmaylov, J. L. Sonnenberg, D. Williams-Young, 
 F. Ding, F. Lipparini, F. Egidi, J. Goings, B. Peng, A. Petrone, 
 T. Henderson, D. Ranasinghe, V. G. Zakrzewski, J. Gao, N. Rega, 
 G. Zheng, W. Liang, M. Hada, M. Ehara, K. Toyota, R. Fukuda, 
 J. Hasegawa, M. Ishida, T. Nakajima, Y. Honda, O. Kitao, H. Nakai, 
 T. Vreven, K. Throssell, J. A. Montgomery, Jr., J. E. Peralta, 
 F. Ogliaro, M. J. Bearpark, J. J. Heyd, E. N. Brothers, K. N. Kudin, 
 V. N. Staroverov, T. A. Keith, R. Kobayashi, J. Normand, 
 K. Raghavachari, A. P. Rendell, J. C. Burant, S. S. Iyengar, 
 J. Tomasi, M. Cossi, J. M. Millam, M. Klene, C. Adamo, R. Cammi, 
 J. W. Ochterski, R. L. Martin, K. Morokuma, O. Farkas, 
 J. B. Foresman, and D. J. Fox, Gaussian, Inc., Wallingford CT, 2019.
 
 ******************************************
 Gaussian 16:  ES64L-G16RevC.01  3-Jul-2019
                 3-Jan-2023 
 ******************************************
 %chk=0005_q000_m01_k00_force_uhf_def2tzvpd.chk
 %nprocshared=2
 Will use up to    2 processors via shared memory.
 %mem=4GB
 ----------------------------------------------------------------------
 #p uhf/chkbasis force guess=read geom=check scf=(maxcycle=900,verytigh
 tlineq,xqc) integral=grid=ultrafine symmetry=None density=current pop=
 (cm5,hlygat,mbs,npa) output=wfx
 ----------------------------------------------------------------------
 1/10=7,29=2,30=1,38=1/1,3;
 2/12=2,15=3,40=1/2;
 3/5=7,6=2,11=2,14=-4,25=1,30=1,67=1,71=1,75=-5,116=2/1,2,3;
 4/5=1/1;
 5/5=2,7=900,8=3,13=1,17=3,38=6/2,8;
 6/7=2,8=2,9=2,10=2,15=8,20=15,22=-1,27=100,28=1,40=-1,79=1/1,2,7;
 7/29=1,30=1/1,2,3,16;
 1/10=7,30=1/3;
 99/6=200/99;
 Leave Link    1 at Tue Jan  3 09:08:05 2023, MaxMem=   536870912 cpu:               0.2 elap:               0.1
 (Enter /opt/software/gaussian/g16.c01/l101.exe)
 ----------------------------------------------------------------------
 0005_q000_m01_k00_opt_uwb97xd_def2svpd/0005_q000_m01_k00_force_uhf_def
 2tzvpd stable-force
 ----------------------------------------------------------------------
 Structure from the checkpoint file:  "0005_q000_m01_k00_force_uhf_def2tzvpd.chk"
 Charge =  0 Multiplicity = 1
 Z-Matrix found in chk file.
 C,0,0.9770245042,-0.0197961728,-0.1008273286
 S,0,2.5880021429,-0.0345660623,-0.126439068
 O,0,3.1712397907,-0.7143116203,-1.3164938758
 H,0,0.5180717789,0.4715880124,0.7588975415
 H,0,0.3708017881,-0.4702041579,-0.8890472689
 Recover connectivity data from disk.
 ITRead=  0  0  0  0  0
 MicOpt= -1 -1 -1 -1 -1
 NAtoms=      5 NQM=        5 NQMF=       0 NMMI=      0 NMMIF=      0
                NMic=       0 NMicF=      0.
                    Isotopes and Nuclear Properties:
 (Nuclear quadrupole moments (NQMom) in fm**2, nuclear magnetic moments (NMagM)
  in nuclear magnetons)

  Atom         1           2           3           4           5
 IAtWgt=          12          32          16           1           1
 AtmWgt=  12.0000000  31.9720718  15.9949146   1.0078250   1.0078250
 NucSpn=           0           0           0           1           1
 AtZEff=   3.6000000  13.6000000   5.6000000   1.0000000   1.0000000
 NQMom=    0.0000000   0.0000000   0.0000000   0.0000000   0.0000000
 NMagM=    0.0000000   0.0000000   0.0000000   2.7928460   2.7928460
 AtZNuc=   6.0000000  16.0000000   8.0000000   1.0000000   1.0000000
 Leave Link  101 at Tue Jan  3 09:08:06 2023, MaxMem=   536870912 cpu:               0.4 elap:               0.2
 (Enter /opt/software/gaussian/g16.c01/l103.exe)

 GradGradGradGradGradGradGradGradGradGradGradGradGradGradGradGradGradGrad
 Berny optimization.
 Initialization pass.
 Trust Radius=3.00D-01 FncErr=1.00D-07 GrdErr=1.00D-07 EigMax=2.50D+02 EigMin=1.00D-04
 Number of steps in this run=      2 maximum allowed number of steps=      2.
 GradGradGradGradGradGradGradGradGradGradGradGradGradGradGradGradGradGrad

 Leave Link  103 at Tue Jan  3 09:08:06 2023, MaxMem=   536870912 cpu:               0.0 elap:               0.0
 (Enter /opt/software/gaussian/g16.c01/l202.exe)
                          Input orientation:                          
 ---------------------------------------------------------------------
 Center     Atomic      Atomic             Coordinates (Angstroms)
 Number     Number       Type             X           Y           Z
 ---------------------------------------------------------------------
      1          6           0        0.977025   -0.019796   -0.100827
      2         16           0        2.588002   -0.034566   -0.126439
      3          8           0        3.171240   -0.714312   -1.316494
      4          1           0        0.518072    0.471588    0.758898
      5          1           0        0.370802   -0.470204   -0.889047
 ---------------------------------------------------------------------
                    Distance matrix (angstroms):
                    1          2          3          4          5
     1  C    0.000000
     2  S    1.611249   0.000000
     3  O    2.602840   1.489446   0.000000
     4  H    1.091432   2.307515   3.571121   0.000000
     5  H    1.091634   2.384812   2.843370   1.903781   0.000000
 Symmetry turned off by external request.
 Stoichiometry    CH2OS
 Rotational constants (GHZ):          39.0370487           9.3459813           7.5406507
 Leave Link  202 at Tue Jan  3 09:08:06 2023, MaxMem=   536870912 cpu:               0.0 elap:               0.0
 (Enter /opt/software/gaussian/g16.c01/l301.exe)
 Basis read from chk: "0005_q000_m01_k00_force_uhf_def2tzvpd.chk" (5D, 7F)
 No pseudopotential information found on chk file.
   141 basis functions,   220 primitive gaussians,   159 cartesian basis functions
    16 alpha electrons       16 beta electrons
       nuclear repulsion energy       102.7536228800 Hartrees.
 IExCor=    0 DFT=F Ex=HF Corr=None ExCW=0 ScaHFX=  1.000000
 ScaDFX=  1.000000  1.000000  1.000000  1.000000 ScalE2=  1.000000  1.000000
 IRadAn=      5 IRanWt=     -1 IRanGd=            0 ICorTp=0 IEmpDi=  4
 NAtoms=    5 NActive=    5 NUniq=    5 SFac= 1.00D+00 NAtFMM=   60 NAOKFM=F Big=F
 Integral buffers will be    131072 words long.
 Raffenetti 2 integral format.
 Two-electron integral symmetry is turned off.
 No density basis found on file  20724.
 Leave Link  301 at Tue Jan  3 09:08:06 2023, MaxMem=   536870912 cpu:               0.1 elap:               0.1
 (Enter /opt/software/gaussian/g16.c01/l302.exe)
 NPDir=0 NMtPBC=     1 NCelOv=     1 NCel=       1 NClECP=     1 NCelD=      1
[...]
    19    C    1  dxz    Ryd( 4d)     0.00220       1.46066
    20    C    1  dxz    Ryd( 3d)     0.00008       0.82204
    21    C    1  dxz    Ryd( 5d)     0.00006       3.31014
    22    C    1  dyz    Ryd( 4d)     0.00124       1.22874
    23    C    1  dyz    Ryd( 3d)     0.00009       0.84514
    24    C    1  dyz    Ryd( 5d)     0.00001       3.27961
    25    C    1  dx2y2  Ryd( 4d)     0.00332       1.57774
    26    C    1  dx2y2  Ryd( 3d)     0.00019       0.74715
    27    C    1  dx2y2  Ryd( 5d)     0.00001       3.28118
    28    C    1  dz2    Ryd( 4d)     0.00268       1.31166
    29    C    1  dz2    Ryd( 3d)     0.00001       0.81437
    30    C    1  dz2    Ryd( 5d)     0.00000       3.21869
    31    C    1  f(0)   Ryd( 4f)     0.00002       3.39594
    32    C    1  f(C1)  Ryd( 4f)     0.00011       3.83631
    33    C    1  f(S1)  Ryd( 4f)     0.00010       3.49946
    34    C    1  f(C2)  Ryd( 4f)     0.00004       3.51102
    35    C    1  f(S2)  Ryd( 4f)     0.00014       3.65627
    36    C    1  f(C3)  Ryd( 4f)     0.00005       3.82111
    37    C    1  f(S3)  Ryd( 4f)     0.00009       3.53084
 
    38    S    2  S      Cor( 1S)     1.00000     -90.66248
    39    S    2  S      Cor( 2S)     0.99960     -10.23656
    40    S    2  S      Val( 3S)     0.75586      -0.75748
    41    S    2  S      Ryd( 5S)     0.01583       0.91474
    42    S    2  S      Ryd( 4S)     0.00015       0.58701
    43    S    2  S      Ryd( 6S)     0.00001      20.13427
    44    S    2  px     Cor( 2p)     0.99987      -6.73101
    45    S    2  px     Val( 3p)     0.47556      -0.14361
    46    S    2  px     Ryd( 5p)     0.00229       1.34820
    47    S    2  px     Ryd( 6p)     0.00013       1.97896
    48    S    2  px     Ryd( 4p)     0.00008       0.46935
    49    S    2  px     Ryd( 7p)     0.00000       8.65790
    50    S    2  py     Cor( 2p)     0.99985      -6.73022
    51    S    2  py     Val( 3p)     0.42765      -0.15804
    52    S    2  py     Ryd( 5p)     0.00116       1.03216
    53    S    2  py     Ryd( 6p)     0.00005       2.07051
    54    S    2  py     Ryd( 4p)     0.00005       0.39561
    55    S    2  py     Ryd( 7p)     0.00000       9.03773
    56    S    2  pz     Cor( 2p)     0.99991      -6.73236
    57    S    2  pz     Val( 3p)     0.48892      -0.16380
    58    S    2  pz     Ryd( 5p)     0.00295       1.16351
    59    S    2  pz     Ryd( 6p)     0.00012       2.15568
    60    S    2  pz     Ryd( 4p)     0.00004       0.46213
    61    S    2  pz     Ryd( 7p)     0.00000       9.10104
    62    S    2  dxy    Ryd( 4d)     0.01073       0.91789
    63    S    2  dxy    Ryd( 3d)     0.00017       0.86611
    64    S    2  dxy    Ryd( 5d)     0.00001       1.54682
    65    S    2  dxz    Ryd( 3d)     0.00899       1.03830
    66    S    2  dxz    Ryd( 4d)     0.00028       1.05622
    67    S    2  dxz    Ryd( 5d)     0.00003       1.69989
    68    S    2  dyz    Ryd( 3d)     0.00624       0.89812
    69    S    2  dyz    Ryd( 4d)     0.00035       0.98593
    70    S    2  dyz    Ryd( 5d)     0.00002       1.58857
    71    S    2  dx2y2  Ryd( 4d)     0.01175       1.14947
    72    S    2  dx2y2  Ryd( 3d)     0.00011       1.07414
    73    S    2  dx2y2  Ryd( 5d)     0.00004       1.78215
    74    S    2  dz2    Ryd( 3d)     0.01320       1.00837
    75    S    2  dz2    Ryd( 4d)     0.00018       1.03172
    76    S    2  dz2    Ryd( 5d)     0.00002       1.66508
    77    S    2  f(0)   Ryd( 4f)     0.00025       2.58965
    78    S    2  f(C1)  Ryd( 4f)     0.00024       2.63782
    79    S    2  f(S1)  Ryd( 4f)     0.00014       2.41310
    80    S    2  f(C2)  Ryd( 4f)     0.00022       2.64944
    81    S    2  f(S2)  Ryd( 4f)     0.00011       2.47525
    82    S    2  f(C3)  Ryd( 4f)     0.00026       2.59255
    83    S    2  f(S3)  Ryd( 4f)     0.00016       2.52757
 
    84    O    3  S      Cor( 1S)     0.99994     -20.35551
    85    O    3  S      Val( 2S)     0.90819      -1.21027
    86    O    3  S      Ryd( 3S)     0.00135       0.38922
    87    O    3  S      Ryd( 4S)     0.00015       2.51154
    88    O    3  S      Ryd( 5S)     0.00001       4.26332
    89    O    3  S      Ryd( 6S)     0.00000      44.32356
    90    O    3  px     Val( 2p)     0.90772      -0.43470
    91    O    3  px     Ryd( 4p)     0.00107       0.94572
    92    O    3  px     Ryd( 3p)     0.00007       0.53937
    93    O    3  px     Ryd( 5p)     0.00002       3.30049
    94    O    3  py     Val( 2p)     0.73648      -0.31534
    95    O    3  py     Ryd( 4p)     0.00158       0.87989
    96    O    3  py     Ryd( 3p)     0.00011       0.49530
    97    O    3  py     Ryd( 5p)     0.00002       3.25389
    98    O    3  pz     Val( 2p)     0.76138      -0.37488
    99    O    3  pz     Ryd( 4p)     0.00072       0.93407
   100    O    3  pz     Ryd( 3p)     0.00014       0.55056
   101    O    3  pz     Ryd( 5p)     0.00004       3.61210
   102    O    3  dxy    Ryd( 4d)     0.00208       1.65062
   103    O    3  dxy    Ryd( 3d)     0.00000       1.07563
   104    O    3  dxy    Ryd( 5d)     0.00000       6.95615
   105    O    3  dxz    Ryd( 4d)     0.00487       1.76335
   106    O    3  dxz    Ryd( 3d)     0.00001       1.09088
   107    O    3  dxz    Ryd( 5d)     0.00001       6.99920
   108    O    3  dyz    Ryd( 4d)     0.00531       1.80884
   109    O    3  dyz    Ryd( 3d)     0.00002       1.05003
   110    O    3  dyz    Ryd( 5d)     0.00001       7.00977
   111    O    3  dx2y2  Ryd( 4d)     0.00199       1.67011
   112    O    3  dx2y2  Ryd( 3d)     0.00002       1.09724
   113    O    3  dx2y2  Ryd( 5d)     0.00001       6.96476
   114    O    3  dz2    Ryd( 4d)     0.00570       1.83962
   115    O    3  dz2    Ryd( 3d)     0.00003       1.04658
   116    O    3  dz2    Ryd( 5d)     0.00001       7.01554
   117    O    3  f(0)   Ryd( 4f)     0.00007       5.80781
   118    O    3  f(C1)  Ryd( 4f)     0.00007       5.84810
   119    O    3  f(S1)  Ryd( 4f)     0.00008       5.88997
   120    O    3  f(C2)  Ryd( 4f)     0.00006       5.77914
   121    O    3  f(S2)  Ryd( 4f)     0.00008       5.84661
   122    O    3  f(C3)  Ryd( 4f)     0.00001       5.65913
   123    O    3  f(S3)  Ryd( 4f)     0.00001       5.65655
 
   124    H    4  S      Val( 1S)     0.37700       0.03825
   125    H    4  S      Ryd( 3S)     0.00027       1.50106
   126    H    4  S      Ryd( 2S)     0.00003       1.48968
   127    H    4  px     Ryd( 2p)     0.00034       0.60295
   128    H    4  px     Ryd( 3p)     0.00004       2.49264
   129    H    4  py     Ryd( 2p)     0.00066       0.47209
   130    H    4  py     Ryd( 3p)     0.00004       2.40170
   131    H    4  pz     Ryd( 2p)     0.00048       0.56054
   132    H    4  pz     Ryd( 3p)     0.00007       2.78392
 
   133    H    5  S      Val( 1S)     0.37189       0.05455
   134    H    5  S      Ryd( 3S)     0.00051       1.64376
   135    H    5  S      Ryd( 2S)     0.00004       1.27739
   136    H    5  px     Ryd( 2p)     0.00028       0.67471
   137    H    5  px     Ryd( 3p)     0.00003       2.57522
   138    H    5  py     Ryd( 2p)     0.00022       0.51707
   139    H    5  py     Ryd( 3p)     0.00004       2.38884
   140    H    5  pz     Ryd( 2p)     0.00041       0.64014
   141    H    5  pz     Ryd( 3p)     0.00007       2.68912

 WARNING:  Population inversion found on atom  C    1
           Population inversion found on atom  S    2
           Population inversion found on atom  O    3
           Population inversion found on atom  H    4
           Population inversion found on atom  H    5


 Summary of Natural Population Analysis:                  
                                                          
                                       Natural Population 
                Natural  -----------------------------------------------
    Atom  No    Charge         Core      Valence    Rydberg      Total
 -----------------------------------------------------------------------
      C    1   -0.68453      0.99979     2.66625    0.01849     3.68453
      S    2    0.77642      4.99923     2.14800    0.07635     7.22358
      O    3   -0.33945      0.99994     3.31377    0.02574     4.33945
      H    4    0.12106      0.00000     0.37700    0.00195     0.37894
      H    5    0.12650      0.00000     0.37189    0.00160     0.37350
 =======================================================================
   * Total *    0.00000      6.99896     8.87691    0.12413    16.00000

                                 Natural Population      
 --------------------------------------------------------
   Core                       6.99896 ( 99.9852% of   7)
   Valence                    8.87691 ( 98.6323% of   9)
   Natural Minimal Basis     15.87587 ( 99.2242% of  16)
   Natural Rydberg Basis      0.12413 (  0.7758% of  16)
 --------------------------------------------------------

    Atom  No          Natural Electron Configuration
 ----------------------------------------------------------------------------
      C    1      [core]2S( 0.63)2p( 2.03)4d( 0.01)
      S    2      [core]3S( 0.76)3p( 1.39)3d( 0.03)5S( 0.02)4d( 0.02)5p( 0.01)
      O    3      [core]2S( 0.91)2p( 2.41)4d( 0.02)
      H    4            1S( 0.38)
      H    5            1S( 0.37)


 NBO analysis skipped by request.
 Leave Link  607 at Tue Jan  3 09:08:11 2023, MaxMem=   536870912 cpu:               3.7 elap:               1.9
 (Enter /opt/software/gaussian/g16.c01/l701.exe)
 ... and contract with generalized density number  0.
 Compute integral first derivatives.
 Leave Link  701 at Tue Jan  3 09:08:12 2023, MaxMem=   536870912 cpu:               0.3 elap:               0.2
 (Enter /opt/software/gaussian/g16.c01/l702.exe)
 L702 exits ... SP integral derivatives will be done elsewhere.
 Leave Link  702 at Tue Jan  3 09:08:12 2023, MaxMem=   536870912 cpu:               0.1 elap:               0.0
 (Enter /opt/software/gaussian/g16.c01/l703.exe)
 Integral derivatives from FoFJK, PRISM(SPDF).
 Compute integral first derivatives, UseDBF=F ICtDFT=           0.
 Calling FoFJK, ICntrl=      2127 FMM=F ISym2X=0 I1Cent= 0 IOpClX= 1 NMat=1 NMatS=1 NMatT=0.
 FoFJK:  IHMeth= 1 ICntrl=    2127 DoSepK=F KAlg= 0 I1Cent=           0 FoldK=F
 IRaf=         0 NMat=       1 IRICut=       1 DoRegI=T DoRafI=F ISym2E= 0 IDoP0=0 IntGTp=1.
 FoFCou: FMM=F IPFlag=           0 FMFlag=      100000 FMFlg1=         800
         NFxFlg=           0 DoJE=F BraDBF=F KetDBF=F FulRan=T
         wScrn=  0.000000 ICntrl=      2127 IOpCl=  1 I1Cent=           0 NGrid=           0
         NMat0=    1 NMatS0=      1 NMatT0=    0 NMatD0=    1 NMtDS0=    0 NMtDT0=    0
 Symmetry not used in FoFCou.
 Leave Link  703 at Tue Jan  3 09:08:17 2023, MaxMem=   536870912 cpu:              10.2 elap:               5.1
 (Enter /opt/software/gaussian/g16.c01/l716.exe)
 Dipole        =-1.11926666D+00 4.67619605D-01 8.18559855D-01
 -------------------------------------------------------------------
 Center     Atomic                   Forces (Hartrees/Bohr)
 Number     Number              X              Y              Z
 -------------------------------------------------------------------
      1        6          -0.022052436   -0.001790110   -0.003135304
      2       16           0.034723106   -0.020582161   -0.036053405
      3        8          -0.024063231    0.022588792    0.039562396
      4        1           0.004866241   -0.006025752   -0.010529772
      5        1           0.006526320    0.005809232    0.010156085
 -------------------------------------------------------------------
 Cartesian Forces:  Max     0.039562396 RMS     0.020709643
 Z-matrix is all fixed cartesians, so copy forces.
 Force constants in Cartesian coordinates: 
                1             2             3             4             5 
      1  0.829676D+00
      2  0.511240D-02  0.243810D+00
      3  0.905768D-02  0.234956D+00  0.520669D+00
      4 -0.491409D+00 -0.959762D-02 -0.168745D-01  0.641682D+00
      5  0.287596D-02 -0.491361D-01 -0.278604D-01 -0.128355D+00  0.207963D+00
      6  0.496707D-02 -0.278624D-01 -0.819862D-01 -0.224638D+00  0.320470D+00
      7  0.492524D-03  0.133103D-01  0.233039D-01 -0.150309D+00  0.124519D+00
      8  0.104201D-03  0.602149D-02  0.308174D-02  0.137725D+00 -0.180658D+00
      9  0.181864D-03  0.308386D-02  0.966084D-02  0.241117D+00 -0.294338D+00
     10 -0.151987D+00  0.492920D-01  0.862296D-01  0.424157D-03  0.114682D-01
     11  0.447359D-01 -0.101753D+00 -0.113561D+00  0.975664D-04  0.365001D-02
     12  0.782568D-01 -0.113560D+00 -0.235538D+00  0.170666D-03  0.403592D-02
     13 -0.186773D+00 -0.581171D-01 -0.101717D+00 -0.388712D-03 -0.105080D-01
     14 -0.528284D-01 -0.989424D-01 -0.966159D-01  0.130067D-03  0.181809D-01
     15 -0.924634D-01 -0.966168D-01 -0.212806D+00  0.224637D-03 -0.230723D-02
                6             7             8             9            10 
      6  0.585965D+00
      7  0.217995D+00  0.149816D+00
      8 -0.294336D+00 -0.137829D+00  0.174946D+00
      9 -0.527847D+00 -0.241299D+00  0.291077D+00  0.518287D+00
     10  0.200660D-01  0.000000D+00  0.000000D+00  0.000000D+00  0.123189D+00
     11  0.403202D-02  0.000000D+00  0.453529D-02 -0.259031D-02 -0.513576D-01
     12  0.840740D-02  0.000000D+00 -0.259199D-02  0.148040D-02 -0.898457D-01
     13 -0.183902D-01  0.000000D+00  0.000000D+00  0.000000D+00  0.283742D-01
     14 -0.230345D-02  0.000000D+00 -0.484560D-02  0.276754D-02 -0.940299D-02
     15  0.154602D-01  0.000000D+00  0.276920D-02 -0.158162D-02 -0.164496D-01
               11            12            13            14            15 
     11  0.877574D-01
     12  0.120457D+00  0.229666D+00
     13  0.652373D-02  0.114185D-01  0.158787D+00
     14  0.581069D-02 -0.834082D-02  0.621018D-01  0.797964D-01
     15 -0.833779D-02 -0.401584D-02  0.108688D+00  0.104493D+00  0.202943D+00
 Leave Link  716 at Tue Jan  3 09:08:17 2023, MaxMem=   536870912 cpu:               0.1 elap:               0.0
 (Enter /opt/software/gaussian/g16.c01/l103.exe)

 GradGradGradGradGradGradGradGradGradGradGradGradGradGradGradGradGradGrad
 Berny optimization.
 Search for a local minimum.
 Step number   1 out of a maximum of    2
 All quantities printed in internal units (Hartrees-Bohrs-Radians)
 Second derivative matrix not updated -- first step.
 The second derivative matrix:
                          X1        Y1        Z1        X2        Y2
           X1           0.82968
           Y1           0.00511   0.24381
           Z1           0.00906   0.23496   0.52067
           X2          -0.49141  -0.00960  -0.01687   0.64168
           Y2           0.00288  -0.04914  -0.02786  -0.12836   0.20796
           Z2           0.00497  -0.02786  -0.08199  -0.22464   0.32047
           X3           0.00049   0.01331   0.02330  -0.15031   0.12452
           Y3           0.00010   0.00602   0.00308   0.13773  -0.18066
           Z3           0.00018   0.00308   0.00966   0.24112  -0.29434
           X4          -0.15199   0.04929   0.08623   0.00042   0.01147
           Y4           0.04474  -0.10175  -0.11356   0.00010   0.00365
           Z4           0.07826  -0.11356  -0.23554   0.00017   0.00404
           X5          -0.18677  -0.05812  -0.10172  -0.00039  -0.01051
           Y5          -0.05283  -0.09894  -0.09662   0.00013   0.01818
           Z5          -0.09246  -0.09662  -0.21281   0.00022  -0.00231
                          Z2        X3        Y3        Z3        X4
           Z2           0.58597
           X3           0.21800   0.14982
           Y3          -0.29434  -0.13783   0.17495
           Z3          -0.52785  -0.24130   0.29108   0.51829
           X4           0.02007   0.00000   0.00000  -0.00000   0.12319
           Y4           0.00403   0.00000   0.00454  -0.00259  -0.05136
           Z4           0.00841  -0.00000  -0.00259   0.00148  -0.08985
           X5          -0.01839  -0.00000  -0.00000   0.00000   0.02837
           Y5          -0.00230  -0.00000  -0.00485   0.00277  -0.00940
           Z5           0.01546   0.00000   0.00277  -0.00158  -0.01645
                          Y4        Z4        X5        Y5        Z5
           Y4           0.08776
           Z4           0.12046   0.22967
           X5           0.00652   0.01142   0.15879
           Y5           0.00581  -0.00834   0.06210   0.07980
           Z5          -0.00834  -0.00402   0.10869   0.10449   0.20294
 ITU=  0
     Eigenvalues ---    0.02243   0.03701   0.09811   0.12281   0.16471
     Eigenvalues ---    0.34496   0.86201   1.16715   1.68793
 Angle between quadratic step and forces=  60.77 degrees.
 Linear search not attempted -- first point.
 B after Tr=    -0.001728    0.009800    0.017140
         Rot=    0.999999    0.000050   -0.001398    0.000779 Ang=   0.18 deg.
 Variable       Old X    -DE/DX   Delta X   Delta X   Delta X     New X
                                 (Linear)    (Quad)   (Total)
    X1        1.84631  -0.02205   0.00000   0.01461   0.01221   1.85851
    Y1       -0.03741  -0.00179   0.00000  -0.01215  -0.00527  -0.04268
    Z1       -0.19054  -0.00314   0.00000  -0.02128  -0.00934  -0.19988
    X2        4.89062   0.03472   0.00000   0.03683   0.03434   4.92495
    Y2       -0.06532  -0.02058   0.00000   0.00570   0.00780  -0.05752
    Z2       -0.23894  -0.03605   0.00000   0.00966   0.01303  -0.22591
    X3        5.99277  -0.02406   0.00000  -0.08294  -0.09366   5.89911
    Y3       -1.34985   0.02259   0.00000   0.01461   0.01496  -1.33490
    Z3       -2.48781   0.03956   0.00000   0.02592   0.02668  -2.46113
    X4        0.97901   0.00487   0.00000   0.00582   0.00926   0.98827
    Y4        0.89117  -0.00603   0.00000  -0.03516  -0.02676   0.86441
    Z4        1.43411  -0.01053   0.00000  -0.06065  -0.04636   1.38775
    X5        0.70071   0.00653   0.00000   0.04567   0.03786   0.73857
    Y5       -0.88856   0.00581   0.00000   0.00080   0.00928  -0.87928
    Z5       -1.68006   0.01016   0.00000   0.00085   0.01600  -1.66406
         Item               Value     Threshold  Converged?
 Maximum Force            0.039562     0.000450     NO 
 RMS     Force            0.020710     0.000300     NO 
 Maximum Displacement     0.093664     0.001800     NO 
 RMS     Displacement     0.032771     0.001200     NO 
 Predicted change in Energy=-2.560281D-03
 GradGradGradGradGradGradGradGradGradGradGradGradGradGradGradGradGradGrad

 Leave Link  103 at Tue Jan  3 09:08:17 2023, MaxMem=   536870912 cpu:               0.0 elap:               0.0
 (Enter /opt/software/gaussian/g16.c01/l9999.exe)
 Unable to Open any file for archive entry.
 1\1\GINC-GRA607\Force\UHF\Gen\C1H2O1S1\BHAVUK\03-Jan-2023\0\\#p uhf/ch
 kbasis force guess=read geom=check scf=(maxcycle=900,verytightlineq,xq
 c) integral=grid=ultrafine symmetry=None density=current pop=(cm5,hlyg
 at,mbs,npa) output=wfx\\0005_q000_m01_k00_opt_uwb97xd_def2svpd/0005_q0
 00_m01_k00_force_uhf_def2tzvpd stable-force\\0,1\C,0.9770245042,-0.019
 7961728,-0.1008273286\S,2.5880021429,-0.0345660623,-0.126439068\O,3.17
 12397907,-0.7143116203,-1.3164938758\H,0.5180717789,0.4715880124,0.758
 8975415\H,0.3708017881,-0.4702041579,-0.8890472689\\Version=ES64L-G16R
 evC.01\HF=-511.4245761\S2=0.433326\S2-1=0.\S2A=0.043469\RMSD=2.014e-09
 \RMSF=2.071e-02\Dipole=-1.1192667,0.4676196,0.8185599\Quadrupole=-4.56
 44842,2.9679064,1.5965778,3.0125778,5.4137274,-1.0472042\PG=Unknown\\@
 The archive entry for this job was punched.

 Writing a WFNX file to "0005_q000_m01_k00_force_uhf_def2tzvpd.wfx"


 HE THAT RISETH LATE MUST TROT ALL DAY.

                  -- BENJAMIN FRANKLIN
 Job cpu time:       0 days  0 hours  0 minutes 23.2 seconds.
 Elapsed time:       0 days  0 hours  0 minutes 11.3 seconds.
 File lengths (MBytes):  RWF=     16 Int=      0 D2E=      0 Chk=      4 Scr=      1
 Normal termination of Gaussian 16 at Tue Jan  3 09:08:17 2023.
