 Entering Gaussian System, Link 0=g16
 Input=0005_q000_m01_k00_force_ub3lyp_def2tzvpd.com
 Output=0005_q000_m01_k00_force_ub3lyp_def2tzvpd.log
 Initial command:
 /opt/software/gaussian/g16.c01/l1.exe "/localscratch/bhavuk.2151415.0/Gau-19622.inp" -scrdir="/localscratch/bhavuk.2151415.0/"
 Entering Link 1 = /opt/software/gaussian/g16.c01/l1.exe PID=     19624.
  
 Copyright (c) 1988-2019, Gaussian, Inc.  All Rights Reserved.
  
 This is part of the Gaussian(R) 16 program.  It is based on
 the Gaussian(R) 09 system (copyright 2009, Gaussian, Inc.),
 the Gaussian(R) 03 system (copyright 2003, Gaussian, Inc.),
 the Gaussian(R) 98 system (copyright 1998, Gaussian, Inc.),
 the Gaussian(R) 94 system (copyright 1995, Gaussian, Inc.),
 the Gaussian 92(TM) system (copyright 1992, Gaussian, Inc.),
 the Gaussian 90(TM) system (copyright 1990, Gaussian, Inc.),
 the Gaussian 88(TM) system (copyright 1988, Gaussian, Inc.),
 the Gaussian 86(TM) system (copyright 1986, Carnegie Mellon
 University), and the Gaussian 82(TM) system (copyright 1983,
 Carnegie Mellon University). Gaussian is a federally registered
 trademark of Gaussian, Inc.
  
 This software contains proprietary and confidential information,
 including trade secrets, belonging to Gaussian, Inc.
  
 This software is provided under written license and may be
 used, copied, transmitted, or stored only in accord with that
 written license.
  
 The following legend is applicable only to US Government
 contracts under FAR:
  
                    RESTRICTED RIGHTS LEGEND
  
 Use, reproduction and disclosure by the US Government is
 subject to restrictions as set forth in subparagraphs (a)
 and (c) of the Commercial Computer Software - Restricted
 Rights clause in FAR 52.227-19.
  
 Gaussian, Inc.
 340 Quinnipiac St., Bldg. 40, Wallingford CT 06492
  
  
 ---------------------------------------------------------------
 Warning -- This program may not be used in any manner that
 competes with the business of Gaussian, Inc. or will provide
 assistance to any competitor of Gaussian, Inc.  The licensee
 of this program is prohibited from giving any competitor of
 Gaussian, Inc. access to this program.  By using this program,
 the user acknowledges that Gaussian, Inc. is engaged in the
 business of creating and licensing software in the field of
 computational chemistry and represents and warrants to the
 licensee that it is not a competitor of Gaussian, Inc. and that
 it will not use this program in any manner prohibited above.
 ---------------------------------------------------------------
  

 Cite this work as:
 Gaussian 16, Revision C.01,
 M. J. Frisch, G. W. Trucks, H. B. Schlegel, G. E. Scuseria, 
 M. A. Robb, J. R. Cheeseman, G. Scalmani, V. Barone, 
 G. A. Petersson, H. Nakatsuji, X. Li, M. Caricato, A. V. Marenich, 
 J. Bloino, B. G. Janesko, R. Gomperts, B. Mennucci, H. P. Hratchian, 
 J. V. Ortiz, A. F. Izmaylov, J. L. Sonnenberg, D. Williams-Young, 
 F. Ding, F. Lipparini, F. Egidi, J. Goings, B. Peng, A. Petrone, 
 T. Henderson, D. Ranasinghe, V. G. Zakrzewski, J. Gao, N. Rega, 
 G. Zheng, W. Liang, M. Hada, M. Ehara, K. Toyota, R. Fukuda, 
 J. Hasegawa, M. Ishida, T. Nakajima, Y. Honda, O. Kitao, H. Nakai, 
 T. Vreven, K. Throssell, J. A. Montgomery, Jr., J. E. Peralta, 
 F. Ogliaro, M. J. Bearpark, J. J. Heyd, E. N. Brothers, K. N. Kudin, 
 V. N. Staroverov, T. A. Keith, R. Kobayashi, J. Normand, 
 K. Raghavachari, A. P. Rendell, J. C. Burant, S. S. Iyengar, 
 J. Tomasi, M. Cossi, J. M. Millam, M. Klene, C. Adamo, R. Cammi, 
 J. W. Ochterski, R. L. Martin, K. Morokuma, O. Farkas, 
 J. B. Foresman, and D. J. Fox, Gaussian, Inc., Wallingford CT, 2019.
 
 ******************************************
 Gaussian 16:  ES64L-G16RevC.01  3-Jul-2019
                 3-Jan-2023 
 ******************************************
 %chk=0005_q000_m01_k00_force_ub3lyp_def2tzvpd.chk
 %nprocshared=2
 Will use up to    2 processors via shared memory.
 %mem=4GB
 ----------------------------------------------------------------------
 #p ub3lyp/gen stable=opt scf=(maxcycle=900,verytightlineq,xqc) integra
 l=grid=ultrafine symmetry=None density=current iop(99/18=-1) output=wf
 n
 ----------------------------------------------------------------------
 1/38=1,172=1/1;
 2/12=2,15=3,17=6,18=5,40=1/2;
 3/5=7,11=2,25=1,30=1,74=-5,75=-5,116=2/1,2,3;
 4//1;
 5/5=2,7=900,8=3,13=1,17=3,38=5/2,8;
 6/7=2,8=2,9=2,10=2,22=-1,28=1/1;
 8/6=1,10=90,11=11/1;
 9/8=-3,42=1,46=1/14;
 5/5=2,7=900,8=3,17=43,38=5/8(-2);
 6/7=2,8=2,9=2,10=2,22=-1,28=1/1;
 99/5=1,6=100,9=1,18=-1/99;
 Leave Link    1 at Tue Jan  3 09:07:18 2023, MaxMem=   536870912 cpu:               0.1 elap:               0.1
 (Enter /opt/software/gaussian/g16.c01/l101.exe)
 ----------------------------------------------------------------------
 0005_q000_m01_k00_opt_uwb97xd_def2svpd/0005_q000_m01_k00_force_ub3lyp_
 def2tzvpd stable-force
 ----------------------------------------------------------------------
 Symbolic Z-matrix:
 Charge =  0 Multiplicity = 1
 C                     0.97702  -0.0198   -0.10083 
 S                     2.588    -0.03457  -0.12644 
 O                     3.17124  -0.71431  -1.31649 
 H                     0.51807   0.47159   0.7589 
 H                     0.3708   -0.4702   -0.88905 
 
 ITRead=  0  0  0  0  0
 MicOpt= -1 -1 -1 -1 -1
 NAtoms=      5 NQM=        5 NQMF=       0 NMMI=      0 NMMIF=      0
                NMic=       0 NMicF=      0.
                    Isotopes and Nuclear Properties:
 (Nuclear quadrupole moments (NQMom) in fm**2, nuclear magnetic moments (NMagM)
  in nuclear magnetons)

  Atom         1           2           3           4           5
 IAtWgt=          12          32          16           1           1
 AtmWgt=  12.0000000  31.9720718  15.9949146   1.0078250   1.0078250
 NucSpn=           0           0           0           1           1
 AtZEff=  -0.0000000  -0.0000000  -0.0000000  -0.0000000  -0.0000000
 NQMom=    0.0000000   0.0000000   0.0000000   0.0000000   0.0000000
 NMagM=    0.0000000   0.0000000   0.0000000   2.7928460   2.7928460
 AtZNuc=   6.0000000  16.0000000   8.0000000   1.0000000   1.0000000
 Leave Link  101 at Tue Jan  3 09:07:19 2023, MaxMem=   536870912 cpu:               0.5 elap:               0.3
 (Enter /opt/software/gaussian/g16.c01/l202.exe)
                          Input orientation:                          
 ---------------------------------------------------------------------
 Center     Atomic      Atomic             Coordinates (Angstroms)
 Number     Number       Type             X           Y           Z
 ---------------------------------------------------------------------
      1          6           0        0.977025   -0.019796   -0.100827
      2         16           0        2.588002   -0.034566   -0.126439
      3          8           0        3.171240   -0.714312   -1.316494
      4          1           0        0.518072    0.471588    0.758898
      5          1           0        0.370802   -0.470204   -0.889047
 ---------------------------------------------------------------------
                    Distance matrix (angstroms):
                    1          2          3          4          5
     1  C    0.000000
     2  S    1.611249   0.000000
     3  O    2.602840   1.489446   0.000000
     4  H    1.091432   2.307515   3.571121   0.000000
     5  H    1.091634   2.384812   2.843370   1.903781   0.000000
 Symmetry turned off by external request.
 Stoichiometry    CH2OS
 Rotational constants (GHZ):          39.0370487           9.3459813           7.5406507
 Leave Link  202 at Tue Jan  3 09:07:19 2023, MaxMem=   536870912 cpu:               0.0 elap:               0.0
 (Enter /opt/software/gaussian/g16.c01/l301.exe)
 General basis read from cards:  (5D, 7F)
 Centers:       4      5
 S 3 1.00
     Exponent=  3.4061341000D+01 Coefficients=  6.0251978000D-03
     Exponent=  5.1235746000D+00 Coefficients=  4.5021094000D-02
     Exponent=  1.1646626000D+00 Coefficients=  2.0189726000D-01
 S 1 1.00
     Exponent=  3.2723041000D-01 Coefficients=  1.0000000000D+00
 S 1 1.00
     Exponent=  1.0307241000D-01 Coefficients=  1.0000000000D+00
 P 1 1.00
     Exponent=  8.0000000000D-01 Coefficients=  1.0000000000D+00
 P 1 1.00
     Exponent=  9.5774129632D-02 Coefficients=  1.0000000000D+00
 ****
 Centers:       1
 S 6 1.00
     Exponent=  1.3575349682D+04 Coefficients=  2.2245814352D-04
     Exponent=  2.0352333680D+03 Coefficients=  1.7232738252D-03
     Exponent=  4.6322562359D+02 Coefficients=  8.9255715314D-03
     Exponent=  1.3120019598D+02 Coefficients=  3.5727984502D-02
     Exponent=  4.2853015891D+01 Coefficients=  1.1076259931D-01
     Exponent=  1.5584185766D+01 Coefficients=  2.4295627626D-01
 S 2 1.00
     Exponent=  6.2067138508D+00 Coefficients=  4.1440263448D-01
     Exponent=  2.5764896527D+00 Coefficients=  2.3744968655D-01
 S 1 1.00
     Exponent=  5.7696339419D-01 Coefficients=  1.0000000000D+00
 S 1 1.00
     Exponent=  2.2972831358D-01 Coefficients=  1.0000000000D+00
 S 1 1.00
     Exponent=  9.5164440028D-02 Coefficients=  1.0000000000D+00
 S 1 1.00
     Exponent=  4.8475401370D-02 Coefficients=  1.0000000000D+00
 P 4 1.00
     Exponent=  3.4697232244D+01 Coefficients=  5.3333657805D-03
     Exponent=  7.9582622826D+00 Coefficients=  3.5864109092D-02
     Exponent=  2.3780826883D+00 Coefficients=  1.4215873329D-01
     Exponent=  8.1433208183D-01 Coefficients=  3.4270471845D-01
 P 1 1.00
     Exponent=  2.8887547253D-01 Coefficients=  4.6445822433D-01
 P 1 1.00
     Exponent=  1.0056823671D-01 Coefficients=  2.4955789874D-01
 D 1 1.00
     Exponent=  1.0970000000D+00 Coefficients=  1.0000000000D+00
 D 1 1.00
     Exponent=  3.1800000000D-01 Coefficients=  1.0000000000D+00
 D 1 1.00
     Exponent=  9.0985336424D-02 Coefficients=  1.0000000000D+00
 F 1 1.00
     Exponent=  7.6100000000D-01 Coefficients=  1.0000000000D+00
 ****
 Centers:       3
 S 6 1.00
     Exponent=  2.7032382631D+04 Coefficients=  2.1726302465D-04
     Exponent=  4.0523871392D+03 Coefficients=  1.6838662199D-03
     Exponent=  9.2232722710D+02 Coefficients=  8.7395616265D-03
     Exponent=  2.6124070989D+02 Coefficients=  3.5239968808D-02
     Exponent=  8.5354641351D+01 Coefficients=  1.1153519115D-01
     Exponent=  3.1035035245D+01 Coefficients=  2.5588953961D-01
 S 2 1.00
     Exponent=  1.2260860728D+01 Coefficients=  3.9768730901D-01
     Exponent=  4.9987076005D+00 Coefficients=  2.4627849430D-01
 S 1 1.00
     Exponent=  1.1703108158D+00 Coefficients=  1.0000000000D+00
 S 1 1.00
     Exponent=  4.6474740994D-01 Coefficients=  1.0000000000D+00
 S 1 1.00
     Exponent=  1.8504536357D-01 Coefficients=  1.0000000000D+00
 S 1 1.00
     Exponent=  7.0288026270D-02 Coefficients=  1.0000000000D+00
 P 4 1.00
     Exponent=  6.3274954801D+01 Coefficients=  6.0685103418D-03
     Exponent=  1.4627049379D+01 Coefficients=  4.1912575824D-02
     Exponent=  4.4501223456D+00 Coefficients=  1.6153841088D-01
     Exponent=  1.5275799647D+00 Coefficients=  3.5706951311D-01
 P 1 1.00
     Exponent=  5.2935117943D-01 Coefficients=  4.4794207502D-01
 P 1 1.00
     Exponent=  1.7478421270D-01 Coefficients=  2.4446069663D-01
 P 1 1.00
     Exponent=  5.1112745706D-02 Coefficients=  1.0000000000D+00
 D 1 1.00
     Exponent=  2.3140000000D+00 Coefficients=  1.0000000000D+00
 D 1 1.00
     Exponent=  6.4500000000D-01 Coefficients=  1.0000000000D+00
 D 1 1.00
     Exponent=  1.4696477366D-01 Coefficients=  1.0000000000D+00
 F 1 1.00
     Exponent=  1.4280000000D+00 Coefficients=  1.0000000000D+00
 ****
 Centers:       2
 S 7 1.00
     Exponent=  6.0700928104D+04 Coefficients=  5.4695944225D-04
     Exponent=  9.1026106854D+03 Coefficients=  4.2297224557D-03
     Exponent=  2.0714166009D+03 Coefficients=  2.1747824159D-02
     Exponent=  5.8602476821D+02 Coefficients=  8.5100053589D-02
     Exponent=  1.9055395021D+02 Coefficients=  2.4799128459D-01
     Exponent=  6.7630384260D+01 Coefficients=  4.6703640406D-01
     Exponent=  2.5127306905D+01 Coefficients=  3.6434587550D-01
 S 3 1.00
     Exponent=  1.1257463010D+02 Coefficients=  2.1670040240D-02
     Exponent=  3.4795554217D+01 Coefficients=  9.3602301760D-02
     Exponent=  6.5115556215D+00 Coefficients= -2.6068001422D-01
 S 2 1.00
     Exponent=  3.2399032261D+00 Coefficients=  1.2842089435D+00
     Exponent=  1.5477160881D+00 Coefficients=  6.6036416584D-01
 S 1 1.00
     Exponent=  4.0541030112D-01 Coefficients=  1.0000000000D+00
 S 1 1.00
     Exponent=  1.4550651059D-01 Coefficients=  1.0000000000D+00
 S 1 1.00
     Exponent=  5.0178839540D-02 Coefficients=  1.0000000000D+00
 P 5 1.00
     Exponent=  5.6436716027D+02 Coefficients=  2.4796796317D-03
     Exponent=  1.3342624379D+02 Coefficients=  1.9677930250D-02
     Exponent=  4.2468271189D+01 Coefficients=  8.9980008258D-02
     Exponent=  1.5616527580D+01 Coefficients=  2.5705880575D-01
     Exponent=  6.1093988469D+00 Coefficients=  4.3515167292D-01
 P 1 1.00
     Exponent=  2.4404160198D+00 Coefficients=  3.4883240595D-01
 P 1 1.00
     Exponent=  8.3882201296D-01 Coefficients=  1.0000000000D+00
 P 1 1.00
     Exponent=  3.1288746900D-01 Coefficients=  1.0000000000D+00
 P 1 1.00
     Exponent=  1.0770109004D-01 Coefficients=  1.0000000000D+00
 P 1 1.00
     Exponent=  3.0359833649D-02 Coefficients=  1.0000000000D+00
 D 2 1.00
     Exponent=  3.7560000000D+00 Coefficients=  2.0000000000D-01
     Exponent=  8.1200000000D-01 Coefficients=  1.0000000000D+00
 D 1 1.00
     Exponent=  2.7300000000D-01 Coefficients=  1.0000000000D+00
 D 1 1.00
     Exponent=  8.1547024970D-02 Coefficients=  1.0000000000D+00
 F 1 1.00
     Exponent=  5.5700000000D-01 Coefficients=  1.0000000000D+00
 ****
 Ernie: Thresh=  0.10000D-02 Tol=  0.10000D-05 Strict=F.
   141 basis functions,   220 primitive gaussians,   159 cartesian basis functions
    16 alpha electrons       16 beta electrons
       nuclear repulsion energy       102.7536228800 Hartrees.
 IExCor=  402 DFT=T Ex+Corr=B3LYP ExCW=0 ScaHFX=  0.200000
 ScaDFX=  0.800000  0.720000  1.000000  0.810000 ScalE2=  1.000000  1.000000
 IRadAn=      5 IRanWt=     -1 IRanGd=            0 ICorTp=0 IEmpDi=  4
 NAtoms=    5 NActive=    5 NUniq=    5 SFac= 1.00D+00 NAtFMM=   60 NAOKFM=F Big=F
 Integral buffers will be    131072 words long.
 Raffenetti 2 integral format.
 Two-electron integral symmetry is turned off.
 Leave Link  301 at Tue Jan  3 09:07:19 2023, MaxMem=   536870912 cpu:               0.2 elap:               0.1
 (Enter /opt/software/gaussian/g16.c01/l302.exe)
 NPDir=0 NMtPBC=     1 NCelOv=     1 NCel=       1 NClECP=     1 NCelD=      1
         NCelK=      1 NCelE2=     1 NClLst=     1 CellRange=     0.0.
 One-electron integrals computed using PRISM.
 NBasis=   141 RedAO= T EigKep=  5.73D-05  NBF=   141
 NBsUse=   141 1.00D-06 EigRej= -1.00D+00 NBFU=   141
 Precomputing XC quadrature grid using
 IXCGrd= 4 IRadAn=           5 IRanWt=          -1 IRanGd=           0 AccXCQ= 0.00D+00.
 Generated NRdTot=       0 NPtTot=           0 NUsed=           0 NTot=          32
 NSgBfM=   158   158   158   158   158 MxSgAt=     5 MxSgA2=     5.
 Leave Link  302 at Tue Jan  3 09:07:20 2023, MaxMem=   536870912 cpu:               0.4 elap:               0.2
 (Enter /opt/software/gaussian/g16.c01/l303.exe)
 DipDrv:  MaxL=1.
 Leave Link  303 at Tue Jan  3 09:07:20 2023, MaxMem=   536870912 cpu:               0.1 elap:               0.1
 (Enter /opt/software/gaussian/g16.c01/l401.exe)
 ExpMin= 3.04D-02 ExpMax= 6.07D+04 ExpMxC= 2.07D+03 IAcc=3 IRadAn=         5 AccDes= 0.00D+00
 Harris functional with IExCor=  402 and IRadAn=       5 diagonalized for initial guess.
 HarFok:  IExCor=  402 AccDes= 0.00D+00 IRadAn=         5 IDoV= 1 UseB2=F ITyADJ=14
 ICtDFT=  3500011 ScaDFX=  1.000000  1.000000  1.000000  1.000000
 FoFCou: FMM=F IPFlag=           0 FMFlag=      100000 FMFlg1=           0
         NFxFlg=           0 DoJE=T BraDBF=F KetDBF=T FulRan=T
         wScrn=  0.000000 ICntrl=       500 IOpCl=  0 I1Cent=   200000004 NGrid=           0
         NMat0=    1 NMatS0=      1 NMatT0=    0 NMatD0=    1 NMtDS0=    0 NMtDT0=    0
 Symmetry not used in FoFCou.
 Harris En= -512.771134630267    
 JPrj=0 DoOrth=F DoCkMO=F.
 Initial guess <Sx>= 0.0000 <Sy>= 0.0000 <Sz>= 0.0000 <S**2>=-0.0000 S=-0.0000
 Leave Link  401 at Tue Jan  3 09:07:21 2023, MaxMem=   536870912 cpu:               1.4 elap:               0.8
 (Enter /opt/software/gaussian/g16.c01/l502.exe)
 Keep R1 and R2 ints in memory in canonical form, NReq=102278563.
 FoFCou: FMM=F IPFlag=           0 FMFlag=           0 FMFlg1=           0
         NFxFlg=           0 DoJE=F BraDBF=F KetDBF=F FulRan=T
         wScrn=  0.000000 ICntrl=       600 IOpCl=  0 I1Cent=           0 NGrid=           0
         NMat0=    1 NMatS0=  10011 NMatT0=    0 NMatD0=    1 NMtDS0=    0 NMtDT0=    0
 Symmetry not used in FoFCou.
 Two-electron integral symmetry not used.
 UHF open shell SCF:
 Using DIIS extrapolation, IDIIS=  1040.
 NGot=   536870912 LenX=   436588043 LenY=   436562321
 Requested convergence on RMS density matrix=1.00D-08 within 128 cycles.
 Requested convergence on MAX density matrix=1.00D-06.
 Requested convergence on             energy=1.00D-06.
 No special actions if energy rises.

 Cycle   1  Pass 1  IDiag  1:
 E= -512.553236746735    
 DIIS: error= 3.56D-02 at cycle   1 NSaved=   1.
 NSaved= 1 IEnMin= 1 EnMin= -512.553236746735     IErMin= 1 ErrMin= 3.56D-02
 ErrMax= 3.56D-02  0.00D+00 EMaxC= 1.00D-01 BMatC= 1.07D+00 BMatP= 1.07D+00
 IDIUse=3 WtCom= 6.44D-01 WtEn= 3.56D-01
 Coeff-Com:  0.100D+01
 Coeff-En:   0.100D+01
 Coeff:      0.100D+01
 Gap=     0.089 Goal=   None    Shift=    0.000
 Gap=     0.089 Goal=   None    Shift=    0.000
 GapD=    0.089 DampG=0.500 DampE=0.500 DampFc=0.2500 IDamp=-1.
 Damping current iteration by 2.50D-01
 RMSDP=5.46D-03 MaxDP=1.90D-01              OVMax= 4.37D-01

 Cycle   2  Pass 1  IDiag  1:
 E= -512.626754588657     Delta-E=       -0.073517841921 Rises=F Damp=T
 DIIS: error= 1.34D-02 at cycle   2 NSaved=   2.
 NSaved= 2 IEnMin= 2 EnMin= -512.626754588657     IErMin= 2 ErrMin= 1.34D-02
 ErrMax= 1.34D-02  0.00D+00 EMaxC= 1.00D-01 BMatC= 1.21D-01 BMatP= 1.07D+00
 IDIUse=3 WtCom= 8.66D-01 WtEn= 1.34D-01
 Coeff-Com: -0.361D+00 0.136D+01
 Coeff-En:   0.309D-02 0.997D+00
 Coeff:     -0.312D+00 0.131D+01
 Gap=     0.187 Goal=   None    Shift=    0.000
 Gap=     0.187 Goal=   None    Shift=    0.000
 RMSDP=1.41D-03 MaxDP=4.96D-02 DE=-7.35D-02 OVMax= 2.84D-01

 Cycle   3  Pass 1  IDiag  1:
 E= -512.718917057375     Delta-E=       -0.092162468718 Rises=F Damp=F
 DIIS: error= 1.48D-02 at cycle   3 NSaved=   3.
 NSaved= 3 IEnMin= 3 EnMin= -512.718917057375     IErMin= 2 ErrMin= 1.34D-02
 ErrMax= 1.48D-02  0.00D+00 EMaxC= 1.00D-01 BMatC= 1.58D-01 BMatP= 1.21D-01
 IDIUse=2 WtCom= 0.00D+00 WtEn= 1.00D+00
 Coeff-En:   0.151D-02 0.000D+00 0.998D+00
 Coeff:      0.151D-02 0.000D+00 0.998D+00
 Gap=     0.158 Goal=   None    Shift=    0.000
 Gap=     0.158 Goal=   None    Shift=    0.000
 RMSDP=3.49D-03 MaxDP=8.70D-02 DE=-9.22D-02 OVMax= 4.36D-01

 Cycle   4  Pass 1  IDiag  1:
 E= -512.339642804920     Delta-E=        0.379274252454 Rises=F Damp=F
 DIIS: error= 5.87D-02 at cycle   4 NSaved=   4.
 NSaved= 4 IEnMin= 3 EnMin= -512.718917057375     IErMin= 2 ErrMin= 1.34D-02
 ErrMax= 5.87D-02  0.00D+00 EMaxC= 1.00D-01 BMatC= 1.82D+00 BMatP= 1.21D-01
 IDIUse=2 WtCom= 0.00D+00 WtEn= 1.00D+00
 Coeff-En:   0.000D+00 0.000D+00 0.851D+00 0.149D+00
 Coeff:      0.000D+00 0.000D+00 0.851D+00 0.149D+00
 Gap=     0.166 Goal=   None    Shift=    0.000
 Gap=     0.166 Goal=   None    Shift=    0.000
 RMSDP=1.84D-03 MaxDP=4.78D-02 DE= 3.79D-01 OVMax= 2.39D-01

 Cycle   5  Pass 1  IDiag  1:
 E= -512.713900046067     Delta-E=       -0.374257241147 Rises=F Damp=F
 DIIS: error= 1.71D-02 at cycle   5 NSaved=   5.
 NSaved= 5 IEnMin= 3 EnMin= -512.718917057375     IErMin= 2 ErrMin= 1.34D-02
 ErrMax= 1.71D-02  0.00D+00 EMaxC= 1.00D-01 BMatC= 1.82D-01 BMatP= 1.21D-01
 IDIUse=2 WtCom= 0.00D+00 WtEn= 1.00D+00
 Coeff-En:   0.000D+00 0.000D+00 0.520D+00 0.000D+00 0.480D+00
 Coeff:      0.000D+00 0.000D+00 0.520D+00 0.000D+00 0.480D+00
 Gap=     0.196 Goal=   None    Shift=    0.000
 Gap=     0.196 Goal=   None    Shift=    0.000
 RMSDP=9.35D-04 MaxDP=2.56D-02 DE=-3.74D-01 OVMax= 1.26D-01

 Cycle   6  Pass 1  IDiag  1:
 E= -512.758363288913     Delta-E=       -0.044463242846 Rises=F Damp=F
 DIIS: error= 1.44D-03 at cycle   6 NSaved=   6.
 NSaved= 6 IEnMin= 6 EnMin= -512.758363288913     IErMin= 6 ErrMin= 1.44D-03
 ErrMax= 1.44D-03  0.00D+00 EMaxC= 1.00D-01 BMatC= 9.05D-04 BMatP= 1.21D-01
 IDIUse=3 WtCom= 9.86D-01 WtEn= 1.44D-02
 Coeff-Com:  0.431D-02-0.952D-02 0.148D+00-0.349D-01 0.232D+00 0.659D+00
 Coeff-En:   0.000D+00 0.000D+00 0.000D+00 0.000D+00 0.000D+00 0.100D+01
 Coeff:      0.424D-02-0.939D-02 0.146D+00-0.344D-01 0.229D+00 0.664D+00
 Gap=     0.186 Goal=   None    Shift=    0.000
 Gap=     0.186 Goal=   None    Shift=    0.000
 RMSDP=7.62D-05 MaxDP=3.49D-03 DE=-4.45D-02 OVMax= 6.13D-03

 Cycle   7  Pass 1  IDiag  1:
 E= -512.758555716359     Delta-E=       -0.000192427447 Rises=F Damp=F
 DIIS: error= 4.01D-04 at cycle   7 NSaved=   7.
 NSaved= 7 IEnMin= 7 EnMin= -512.758555716359     IErMin= 7 ErrMin= 4.01D-04
 ErrMax= 4.01D-04  0.00D+00 EMaxC= 1.00D-01 BMatC= 8.53D-05 BMatP= 9.05D-04
 IDIUse=3 WtCom= 9.96D-01 WtEn= 4.01D-03
 Coeff-Com:  0.101D-01-0.161D-01 0.136D-01-0.239D-02 0.471D-02 0.216D+00
 Coeff-Com:  0.774D+00
 Coeff-En:   0.000D+00 0.000D+00 0.000D+00 0.000D+00 0.000D+00 0.000D+00
 Coeff-En:   0.100D+01
 Coeff:      0.101D-01-0.160D-01 0.136D-01-0.238D-02 0.469D-02 0.215D+00
 Coeff:      0.775D+00
 Gap=     0.187 Goal=   None    Shift=    0.000
 Gap=     0.187 Goal=   None    Shift=    0.000
 RMSDP=2.08D-05 MaxDP=4.76D-04 DE=-1.92D-04 OVMax= 2.79D-03

 Cycle   8  Pass 1  IDiag  1:
 E= -512.758576992209     Delta-E=       -0.000021275849 Rises=F Damp=F
 DIIS: error= 3.38D-05 at cycle   8 NSaved=   8.
 NSaved= 8 IEnMin= 8 EnMin= -512.758576992209     IErMin= 8 ErrMin= 3.38D-05
 ErrMax= 3.38D-05  0.00D+00 EMaxC= 1.00D-01 BMatC= 5.37D-07 BMatP= 8.53D-05
 IDIUse=1 WtCom= 1.00D+00 WtEn= 0.00D+00
 Coeff-Com:  0.107D-02-0.134D-02 0.142D-02-0.229D-03-0.181D-02 0.178D-01
 Coeff-Com:  0.137D+00 0.846D+00
 Coeff:      0.107D-02-0.134D-02 0.142D-02-0.229D-03-0.181D-02 0.178D-01
 Coeff:      0.137D+00 0.846D+00
 Gap=     0.187 Goal=   None    Shift=    0.000
 Gap=     0.187 Goal=   None    Shift=    0.000
 RMSDP=2.51D-06 MaxDP=4.46D-05 DE=-2.13D-05 OVMax= 2.25D-04

 Cycle   9  Pass 1  IDiag  1:
 E= -512.758577126496     Delta-E=       -0.000000134288 Rises=F Damp=F
 DIIS: error= 7.28D-06 at cycle   9 NSaved=   9.
 NSaved= 9 IEnMin= 9 EnMin= -512.758577126496     IErMin= 9 ErrMin= 7.28D-06
 ErrMax= 7.28D-06  0.00D+00 EMaxC= 1.00D-01 BMatC= 2.74D-08 BMatP= 5.37D-07
 IDIUse=1 WtCom= 1.00D+00 WtEn= 0.00D+00
 Coeff-Com: -0.790D-04 0.186D-03-0.277D-03 0.918D-04-0.985D-03-0.363D-02
 Coeff-Com:  0.137D-01 0.273D+00 0.718D+00
 Coeff:     -0.790D-04 0.186D-03-0.277D-03 0.918D-04-0.985D-03-0.363D-02
 Coeff:      0.137D-01 0.273D+00 0.718D+00
 Gap=     0.187 Goal=   None    Shift=    0.000
 Gap=     0.187 Goal=   None    Shift=    0.000
 RMSDP=4.88D-07 MaxDP=2.21D-05 DE=-1.34D-07 OVMax= 1.92D-05

 Cycle  10  Pass 1  IDiag  1:
 E= -512.758577130994     Delta-E=       -0.000000004498 Rises=F Damp=F
 DIIS: error= 3.86D-06 at cycle  10 NSaved=  10.
 NSaved=10 IEnMin=10 EnMin= -512.758577130994     IErMin=10 ErrMin= 3.86D-06
 ErrMax= 3.86D-06  0.00D+00 EMaxC= 1.00D-01 BMatC= 7.48D-09 BMatP= 2.74D-08
 IDIUse=1 WtCom= 1.00D+00 WtEn= 0.00D+00
 Coeff-Com: -0.686D-04 0.935D-04-0.223D-03 0.345D-04-0.149D-03-0.118D-02
 Coeff-Com:  0.294D-03 0.144D-01 0.186D+00 0.800D+00
 Coeff:     -0.686D-04 0.935D-04-0.223D-03 0.345D-04-0.149D-03-0.118D-02
 Coeff:      0.294D-03 0.144D-01 0.186D+00 0.800D+00
 Gap=     0.187 Goal=   None    Shift=    0.000
 Gap=     0.187 Goal=   None    Shift=    0.000
 RMSDP=1.74D-07 MaxDP=4.58D-06 DE=-4.50D-09 OVMax= 1.31D-05

 Cycle  11  Pass 1  IDiag  1:
 E= -512.758577132675     Delta-E=       -0.000000001681 Rises=F Damp=F
 DIIS: error= 6.73D-07 at cycle  11 NSaved=  11.
 NSaved=11 IEnMin=11 EnMin= -512.758577132675     IErMin=11 ErrMin= 6.73D-07
 ErrMax= 6.73D-07  0.00D+00 EMaxC= 1.00D-01 BMatC= 3.31D-10 BMatP= 7.48D-09
 IDIUse=1 WtCom= 1.00D+00 WtEn= 0.00D+00
 Coeff-Com: -0.275D-05-0.237D-05-0.598D-04 0.858D-05-0.102D-04-0.204D-04
 Coeff-Com: -0.207D-03-0.945D-02-0.115D-01 0.101D+00 0.921D+00
 Coeff:     -0.275D-05-0.237D-05-0.598D-04 0.858D-05-0.102D-04-0.204D-04
 Coeff:     -0.207D-03-0.945D-02-0.115D-01 0.101D+00 0.921D+00
 Gap=     0.187 Goal=   None    Shift=    0.000
 Gap=     0.187 Goal=   None    Shift=    0.000
 RMSDP=3.85D-08 MaxDP=7.02D-07 DE=-1.68D-09 OVMax= 2.30D-06

 Cycle  12  Pass 1  IDiag  1:
 E= -512.758577132750     Delta-E=       -0.000000000074 Rises=F Damp=F
 DIIS: error= 1.25D-07 at cycle  12 NSaved=  12.
 NSaved=12 IEnMin=12 EnMin= -512.758577132750     IErMin=12 ErrMin= 1.25D-07
 ErrMax= 1.25D-07  0.00D+00 EMaxC= 1.00D-01 BMatC= 7.98D-12 BMatP= 3.31D-10
 IDIUse=1 WtCom= 1.00D+00 WtEn= 0.00D+00
 Coeff-Com:  0.770D-06-0.138D-05-0.837D-05 0.958D-06 0.255D-05 0.143D-04
 Coeff-Com: -0.632D-04-0.217D-02-0.108D-01-0.101D-01 0.203D+00 0.820D+00
 Coeff:      0.770D-06-0.138D-05-0.837D-05 0.958D-06 0.255D-05 0.143D-04
 Coeff:     -0.632D-04-0.217D-02-0.108D-01-0.101D-01 0.203D+00 0.820D+00
 Gap=     0.187 Goal=   None    Shift=    0.000
 Gap=     0.187 Goal=   None    Shift=    0.000
 RMSDP=7.22D-09 MaxDP=1.40D-07 DE=-7.45D-11 OVMax= 4.86D-07

 SCF Done:  E(UB3LYP) =  -512.758577133     A.U. after   12 cycles
            NFock= 12  Conv=0.72D-08     -V/T= 2.0026
 <Sx>= 0.0000 <Sy>= 0.0000 <Sz>= 0.0000 <S**2>=-0.0000 S=-0.0000
 <L.S>=  0.00000000000    
 KE= 5.114532855732D+02 PE=-1.420841329270D+03 EE= 2.938758436843D+02
 Annihilation of the first spin contaminant:
 S**2 before annihilation    -0.0000,   after    -0.0000
 Leave Link  502 at Tue Jan  3 09:07:36 2023, MaxMem=   536870912 cpu:              27.5 elap:              14.8
 (Enter /opt/software/gaussian/g16.c01/l508.exe)
 QCSCF skips out because SCF is already converged.
 Leave Link  508 at Tue Jan  3 09:07:36 2023, MaxMem=   536870912 cpu:               0.0 elap:               0.0
 (Enter /opt/software/gaussian/g16.c01/l601.exe)
 Copying SCF densities to generalized density rwf, IOpCl= 1 IROHF=0.

 **********************************************************************

            Population analysis using the SCF Density.

 **********************************************************************

 Alpha  occ. eigenvalues --  -88.97158 -19.13310 -10.22833  -8.03683  -5.99838
 Alpha  occ. eigenvalues --   -5.99821  -5.99407  -1.04550  -0.80403  -0.60852
 Alpha  occ. eigenvalues --   -0.49359  -0.46676  -0.42323  -0.39547  -0.29285
 Alpha  occ. eigenvalues --   -0.28094
 Alpha virt. eigenvalues --   -0.09440  -0.00213   0.00160   0.01840   0.03230
 Alpha virt. eigenvalues --    0.04100   0.06838   0.07965   0.09378   0.11210
 Alpha virt. eigenvalues --    0.11919   0.12536   0.14649   0.15674   0.17035
 Alpha virt. eigenvalues --    0.18258   0.19402   0.20022   0.22843   0.24344
 Alpha virt. eigenvalues --    0.25307   0.26299   0.27060   0.29036   0.29883
 Alpha virt. eigenvalues --    0.31480   0.33323   0.34898   0.35416   0.37021
 Alpha virt. eigenvalues --    0.38346   0.41307   0.42679   0.44355   0.44699
 Alpha virt. eigenvalues --    0.46300   0.47942   0.50503   0.54619   0.54646
 Alpha virt. eigenvalues --    0.56250   0.58102   0.59782   0.63597   0.66040
 Alpha virt. eigenvalues --    0.67464   0.71081   0.75868   0.79858   0.82645
 Alpha virt. eigenvalues --    0.82955   0.87780   0.88171   0.95023   0.99147
 Alpha virt. eigenvalues --    1.04775   1.09194   1.10854   1.14069   1.47896
 Alpha virt. eigenvalues --    1.48754   1.52492   1.53725   1.55264   1.56617
 Alpha virt. eigenvalues --    1.59892   1.64660   1.67459   1.72582   1.76454
 Alpha virt. eigenvalues --    1.78644   1.79876   1.82788   1.83076   1.86563
 Alpha virt. eigenvalues --    1.86901   2.00193   2.03347   2.06970   2.12777
 Alpha virt. eigenvalues --    2.17385   2.27747   2.33167   2.34360   2.38144
 Alpha virt. eigenvalues --    2.53703   2.58605   2.62419   2.65171   2.75120
 Alpha virt. eigenvalues --    2.80177   2.87411   3.06985   3.07592   3.11468
 Alpha virt. eigenvalues --    3.14223   3.17130   3.18903   3.29824   3.43715
 Alpha virt. eigenvalues --    3.44381   3.48538   3.67366   3.71543   3.89213
 Alpha virt. eigenvalues --    4.18557   4.52096   5.14023   5.14091   5.22485
 Alpha virt. eigenvalues --    5.25618   5.44098   5.51593   5.52349   6.41265
 Alpha virt. eigenvalues --    6.43008   6.63411   6.70298   6.98044   8.85067
 Alpha virt. eigenvalues --    9.22361   9.59762  20.91503  22.14778  43.68450
  Beta  occ. eigenvalues --  -88.97158 -19.13310 -10.22833  -8.03683  -5.99838
  Beta  occ. eigenvalues --   -5.99821  -5.99407  -1.04550  -0.80403  -0.60852
  Beta  occ. eigenvalues --   -0.49359  -0.46676  -0.42323  -0.39547  -0.29285
  Beta  occ. eigenvalues --   -0.28094
  Beta virt. eigenvalues --   -0.09440  -0.00213   0.00160   0.01840   0.03230
  Beta virt. eigenvalues --    0.04100   0.06838   0.07965   0.09378   0.11210
  Beta virt. eigenvalues --    0.11919   0.12536   0.14649   0.15674   0.17035
  Beta virt. eigenvalues --    0.18258   0.19402   0.20022   0.22843   0.24344
  Beta virt. eigenvalues --    0.25307   0.26299   0.27060   0.29036   0.29883
  Beta virt. eigenvalues --    0.31480   0.33323   0.34898   0.35416   0.37021
  Beta virt. eigenvalues --    0.38346   0.41307   0.42679   0.44355   0.44699
  Beta virt. eigenvalues --    0.46300   0.47942   0.50503   0.54619   0.54646
  Beta virt. eigenvalues --    0.56250   0.58102   0.59782   0.63597   0.66040
  Beta virt. eigenvalues --    0.67464   0.71081   0.75868   0.79858   0.82645
  Beta virt. eigenvalues --    0.82955   0.87780   0.88171   0.95023   0.99147
  Beta virt. eigenvalues --    1.04775   1.09194   1.10854   1.14069   1.47896
  Beta virt. eigenvalues --    1.48754   1.52492   1.53725   1.55264   1.56617
  Beta virt. eigenvalues --    1.59892   1.64660   1.67459   1.72582   1.76454
  Beta virt. eigenvalues --    1.78644   1.79876   1.82788   1.83076   1.86563
  Beta virt. eigenvalues --    1.86901   2.00193   2.03347   2.06970   2.12777
  Beta virt. eigenvalues --    2.17385   2.27747   2.33167   2.34360   2.38144
  Beta virt. eigenvalues --    2.53703   2.58605   2.62419   2.65171   2.75120
  Beta virt. eigenvalues --    2.80177   2.87411   3.06985   3.07592   3.11468
  Beta virt. eigenvalues --    3.14223   3.17130   3.18903   3.29824   3.43715
  Beta virt. eigenvalues --    3.44381   3.48538   3.67366   3.71543   3.89213
  Beta virt. eigenvalues --    4.18557   4.52096   5.14023   5.14091   5.22485
  Beta virt. eigenvalues --    5.25618   5.44098   5.51593   5.52349   6.41265
  Beta virt. eigenvalues --    6.43008   6.63411   6.70298   6.98044   8.85067
  Beta virt. eigenvalues --    9.22361   9.59762  20.91503  22.14778  43.68450
          Condensed to atoms (all electrons):
               1          2          3          4          5
     1  C    5.280192   0.419275  -0.054465   0.364784   0.378293
     2  S    0.419275  14.981474   0.278606  -0.031102  -0.021497
     3  O   -0.054465   0.278606   8.261150   0.002261   0.008536
     4  H    0.364784  -0.031102   0.002261   0.404046  -0.005660
     5  H    0.378293  -0.021497   0.008536  -0.005660   0.395078
          Atomic-Atomic Spin Densities.
               1          2          3          4          5
     1  C    0.000000  -0.000000  -0.000000  -0.000000   0.000000
     2  S   -0.000000  -0.000000  -0.000000   0.000000   0.000000
     3  O   -0.000000  -0.000000   0.000000  -0.000000  -0.000000
     4  H   -0.000000   0.000000  -0.000000  -0.000000  -0.000000
     5  H    0.000000   0.000000  -0.000000  -0.000000  -0.000000
 Mulliken charges and spin densities:
               1          2
     1  C   -0.388079   0.000000
     2  S    0.373245  -0.000000
     3  O   -0.496088   0.000000
     4  H    0.265671  -0.000000
     5  H    0.245251   0.000000
 Sum of Mulliken charges =  -0.00000   0.00000
 Mulliken charges and spin densities with hydrogens summed into heavy atoms:
               1          2
     1  C    0.122843   0.000000
     2  S    0.373245  -0.000000
     3  O   -0.496088   0.000000
 Electronic spatial extent (au):  <R**2>=            828.1856
 Charge=             -0.0000 electrons
 Dipole moment (field-independent basis, Debye):
    X=             -2.3415    Y=              1.0622    Z=              1.8594  Tot=              3.1731
 Quadrupole moment (field-independent basis, Debye-Ang):
   XX=            -33.8481   YY=            -25.6880   ZZ=            -27.2520
   XY=              3.6610   XZ=              6.5639   YZ=             -1.1871
 Traceless Quadrupole moment (field-independent basis, Debye-Ang):
   XX=             -4.9187   YY=              3.2414   ZZ=              1.6774
   XY=              3.6610   XZ=              6.5639   YZ=             -1.1871
 Octapole moment (field-independent basis, Debye-Ang**2):
  XXX=           -198.7690  YYY=             13.9124  ZZZ=             33.1390  XYY=            -58.1202
  XXY=             16.5053  XXZ=             31.1299  XZZ=            -66.2433  YZZ=              7.3673
  YYZ=             10.9161  XYZ=             -6.4030
 Hexadecapole moment (field-independent basis, Debye-Ang**3):
 XXXX=          -1004.9927 YYYY=            -49.3009 ZZZZ=           -101.0161 XXXY=             81.2152
 XXXZ=            155.2939 YYYX=             43.2817 YYYZ=            -18.8639 ZZZX=             98.3684
 ZZZY=            -20.5323 XXYY=           -164.4765 XXZZ=           -199.5861 YYZZ=            -25.4633
 XXYZ=            -27.5011 YYXZ=             32.1827 ZZXY=             22.4894
 N-N= 1.027536228800D+02 E-N=-1.420841325928D+03  KE= 5.114532855732D+02
                          Isotropic Fermi Contact Couplings
        Atom                 a.u.       MegaHertz       Gauss      10(-4) cm-1
     1  C(13)              0.00000       0.00000       0.00000       0.00000
     2  S(33)             -0.00000      -0.00000      -0.00000      -0.00000
     3  O(17)              0.00000      -0.00000      -0.00000      -0.00000
     4  H(1)               0.00000       0.00000       0.00000       0.00000
     5  H(1)              -0.00000      -0.00000      -0.00000      -0.00000
 --------------------------------------------------------
       Center         ----  Spin Dipole Couplings  ----
                      3XX-RR        3YY-RR        3ZZ-RR
 --------------------------------------------------------
     1   Atom       -0.000000      0.000000      0.000000
     2   Atom        0.000000     -0.000000     -0.000000
     3   Atom        0.000000     -0.000000     -0.000000
     4   Atom        0.000000     -0.000000     -0.000000
     5   Atom        0.000000     -0.000000     -0.000000
 --------------------------------------------------------
                        XY            XZ            YZ
 --------------------------------------------------------
     1   Atom        0.000000      0.000000      0.000000
     2   Atom       -0.000000     -0.000000     -0.000000
     3   Atom        0.000000      0.000000     -0.000000
     4   Atom       -0.000000     -0.000000     -0.000000
     5   Atom        0.000000      0.000000     -0.000000
 --------------------------------------------------------


 ---------------------------------------------------------------------------------
              Anisotropic Spin Dipole Couplings in Principal Axis System
 ---------------------------------------------------------------------------------

       Atom             a.u.   MegaHertz   Gauss  10(-4) cm-1        Axes

              Baa    -0.0000    -0.000    -0.000    -0.000  0.9543 -0.0363 -0.2967
     1 C(13)  Bbb    -0.0000    -0.000    -0.000    -0.000 -0.1188  0.8647 -0.4880
              Bcc     0.0000     0.000     0.000     0.000  0.2743  0.5009  0.8209
 
              Baa    -0.0000    -0.000    -0.000    -0.000  0.0346  0.2657  0.9634
     2 S(33)  Bbb    -0.0000    -0.000    -0.000    -0.000  0.1422  0.9529 -0.2679
              Bcc     0.0000     0.000     0.000     0.000  0.9892 -0.1463  0.0048
 
              Baa    -0.0000     0.000     0.000     0.000 -0.2492  0.6378  0.7288
     3 O(17)  Bbb    -0.0000     0.000     0.000     0.000 -0.1645  0.7137 -0.6809
              Bcc     0.0000    -0.000    -0.000    -0.000  0.9544  0.2895  0.0730
 
              Baa    -0.0000    -0.000    -0.000    -0.000  0.2137  0.5143  0.8306
     4 H(1)   Bbb     0.0000     0.000     0.000     0.000 -0.0555  0.8552 -0.5153
              Bcc     0.0000     0.000     0.000     0.000  0.9753 -0.0640 -0.2113
 
              Baa    -0.0000    -0.000    -0.000    -0.000 -0.0670  0.5340  0.8428
     5 H(1)   Bbb     0.0000     0.000     0.000     0.000  0.0765  0.8450 -0.5293
              Bcc     0.0000     0.000     0.000     0.000  0.9948 -0.0290  0.0975
 

 ---------------------------------------------------------------------------------

 No NMR shielding tensors so no spin-rotation constants.
 Leave Link  601 at Tue Jan  3 09:07:36 2023, MaxMem=   536870912 cpu:               0.5 elap:               0.2
 (Enter /opt/software/gaussian/g16.c01/l801.exe)
 DoSCS=F DFT=T ScalE2(SS,OS)=  1.000000  1.000000
 Range of M.O.s used for correlation:     1   141
 NBasis=   141 NAE=    16 NBE=    16 NFC=     0 NFV=     0
 NROrb=    141 NOA=    16 NOB=    16 NVA=   125 NVB=   125

 **** Warning!!: The largest alpha MO coefficient is  0.56596909D+02


 **** Warning!!: The largest beta MO coefficient is  0.56596909D+02

 Leave Link  801 at Tue Jan  3 09:07:36 2023, MaxMem=   536870912 cpu:               0.1 elap:               0.0
 (Enter /opt/software/gaussian/g16.c01/l914.exe)
 UHF ground state
 Doing stability rather than CIS.
 Keep R1 and R2 ints in memory in canonical form, NReq=105879259.
 FoFCou: FMM=F IPFlag=           0 FMFlag=           0 FMFlg1=           0
         NFxFlg=           0 DoJE=F BraDBF=F KetDBF=F FulRan=T
         wScrn=  0.000000 ICntrl=       600 IOpCl=  0 I1Cent=           0 NGrid=           0
         NMat0=    1 NMatS0=  10011 NMatT0=    0 NMatD0=    1 NMtDS0=    0 NMtDT0=    0
 Symmetry not used in FoFCou.
 Two-electron integral symmetry not used.
 MDV=   536870912 DFT=T DoStab=T Mixed=T DoRPA=F DoScal=F NonHer=F
 Making orbital integer symmetry assigments:
    12 initial guesses have been made.
 Convergence on wavefunction:    0.001000000000000
 Davidson Disk Diagonalization:  ConvIn= 1.00D-03 SkipCon=T Conv= 1.00D-03.
 Max sub-space:  2000 roots to seek:    12 dimension of matrix:         4000
 Iteration     1 Dimension    12 NMult     0 NNew     12
 CISAX will form    12 AO SS matrices at one time.
 NMat=    12 NSing=    12 JSym2X= 0.
 Excitation Energies [eV] at current iteration:
 Root      1 :     1.721586775928499
 Root      2 :     3.154406479345217
 Root      3 :     4.589216909750328
 Root      4 :     5.834979792875232
 Root      5 :     5.886742878314113
 Root      6 :     6.355756550933127
 Root      7 :     6.609401483080433
 Root      8 :     6.806737208772272
 Root      9 :     7.001831014918680
 Root     10 :     7.035573507777087
 Root     11 :     7.201175853252912
 Root     12 :    12.698072713254650
 Iteration     2 Dimension    24 NMult    12 NNew     12
 CISAX will form    12 AO SS matrices at one time.
 NMat=    12 NSing=    12 JSym2X= 0.
 Root      1 not converged, maximum delta is    0.060998320647659
 Excitation Energies [eV] at current iteration:
 Root      1 :     1.278741485905588   Change is   -0.442845290022912
 Root      2 :     2.849604315517515   Change is   -0.304802163827702
 Root      3 :     4.213554532139344   Change is   -0.375662377610984
 Root      4 :     5.367579027437150   Change is   -0.519163850876963
 Root      5 :     5.483640718343520   Change is   -0.351339074531712
 Root      6 :     6.233926003066387   Change is   -0.121830547866740
 Root      7 :     6.450856354128780   Change is   -0.158545128951654
 Root      8 :     6.569570497579953   Change is   -0.631605355672959
 Root      9 :     6.760812203108411   Change is   -0.045925005663862
 Root     10 :     6.811660086668451   Change is   -0.223913421108636
 Root     11 :     6.820137885329360   Change is   -0.181693129589320
 Root     12 :     8.790291352750323   Change is   -3.907781360504325
 Iteration     3 Dimension    27 NMult    24 NNew      3
 CISAX will form     3 AO SS matrices at one time.
 NMat=     3 NSing=     3 JSym2X= 0.
 Root      1 not converged, maximum delta is    0.009641734806437
 Excitation Energies [eV] at current iteration:
 Root      1 :     1.271958155156498   Change is   -0.006783330749089
 Root      2 :     2.842386302120738   Change is   -0.007218013396777
 Root      3 :     4.200197547593046   Change is   -0.013356984546299
 Iteration     4 Dimension    30 NMult    27 NNew      3
 CISAX will form     3 AO SS matrices at one time.
 NMat=     3 NSing=     3 JSym2X= 0.
 Root      1 not converged, maximum delta is    0.002736067337119
 Excitation Energies [eV] at current iteration:
 Root      1 :     1.271661532792793   Change is   -0.000296622363706
 Root      2 :     2.841984072486467   Change is   -0.000402229634271
 Root      3 :     4.199630141157295   Change is   -0.000567406435751
 Iteration     5 Dimension    33 NMult    30 NNew      3
 CISAX will form     3 AO SS matrices at one time.
 NMat=     3 NSing=     3 JSym2X= 0.
 Root      1 has converged.
 Excitation Energies [eV] at current iteration:
 Root      1 :     1.271651022545152   Change is   -0.000010510247641
 Root      2 :     2.841980130137117   Change is   -0.000003942349350
 Root      3 :     4.199611525783739   Change is   -0.000018615373556
 Convergence achieved on expansion vectors.
 ***********************************************************************
 Stability analysis using <AA,BB:AA,BB> singles matrix:
 ***********************************************************************
 1PDM for each excited state written to RWF  633
 Ground to excited state transition densities written to RWF  633

 Eigenvectors of the stability matrix:
 
 Excited state symmetry could not be determined.
 Eigenvector   1:  3.000-?Sym  Eigenvalue= 0.0467323  <S**2>=2.000
     16A -> 17A       -0.69290
     16B -> 17B        0.69290
 The wavefunction is stable under the perturbations considered.
 Leave Link  914 at Tue Jan  3 09:08:49 2023, MaxMem=   536870912 cpu:             145.0 elap:              72.5
 (Enter /opt/software/gaussian/g16.c01/l508.exe)
 The wavefunction is already stable.
 Leave Link  508 at Tue Jan  3 09:08:49 2023, MaxMem=   536870912 cpu:               0.0 elap:               0.0
 (Enter /opt/software/gaussian/g16.c01/l601.exe)
 Copying SCF densities to generalized density rwf, IOpCl= 1 IROHF=0.

 **********************************************************************

            Population analysis using the SCF Density.

 **********************************************************************

 Alpha  occ. eigenvalues --  -88.97158 -19.13310 -10.22833  -8.03683  -5.99838
 Alpha  occ. eigenvalues --   -5.99821  -5.99407  -1.04550  -0.80403  -0.60852
 Alpha  occ. eigenvalues --   -0.49359  -0.46676  -0.42323  -0.39547  -0.29285
 Alpha  occ. eigenvalues --   -0.28094
 Alpha virt. eigenvalues --   -0.09440  -0.00213   0.00160   0.01840   0.03230
 Alpha virt. eigenvalues --    0.04100   0.06838   0.07965   0.09378   0.11210
 Alpha virt. eigenvalues --    0.11919   0.12536   0.14649   0.15674   0.17035
 Alpha virt. eigenvalues --    0.18258   0.19402   0.20022   0.22843   0.24344
 Alpha virt. eigenvalues --    0.25307   0.26299   0.27060   0.29036   0.29883
 Alpha virt. eigenvalues --    0.31480   0.33323   0.34898   0.35416   0.37021
 Alpha virt. eigenvalues --    0.38346   0.41307   0.42679   0.44355   0.44699
 Alpha virt. eigenvalues --    0.46300   0.47942   0.50503   0.54619   0.54646
 Alpha virt. eigenvalues --    0.56250   0.58102   0.59782   0.63597   0.66040
 Alpha virt. eigenvalues --    0.67464   0.71081   0.75868   0.79858   0.82645
 Alpha virt. eigenvalues --    0.82955   0.87780   0.88171   0.95023   0.99147
 Alpha virt. eigenvalues --    1.04775   1.09194   1.10854   1.14069   1.47896
 Alpha virt. eigenvalues --    1.48754   1.52492   1.53725   1.55264   1.56617
 Alpha virt. eigenvalues --    1.59892   1.64660   1.67459   1.72582   1.76454
 Alpha virt. eigenvalues --    1.78644   1.79876   1.82788   1.83076   1.86563
 Alpha virt. eigenvalues --    1.86901   2.00193   2.03347   2.06970   2.12777
 Alpha virt. eigenvalues --    2.17385   2.27747   2.33167   2.34360   2.38144
 Alpha virt. eigenvalues --    2.53703   2.58605   2.62419   2.65171   2.75120
 Alpha virt. eigenvalues --    2.80177   2.87411   3.06985   3.07592   3.11468
 Alpha virt. eigenvalues --    3.14223   3.17130   3.18903   3.29824   3.43715
 Alpha virt. eigenvalues --    3.44381   3.48538   3.67366   3.71543   3.89213
 Alpha virt. eigenvalues --    4.18557   4.52096   5.14023   5.14091   5.22485
 Alpha virt. eigenvalues --    5.25618   5.44098   5.51593   5.52349   6.41265
 Alpha virt. eigenvalues --    6.43008   6.63411   6.70298   6.98044   8.85067
 Alpha virt. eigenvalues --    9.22361   9.59762  20.91503  22.14778  43.68450
  Beta  occ. eigenvalues --  -88.97158 -19.13310 -10.22833  -8.03683  -5.99838
  Beta  occ. eigenvalues --   -5.99821  -5.99407  -1.04550  -0.80403  -0.60852
  Beta  occ. eigenvalues --   -0.49359  -0.46676  -0.42323  -0.39547  -0.29285
  Beta  occ. eigenvalues --   -0.28094
  Beta virt. eigenvalues --   -0.09440  -0.00213   0.00160   0.01840   0.03230
  Beta virt. eigenvalues --    0.04100   0.06838   0.07965   0.09378   0.11210
  Beta virt. eigenvalues --    0.11919   0.12536   0.14649   0.15674   0.17035
  Beta virt. eigenvalues --    0.18258   0.19402   0.20022   0.22843   0.24344
  Beta virt. eigenvalues --    0.25307   0.26299   0.27060   0.29036   0.29883
  Beta virt. eigenvalues --    0.31480   0.33323   0.34898   0.35416   0.37021
  Beta virt. eigenvalues --    0.38346   0.41307   0.42679   0.44355   0.44699
  Beta virt. eigenvalues --    0.46300   0.47942   0.50503   0.54619   0.54646
  Beta virt. eigenvalues --    0.56250   0.58102   0.59782   0.63597   0.66040
  Beta virt. eigenvalues --    0.67464   0.71081   0.75868   0.79858   0.82645
  Beta virt. eigenvalues --    0.82955   0.87780   0.88171   0.95023   0.99147
  Beta virt. eigenvalues --    1.04775   1.09194   1.10854   1.14069   1.47896
  Beta virt. eigenvalues --    1.48754   1.52492   1.53725   1.55264   1.56617
  Beta virt. eigenvalues --    1.59892   1.64660   1.67459   1.72582   1.76454
  Beta virt. eigenvalues --    1.78644   1.79876   1.82788   1.83076   1.86563
  Beta virt. eigenvalues --    1.86901   2.00193   2.03347   2.06970   2.12777
  Beta virt. eigenvalues --    2.17385   2.27747   2.33167   2.34360   2.38144
  Beta virt. eigenvalues --    2.53703   2.58605   2.62419   2.65171   2.75120
  Beta virt. eigenvalues --    2.80177   2.87411   3.06985   3.07592   3.11468
  Beta virt. eigenvalues --    3.14223   3.17130   3.18903   3.29824   3.43715
  Beta virt. eigenvalues --    3.44381   3.48538   3.67366   3.71543   3.89213
  Beta virt. eigenvalues --    4.18557   4.52096   5.14023   5.14091   5.22485
  Beta virt. eigenvalues --    5.25618   5.44098   5.51593   5.52349   6.41265
  Beta virt. eigenvalues --    6.43008   6.63411   6.70298   6.98044   8.85067
  Beta virt. eigenvalues --    9.22361   9.59762  20.91503  22.14778  43.68450
          Condensed to atoms (all electrons):
               1          2          3          4          5
     1  C    5.280192   0.419275  -0.054465   0.364784   0.378293
     2  S    0.419275  14.981474   0.278606  -0.031102  -0.021497
     3  O   -0.054465   0.278606   8.261150   0.002261   0.008536
     4  H    0.364784  -0.031102   0.002261   0.404046  -0.005660
     5  H    0.378293  -0.021497   0.008536  -0.005660   0.395078
          Atomic-Atomic Spin Densities.
               1          2          3          4          5
     1  C    0.000000  -0.000000  -0.000000  -0.000000   0.000000
     2  S   -0.000000  -0.000000  -0.000000   0.000000   0.000000
     3  O   -0.000000  -0.000000   0.000000  -0.000000  -0.000000
     4  H   -0.000000   0.000000  -0.000000  -0.000000  -0.000000
     5  H    0.000000   0.000000  -0.000000  -0.000000  -0.000000
 Mulliken charges and spin densities:
               1          2
     1  C   -0.388079   0.000000
     2  S    0.373245  -0.000000
     3  O   -0.496088   0.000000
     4  H    0.265671  -0.000000
     5  H    0.245251   0.000000
 Sum of Mulliken charges =  -0.00000   0.00000
 Mulliken charges and spin densities with hydrogens summed into heavy atoms:
               1          2
     1  C    0.122843   0.000000
     2  S    0.373245  -0.000000
     3  O   -0.496088   0.000000
 Electronic spatial extent (au):  <R**2>=            828.1856
 Charge=             -0.0000 electrons
 Dipole moment (field-independent basis, Debye):
    X=             -2.3415    Y=              1.0622    Z=              1.8594  Tot=              3.1731
 Quadrupole moment (field-independent basis, Debye-Ang):
   XX=            -33.8481   YY=            -25.6880   ZZ=            -27.2520
   XY=              3.6610   XZ=              6.5639   YZ=             -1.1871
 Traceless Quadrupole moment (field-independent basis, Debye-Ang):
   XX=             -4.9187   YY=              3.2414   ZZ=              1.6774
   XY=              3.6610   XZ=              6.5639   YZ=             -1.1871
 Octapole moment (field-independent basis, Debye-Ang**2):
  XXX=           -198.7690  YYY=             13.9124  ZZZ=             33.1390  XYY=            -58.1202
  XXY=             16.5053  XXZ=             31.1299  XZZ=            -66.2433  YZZ=              7.3673
  YYZ=             10.9161  XYZ=             -6.4030
 Hexadecapole moment (field-independent basis, Debye-Ang**3):
 XXXX=          -1004.9927 YYYY=            -49.3009 ZZZZ=           -101.0161 XXXY=             81.2152
 XXXZ=            155.2939 YYYX=             43.2817 YYYZ=            -18.8639 ZZZX=             98.3684
 ZZZY=            -20.5323 XXYY=           -164.4765 XXZZ=           -199.5861 YYZZ=            -25.4633
 XXYZ=            -27.5011 YYXZ=             32.1827 ZZXY=             22.4894
 N-N= 1.027536228800D+02 E-N=-1.420841325928D+03  KE= 5.114532855732D+02
                          Isotropic Fermi Contact Couplings
        Atom                 a.u.       MegaHertz       Gauss      10(-4) cm-1
     1  C(13)              0.00000       0.00000       0.00000       0.00000
     2  S(33)             -0.00000      -0.00000      -0.00000      -0.00000
     3  O(17)              0.00000      -0.00000      -0.00000      -0.00000
     4  H(1)               0.00000       0.00000       0.00000       0.00000
     5  H(1)              -0.00000      -0.00000      -0.00000      -0.00000
 --------------------------------------------------------
       Center         ----  Spin Dipole Couplings  ----
                      3XX-RR        3YY-RR        3ZZ-RR
 --------------------------------------------------------
     1   Atom       -0.000000      0.000000      0.000000
     2   Atom        0.000000     -0.000000     -0.000000
     3   Atom        0.000000     -0.000000     -0.000000
     4   Atom        0.000000     -0.000000     -0.000000
     5   Atom        0.000000     -0.000000     -0.000000
 --------------------------------------------------------
                        XY            XZ            YZ
 --------------------------------------------------------
     1   Atom        0.000000      0.000000      0.000000
     2   Atom       -0.000000     -0.000000     -0.000000
     3   Atom        0.000000      0.000000     -0.000000
     4   Atom       -0.000000     -0.000000     -0.000000
     5   Atom        0.000000      0.000000     -0.000000
 --------------------------------------------------------


 ---------------------------------------------------------------------------------
              Anisotropic Spin Dipole Couplings in Principal Axis System
 ---------------------------------------------------------------------------------

       Atom             a.u.   MegaHertz   Gauss  10(-4) cm-1        Axes

              Baa    -0.0000    -0.000    -0.000    -0.000  0.9543 -0.0363 -0.2967
     1 C(13)  Bbb    -0.0000    -0.000    -0.000    -0.000 -0.1188  0.8647 -0.4880
              Bcc     0.0000     0.000     0.000     0.000  0.2743  0.5009  0.8209
 
              Baa    -0.0000    -0.000    -0.000    -0.000  0.0346  0.2657  0.9634
     2 S(33)  Bbb    -0.0000    -0.000    -0.000    -0.000  0.1422  0.9529 -0.2679
              Bcc     0.0000     0.000     0.000     0.000  0.9892 -0.1463  0.0048
 
              Baa    -0.0000     0.000     0.000     0.000 -0.2492  0.6378  0.7288
     3 O(17)  Bbb    -0.0000     0.000     0.000     0.000 -0.1645  0.7137 -0.6809
              Bcc     0.0000    -0.000    -0.000    -0.000  0.9544  0.2895  0.0730
 
              Baa    -0.0000    -0.000    -0.000    -0.000  0.2137  0.5143  0.8306
     4 H(1)   Bbb     0.0000     0.000     0.000     0.000 -0.0555  0.8552 -0.5153
              Bcc     0.0000     0.000     0.000     0.000  0.9753 -0.0640 -0.2113
 
              Baa    -0.0000    -0.000    -0.000    -0.000 -0.0670  0.5340  0.8428
     5 H(1)   Bbb     0.0000     0.000     0.000     0.000  0.0765  0.8450 -0.5293
              Bcc     0.0000     0.000     0.000     0.000  0.9948 -0.0290  0.0975
 

 ---------------------------------------------------------------------------------

 No NMR shielding tensors so no spin-rotation constants.
 Leave Link  601 at Tue Jan  3 09:08:49 2023, MaxMem=   536870912 cpu:               0.5 elap:               0.3
 (Enter /opt/software/gaussian/g16.c01/l9999.exe)

 Test job not archived.
 1\1\GINC-GRA607\Stability\UB3LYP\Gen\C1H2O1S1\BHAVUK\03-Jan-2023\0\\#p
  ub3lyp/gen stable=opt scf=(maxcycle=900,verytightlineq,xqc) integral=
 grid=ultrafine symmetry=None density=current iop(99/18=-1) output=wfn\
 \0005_q000_m01_k00_opt_uwb97xd_def2svpd/0005_q000_m01_k00_force_ub3lyp
 _def2tzvpd stable-force\\0,1\C,0,0.9770245042,-0.0197961728,-0.1008273
 286\S,0,2.5880021429,-0.0345660623,-0.126439068\O,0,3.1712397907,-0.71
 43116203,-1.3164938758\H,0,0.5180717789,0.4715880124,0.7588975415\H,0,
 0.3708017881,-0.4702041579,-0.8890472689\\Version=ES64L-G16RevC.01\HF=
 -512.7585771\S2=0.\S2-1=0.\S2A=0.\RMSD=7.217e-09\Dipole=-0.921211,0.41
 79099,0.7315528\Quadrupole=-3.6569444,2.4098723,1.2470721,2.7218269,4.
 8800663,-0.8825865\PG=Unknown\\@

 Writing a WFN file to "0005_q000_m01_k00_force_ub3lyp_def2tzvpd.wfn"


 IF AT FIRST YOU DON'T SUCCEED, TRY, TRY AGAIN.
 THEN GIVE UP;
 THERE'S NO USE BEING A DAMN FOOL ABOUT IT.

                                 -- W. C. FIELDS
 Job cpu time:       0 days  0 hours  2 minutes 57.2 seconds.
 Elapsed time:       0 days  0 hours  1 minutes 29.6 seconds.
 File lengths (MBytes):  RWF=    111 Int=      0 D2E=      0 Chk=      4 Scr=      1
 Normal termination of Gaussian 16 at Tue Jan  3 09:08:49 2023.
 Initial command:
 /opt/software/gaussian/g16.c01/l1.exe "/localscratch/bhavuk.2151415.0/Gau-19622.inp" -scrdir="/localscratch/bhavuk.2151415.0/"
 Entering Link 1 = /opt/software/gaussian/g16.c01/l1.exe PID=     20735.
  
 Copyright (c) 1988-2019, Gaussian, Inc.  All Rights Reserved.
  
 This is part of the Gaussian(R) 16 program.  It is based on
 the Gaussian(R) 09 system (copyright 2009, Gaussian, Inc.),
 the Gaussian(R) 03 system (copyright 2003, Gaussian, Inc.),
 the Gaussian(R) 98 system (copyright 1998, Gaussian, Inc.),
 the Gaussian(R) 94 system (copyright 1995, Gaussian, Inc.),
 the Gaussian 92(TM) system (copyright 1992, Gaussian, Inc.),
 the Gaussian 90(TM) system (copyright 1990, Gaussian, Inc.),
 the Gaussian 88(TM) system (copyright 1988, Gaussian, Inc.),
 the Gaussian 86(TM) system (copyright 1986, Carnegie Mellon
 University), and the Gaussian 82(TM) system (copyright 1983,
 Carnegie Mellon University). Gaussian is a federally registered
 trademark of Gaussian, Inc.
  
 This software contains proprietary and confidential information,
 including trade secrets, belonging to Gaussian, Inc.
  
 This software is provided under written license and may be
 used, copied, transmitted, or stored only in accord with that
 written license.
  
 The following legend is applicable only to US Government
 contracts under FAR:
  
                    RESTRICTED RIGHTS LEGEND
  
 Use, reproduction and disclosure by the US Government is
 subject to restrictions as set forth in subparagraphs (a)
 and (c) of the Commercial Computer Software - Restricted
 Rights clause in FAR 52.227-19.
  
 Gaussian, Inc.
 340 Quinnipiac St., Bldg. 40, Wallingford CT 06492
  
  
 ---------------------------------------------------------------
 Warning -- This program may not be used in any manner that
 competes with the business of Gaussian, Inc. or will provide
 assistance to any competitor of Gaussian, Inc.  The licensee
 of this program is prohibited from giving any competitor of
 Gaussian, Inc. access to this program.  By using this program,
 the user acknowledges that Gaussian, Inc. is engaged in the
 business of creating and licensing software in the field of
 computational chemistry and represents and warrants to the
 licensee that it is not a competitor of Gaussian, Inc. and that
 it will not use this program in any manner prohibited above.
 ---------------------------------------------------------------
  

 Cite this work as:
 Gaussian 16, Revision C.01,
 M. J. Frisch, G. W. Trucks, H. B. Schlegel, G. E. Scuseria, 
 M. A. Robb, J. R. Cheeseman, G. Scalmani, V. Barone, 
 G. A. Petersson, H. Nakatsuji, X. Li, M. Caricato, A. V. Marenich, 
 J. Bloino, B. G. Janesko, R. Gomperts, B. Mennucci, H. P. Hratchian, 
 J. V. Ortiz, A. F. Izmaylov, J. L. Sonnenberg, D. Williams-Young, 
 F. Ding, F. Lipparini, F. Egidi, J. Goings, B. Peng, A. Petrone, 
 T. Henderson, D. Ranasinghe, V. G. Zakrzewski, J. Gao, N. Rega, 
 G. Zheng, W. Liang, M. Hada, M. Ehara, K. Toyota, R. Fukuda, 
 J. Hasegawa, M. Ishida, T. Nakajima, Y. Honda, O. Kitao, H. Nakai, 
 T. Vreven, K. Throssell, J. A. Montgomery, Jr., J. E. Peralta, 
 F. Ogliaro, M. J. Bearpark, J. J. Heyd, E. N. Brothers, K. N. Kudin, 
 V. N. Staroverov, T. A. Keith, R. Kobayashi, J. Normand, 
 K. Raghavachari, A. P. Rendell, J. C. Burant, S. S. Iyengar, 
 J. Tomasi, M. Cossi, J. M. Millam, M. Klene, C. Adamo, R. Cammi, 
 J. W. Ochterski, R. L. Martin, K. Morokuma, O. Farkas, 
 J. B. Foresman, and D. J. Fox, Gaussian, Inc., Wallingford CT, 2019.
 
 ******************************************
 Gaussian 16:  ES64L-G16RevC.01  3-Jul-2019
                 3-Jan-2023 
 ******************************************
 %chk=0005_q000_m01_k00_force_ub3lyp_def2tzvpd.chk
 %nprocshared=2
 Will use up to    2 processors via shared memory.
 %mem=4GB
 ----------------------------------------------------------------------
 #p ub3lyp/chkbasis force guess=read geom=check scf=(maxcycle=900,veryt
 ightlineq,xqc) integral=grid=ultrafine symmetry=None density=current p
 op=(cm5,hlygat,mbs,npa) output=wfx
 ----------------------------------------------------------------------
 1/10=7,29=2,30=1,38=1/1,3;
 2/12=2,15=3,40=1/2;
 3/5=7,6=2,11=2,14=-4,25=1,30=1,67=1,71=1,74=-5,75=-5,116=2/1,2,3;
 4/5=1/1;
 5/5=2,7=900,8=3,13=1,17=3,38=6/2,8;
 6/7=2,8=2,9=2,10=2,15=8,20=15,22=-1,27=100,28=1,40=-1,79=1/1,2,7;
 7/29=1,30=1/1,2,3,16;
 1/10=7,30=1/3;
 99/6=200/99;
 Leave Link    1 at Tue Jan  3 09:08:50 2023, MaxMem=   536870912 cpu:               0.2 elap:               0.1
 (Enter /opt/software/gaussian/g16.c01/l101.exe)
 ----------------------------------------------------------------------
 0005_q000_m01_k00_opt_uwb97xd_def2svpd/0005_q000_m01_k00_force_ub3lyp_
 def2tzvpd stable-force
 ----------------------------------------------------------------------
 Structure from the checkpoint file:  "0005_q000_m01_k00_force_ub3lyp_def2tzvpd.chk"
 Charge =  0 Multiplicity = 1
 Z-Matrix found in chk file.
 C,0,0.9770245042,-0.0197961728,-0.1008273286
 S,0,2.5880021429,-0.0345660623,-0.126439068
 O,0,3.1712397907,-0.7143116203,-1.3164938758
 H,0,0.5180717789,0.4715880124,0.7588975415
 H,0,0.3708017881,-0.4702041579,-0.8890472689
 Recover connectivity data from disk.
 ITRead=  0  0  0  0  0
 MicOpt= -1 -1 -1 -1 -1
 NAtoms=      5 NQM=        5 NQMF=       0 NMMI=      0 NMMIF=      0
                NMic=       0 NMicF=      0.
                    Isotopes and Nuclear Properties:
 (Nuclear quadrupole moments (NQMom) in fm**2, nuclear magnetic moments (NMagM)
  in nuclear magnetons)

  Atom         1           2           3           4           5
 IAtWgt=          12          32          16           1           1
 AtmWgt=  12.0000000  31.9720718  15.9949146   1.0078250   1.0078250
 NucSpn=           0           0           0           1           1
 AtZEff=   3.6000000  13.6000000   5.6000000   1.0000000   1.0000000
 NQMom=    0.0000000   0.0000000   0.0000000   0.0000000   0.0000000
 NMagM=    0.0000000   0.0000000   0.0000000   2.7928460   2.7928460
 AtZNuc=   6.0000000  16.0000000   8.0000000   1.0000000   1.0000000
 Leave Link  101 at Tue Jan  3 09:08:50 2023, MaxMem=   536870912 cpu:               0.5 elap:               0.2
 (Enter /opt/software/gaussian/g16.c01/l103.exe)

 GradGradGradGradGradGradGradGradGradGradGradGradGradGradGradGradGradGrad
 Berny optimization.
 Initialization pass.
 Trust Radius=3.00D-01 FncErr=1.00D-07 GrdErr=1.00D-07 EigMax=2.50D+02 EigMin=1.00D-04
 Number of steps in this run=      2 maximum allowed number of steps=      2.
 GradGradGradGradGradGradGradGradGradGradGradGradGradGradGradGradGradGrad

 Leave Link  103 at Tue Jan  3 09:08:50 2023, MaxMem=   536870912 cpu:               0.1 elap:               0.0
 (Enter /opt/software/gaussian/g16.c01/l202.exe)
                          Input orientation:                          
 ---------------------------------------------------------------------
 Center     Atomic      Atomic             Coordinates (Angstroms)
 Number     Number       Type             X           Y           Z
 ---------------------------------------------------------------------
      1          6           0        0.977025   -0.019796   -0.100827
      2         16           0        2.588002   -0.034566   -0.126439
      3          8           0        3.171240   -0.714312   -1.316494
      4          1           0        0.518072    0.471588    0.758898
      5          1           0        0.370802   -0.470204   -0.889047
 ---------------------------------------------------------------------
                    Distance matrix (angstroms):
                    1          2          3          4          5
     1  C    0.000000
     2  S    1.611249   0.000000
     3  O    2.602840   1.489446   0.000000
     4  H    1.091432   2.307515   3.571121   0.000000
     5  H    1.091634   2.384812   2.843370   1.903781   0.000000
 Symmetry turned off by external request.
 Stoichiometry    CH2OS
 Rotational constants (GHZ):          39.0370487           9.3459813           7.5406507
 Leave Link  202 at Tue Jan  3 09:08:50 2023, MaxMem=   536870912 cpu:               0.0 elap:               0.0
 (Enter /opt/software/gaussian/g16.c01/l301.exe)
 Basis read from chk: "0005_q000_m01_k00_force_ub3lyp_def2tzvpd.chk" (5D, 7F)
 No pseudopotential information found on chk file.
   141 basis functions,   220 primitive gaussians,   159 cartesian basis functions
    16 alpha electrons       16 beta electrons
       nuclear repulsion energy       102.7536228800 Hartrees.
 IExCor=  402 DFT=T Ex+Corr=B3LYP ExCW=0 ScaHFX=  0.200000
 ScaDFX=  0.800000  0.720000  1.000000  0.810000 ScalE2=  1.000000  1.000000
 IRadAn=      5 IRanWt=     -1 IRanGd=            0 ICorTp=0 IEmpDi=  4
 NAtoms=    5 NActive=    5 NUniq=    5 SFac= 1.00D+00 NAtFMM=   60 NAOKFM=F Big=F
 Integral buffers will be    131072 words long.
 Raffenetti 2 integral format.
 Two-electron integral symmetry is turned off.
 No density basis found on file  20724.
 Leave Link  301 at Tue Jan  3 09:08:50 2023, MaxMem=   536870912 cpu:               0.1 elap:               0.1
 (Enter /opt/software/gaussian/g16.c01/l302.exe)
 NPDir=0 NMtPBC=     1 NCelOv=     1 NCel=       1 NClECP=     1 NCelD=      1
         NCelK=      1 NCelE2=     1 NClLst=     1 CellRange=     0.0.
 One-electron integrals computed using PRISM.
 NBasis=   141 RedAO= T EigKep=  5.73D-05  NBF=   141
 NBsUse=   141 1.00D-06 EigRej= -1.00D+00 NBFU=   141
 Precomputing XC quadrature grid using
 IXCGrd= 4 IRadAn=           5 IRanWt=          -1 IRanGd=           0 AccXCQ= 0.00D+00.
 Generated NRdTot=       0 NPtTot=           0 NUsed=           0 NTot=          32
 NSgBfM=   158   158   158   158   158 MxSgAt=     5 MxSgA2=     5.
 Leave Link  302 at Tue Jan  3 09:08:50 2023, MaxMem=   536870912 cpu:               0.4 elap:               0.2
 (Enter /opt/software/gaussian/g16.c01/l303.exe)
 DipDrv:  MaxL=1.
 Leave Link  303 at Tue Jan  3 09:08:50 2023, MaxMem=   536870912 cpu:               0.1 elap:               0.0
 (Enter /opt/software/gaussian/g16.c01/l401.exe)
 Initial guess from the checkpoint file:  "0005_q000_m01_k00_force_ub3lyp_def2tzvpd.chk"
 B after Tr=     0.000000    0.000000    0.000000
         Rot=    1.000000    0.000000    0.000000    0.000000 Ang=   0.00 deg.
 Guess basis will be translated and rotated to current coordinates.
 JPrj=2 DoOrth=T DoCkMO=T.
 Initial guess <Sx>= 0.0000 <Sy>= 0.0000 <Sz>= 0.0000 <S**2>=-0.0000 S=-0.0000
 Leave Link  401 at Tue Jan  3 09:08:50 2023, MaxMem=   536870912 cpu:               0.3 elap:               0.1
 (Enter /opt/software/gaussian/g16.c01/l502.exe)
 Keep R1 and R2 ints in memory in canonical form, NReq=102278563.
 FoFCou: FMM=F IPFlag=           0 FMFlag=           0 FMFlg1=           0
         NFxFlg=           0 DoJE=F BraDBF=F KetDBF=F FulRan=T
         wScrn=  0.000000 ICntrl=       600 IOpCl=  0 I1Cent=           0 NGrid=           0
         NMat0=    1 NMatS0=  10011 NMatT0=    0 NMatD0=    1 NMtDS0=    0 NMtDT0=    0
 Symmetry not used in FoFCou.
 Two-electron integral symmetry not used.
 UHF open shell SCF:
 Using DIIS extrapolation, IDIIS=  1040.
 NGot=   536870912 LenX=   436588043 LenY=   436562321
 Requested convergence on RMS density matrix=1.00D-08 within 128 cycles.
 Requested convergence on MAX density matrix=1.00D-06.
 Requested convergence on             energy=1.00D-06.
 No special actions if energy rises.

 Cycle   1  Pass 1  IDiag  1:
 E= -512.758577132754    
 DIIS: error= 1.16D-08 at cycle   1 NSaved=   1.
 NSaved= 1 IEnMin= 1 EnMin= -512.758577132754     IErMin= 1 ErrMin= 1.16D-08
 ErrMax= 1.16D-08  0.00D+00 EMaxC= 1.00D-01 BMatC= 1.23D-13 BMatP= 1.23D-13
 IDIUse=1 WtCom= 1.00D+00 WtEn= 0.00D+00
 Coeff-Com:  0.100D+01
 Coeff:      0.100D+01
 Gap=     0.187 Goal=   None    Shift=    0.000
 Gap=     0.187 Goal=   None    Shift=    0.000
 RMSDP=2.23D-09 MaxDP=5.03D-08              OVMax= 2.54D-07

 SCF Done:  E(UB3LYP) =  -512.758577133     A.U. after    1 cycles
            NFock=  1  Conv=0.22D-08     -V/T= 2.0026
 <Sx>= 0.0000 <Sy>= 0.0000 <Sz>= 0.0000 <S**2>=-0.0000 S=-0.0000
 <L.S>=  0.00000000000    
 KE= 5.114532837817D+02 PE=-1.420841324136D+03 EE= 2.938758403421D+02
 Annihilation of the first spin contaminant:
 S**2 before annihilation    -0.0000,   after     0.0000
 Leave Link  502 at Tue Jan  3 09:08:54 2023, MaxMem=   536870912 cpu:               6.6 elap:               3.4
 (Enter /opt/software/gaussian/g16.c01/l508.exe)
 QCSCF skips out because SCF is already converged.
 Leave Link  508 at Tue Jan  3 09:08:54 2023, MaxMem=   536870912 cpu:               0.0 elap:               0.0
 (Enter /opt/software/gaussian/g16.c01/l601.exe)
 Copying SCF densities to generalized density rwf, IOpCl= 1 IROHF=0.

 **********************************************************************

            Population analysis using the SCF Density.

 **********************************************************************

 Alpha  occ. eigenvalues --  -88.97158 -19.13310 -10.22833  -8.03683  -5.99838
 Alpha  occ. eigenvalues --   -5.99821  -5.99407  -1.04550  -0.80403  -0.60852
 Alpha  occ. eigenvalues --   -0.49359  -0.46676  -0.42323  -0.39547  -0.29285
 Alpha  occ. eigenvalues --   -0.28094
 Alpha virt. eigenvalues --   -0.09440  -0.00213   0.00160   0.01840   0.03230
 Alpha virt. eigenvalues --    0.04100   0.06838   0.07965   0.09378   0.11210
 Alpha virt. eigenvalues --    0.11919   0.12536   0.14649   0.15674   0.17035
 Alpha virt. eigenvalues --    0.18258   0.19402   0.20022   0.22843   0.24344
 Alpha virt. eigenvalues --    0.25307   0.26299   0.27060   0.29036   0.29883
 Alpha virt. eigenvalues --    0.31480   0.33323   0.34898   0.35416   0.37021
 Alpha virt. eigenvalues --    0.38346   0.41307   0.42679   0.44355   0.44699
 Alpha virt. eigenvalues --    0.46300   0.47942   0.50503   0.54619   0.54646
 Alpha virt. eigenvalues --    0.56250   0.58102   0.59782   0.63597   0.66040
 Alpha virt. eigenvalues --    0.67464   0.71081   0.75868   0.79858   0.82645
 Alpha virt. eigenvalues --    0.82955   0.87780   0.88171   0.95023   0.99147
 Alpha virt. eigenvalues --    1.04775   1.09194   1.10854   1.14069   1.47896
 Alpha virt. eigenvalues --    1.48754   1.52492   1.53725   1.55264   1.56617
 Alpha virt. eigenvalues --    1.59892   1.64660   1.67459   1.72582   1.76454
 Alpha virt. eigenvalues --    1.78644   1.79876   1.82788   1.83075   1.86563
 Alpha virt. eigenvalues --    1.86901   2.00193   2.03347   2.06970   2.12777
 Alpha virt. eigenvalues --    2.17385   2.27747   2.33167   2.34360   2.38144
 Alpha virt. eigenvalues --    2.53703   2.58605   2.62419   2.65171   2.75120
 Alpha virt. eigenvalues --    2.80177   2.87411   3.06985   3.07592   3.11468
 Alpha virt. eigenvalues --    3.14223   3.17130   3.18903   3.29824   3.43715
 Alpha virt. eigenvalues --    3.44381   3.48538   3.67366   3.71543   3.89213
 Alpha virt. eigenvalues --    4.18557   4.52096   5.14023   5.14091   5.22485
 Alpha virt. eigenvalues --    5.25618   5.44098   5.51593   5.52349   6.41265
 Alpha virt. eigenvalues --    6.43008   6.63411   6.70299   6.98044   8.85067
 Alpha virt. eigenvalues --    9.22361   9.59762  20.91503  22.14778  43.68450
  Beta  occ. eigenvalues --  -88.97158 -19.13310 -10.22833  -8.03683  -5.99838
  Beta  occ. eigenvalues --   -5.99821  -5.99407  -1.04550  -0.80403  -0.60852
  Beta  occ. eigenvalues --   -0.49359  -0.46676  -0.42323  -0.39547  -0.29285
  Beta  occ. eigenvalues --   -0.28094
  Beta virt. eigenvalues --   -0.09440  -0.00213   0.00160   0.01840   0.03230
  Beta virt. eigenvalues --    0.04100   0.06838   0.07965   0.09378   0.11210
  Beta virt. eigenvalues --    0.11919   0.12536   0.14649   0.15674   0.17035
  Beta virt. eigenvalues --    0.18258   0.19402   0.20022   0.22843   0.24344
  Beta virt. eigenvalues --    0.25307   0.26299   0.27060   0.29036   0.29883
  Beta virt. eigenvalues --    0.31480   0.33323   0.34898   0.35416   0.37021
  Beta virt. eigenvalues --    0.38346   0.41307   0.42679   0.44355   0.44699
  Beta virt. eigenvalues --    0.46300   0.47942   0.50503   0.54619   0.54646
  Beta virt. eigenvalues --    0.56250   0.58102   0.59782   0.63597   0.66040
  Beta virt. eigenvalues --    0.67464   0.71081   0.75868   0.79858   0.82645
  Beta virt. eigenvalues --    0.82955   0.87780   0.88171   0.95023   0.99147
  Beta virt. eigenvalues --    1.04775   1.09194   1.10854   1.14069   1.47896
  Beta virt. eigenvalues --    1.48754   1.52492   1.53725   1.55264   1.56617
  Beta virt. eigenvalues --    1.59892   1.64660   1.67459   1.72582   1.76454
  Beta virt. eigenvalues --    1.78644   1.79876   1.82788   1.83075   1.86563
  Beta virt. eigenvalues --    1.86901   2.00193   2.03347   2.06970   2.12777
  Beta virt. eigenvalues --    2.17385   2.27747   2.33167   2.34360   2.38144
  Beta virt. eigenvalues --    2.53703   2.58605   2.62419   2.65171   2.75120
  Beta virt. eigenvalues --    2.80177   2.87411   3.06985   3.07592   3.11468
  Beta virt. eigenvalues --    3.14223   3.17130   3.18903   3.29824   3.43715
  Beta virt. eigenvalues --    3.44381   3.48538   3.67366   3.71543   3.89213
  Beta virt. eigenvalues --    4.18557   4.52096   5.14023   5.14091   5.22485
  Beta virt. eigenvalues --    5.25618   5.44098   5.51593   5.52349   6.41265
  Beta virt. eigenvalues --    6.43008   6.63411   6.70299   6.98044   8.85067
  Beta virt. eigenvalues --    9.22361   9.59762  20.91503  22.14778  43.68450
          Condensed to atoms (all electrons):
               1          2          3          4          5
     1  C    5.280193   0.419275  -0.054465   0.364784   0.378293
     2  S    0.419275  14.981473   0.278606  -0.031101  -0.021497
     3  O   -0.054465   0.278606   8.261150   0.002261   0.008536
     4  H    0.364784  -0.031101   0.002261   0.404046  -0.005660
     5  H    0.378293  -0.021497   0.008536  -0.005660   0.395078
          Atomic-Atomic Spin Densities.
               1          2          3          4          5
     1  C   -0.000000  -0.000000   0.000000   0.000000  -0.000000
     2  S   -0.000000   0.000000  -0.000000   0.000000   0.000000
     3  O    0.000000  -0.000000   0.000000  -0.000000   0.000000
     4  H    0.000000   0.000000  -0.000000  -0.000000   0.000000
     5  H   -0.000000   0.000000   0.000000   0.000000   0.000000
 Mulliken charges and spin densities:
               1          2
     1  C   -0.388080  -0.000000
     2  S    0.373245   0.000000
     3  O   -0.496087  -0.000000
     4  H    0.265671   0.000000
     5  H    0.245251   0.000000
 Sum of Mulliken charges =  -0.00000  -0.00000
 Mulliken charges and spin densities with hydrogens summed into heavy atoms:
               1          2
     1  C    0.122842  -0.000000
     2  S    0.373245   0.000000
     3  O   -0.496087  -0.000000
 Electronic spatial extent (au):  <R**2>=            828.1856
 Charge=             -0.0000 electrons
 Dipole moment (field-independent basis, Debye):
    X=             -2.3415    Y=              1.0622    Z=              1.8594  Tot=              3.1731
 Quadrupole moment (field-independent basis, Debye-Ang):
   XX=            -33.8481   YY=            -25.6880   ZZ=            -27.2520
   XY=              3.6609   XZ=              6.5638   YZ=             -1.1871
 Traceless Quadrupole moment (field-independent basis, Debye-Ang):
   XX=             -4.9187   YY=              3.2414   ZZ=              1.6774
   XY=              3.6609   XZ=              6.5638   YZ=             -1.1871
 Octapole moment (field-independent basis, Debye-Ang**2):
  XXX=           -198.7689  YYY=             13.9124  ZZZ=             33.1390  XYY=            -58.1202
  XXY=             16.5053  XXZ=             31.1299  XZZ=            -66.2433  YZZ=              7.3673
  YYZ=             10.9161  XYZ=             -6.4029
 Hexadecapole moment (field-independent basis, Debye-Ang**3):
 XXXX=          -1004.9926 YYYY=            -49.3009 ZZZZ=           -101.0160 XXXY=             81.2152
 XXXZ=            155.2939 YYYX=             43.2817 YYYZ=            -18.8639 ZZZX=             98.3684
 ZZZY=            -20.5323 XXYY=           -164.4765 XXZZ=           -199.5861 YYZZ=            -25.4633
 XXYZ=            -27.5011 YYXZ=             32.1827 ZZXY=             22.4894
 N-N= 1.027536228800D+02 E-N=-1.420841321549D+03  KE= 5.114532837817D+02
 There are a total of      114354 grid points.
 ElSum from          density=       31.9999998307
 ElSum from atomic densities=       32.0000000648

 Hirshfeld populations at iteration   1 (CX, CA, CB, DipXYZ):
               1          2          3          4          5          6
     1  C    0.000000   3.042902   3.042902  -0.113683  -0.011609  -0.020367
     2  S    0.000007   7.864148   7.864148   0.050109  -0.027953  -0.048880
     3  O    0.000011   4.157184   4.157184  -0.062494   0.050244   0.087938
     4  H    0.000002   0.470340   0.470340  -0.085387   0.073702   0.128931
     5  H    0.000001   0.465425   0.465425  -0.102717  -0.067711  -0.118487
       Tot   0.000021  16.000000  16.000000  -0.314172   0.016674   0.029136

 Dip from Atomic Chgs             -0.607037   0.401236   0.702417
         Total Dipole             -0.921209   0.417909   0.731553

 Hirshfeld charges, spin densities, dipoles, and CM5 charges using IRadAn=      5:
              Q-H        S-H        Dx         Dy         Dz        Q-CM5   
     1  C   -0.085804   0.000000  -0.113683  -0.011609  -0.020367  -0.161312
     2  S    0.271703   0.000000   0.050109  -0.027953  -0.048880   0.280281
     3  O   -0.314369   0.000000  -0.062494   0.050244   0.087938  -0.355351
     4  H    0.059320   0.000000  -0.085387   0.073702   0.128931   0.113147
     5  H    0.069149  -0.000000  -0.102717  -0.067711  -0.118487   0.123236
       Tot   0.000000   0.000000  -0.314172   0.016674   0.029136   0.000000
 Hirshfeld charges and spin densities with hydrogens summed into heavy atoms:
              Q-H        S-H       Q-CM5   
     1  C    0.042666   0.000000   0.075070
     2  S    0.271703   0.000000   0.280281
     3  O   -0.314369   0.000000  -0.355351
 
 EQQ=-0.683278718361E-29 EQD=-0.377251937032E-15 EDD= 0.153964044836E-02
 EQQ+QD+DD= 0.153964044836E-02
 
 GSVD:  LWork=        -884 too small for GESVD, short by        3770 words or        3770 for optimal perf.
          MBS Condensed to atoms (all electrons):
               1          2          3          4          5
     1  C    5.000411   0.481497  -0.013393   0.374600   0.368620
     2  S    0.481497  14.817968   0.457201  -0.020495  -0.015324
     3  O   -0.013393   0.457201   7.923880   0.000362  -0.000026
     4  H    0.374600  -0.020495   0.000362   0.514899  -0.016468
     5  H    0.368620  -0.015324  -0.000026  -0.016468   0.509692
          MBS Atomic-Atomic Spin Densities.
               1          2          3          4          5
     1  C    0.000000  -0.000000  -0.000000   0.000000  -0.000000
     2  S   -0.000000  -0.000000  -0.000000   0.000000   0.000000
     3  O   -0.000000  -0.000000   0.000000   0.000000   0.000000
     4  H    0.000000   0.000000   0.000000   0.000000  -0.000000
     5  H   -0.000000   0.000000   0.000000  -0.000000  -0.000000
 MBS Mulliken charges and spin densities:
               1          2
     1  C   -0.211736   0.000000
     2  S    0.279153  -0.000000
     3  O   -0.368025  -0.000000
     4  H    0.147103   0.000000
     5  H    0.153506  -0.000000
 Sum of MBS Mulliken charges =  -0.00000   0.00000
 MBS Mulliken charges and spin densities with hydrogens summed into heavy atoms:
               1          2
     1  C    0.088873   0.000000
     2  S    0.279153  -0.000000
     3  O   -0.368025  -0.000000
 MBS Atomic Valencies and Mayer Atomic Bond Orders:
               1          2          3          4          5
     1  C    3.919403   1.806273   0.242222   0.936297   0.934610
     2  S    1.806273   3.817690   1.959462   0.020580   0.031374
     3  O    0.242222   1.959462   2.226700   0.018023   0.006992
     4  H    0.936297   0.020580   0.018023   0.978361   0.003460
     5  H    0.934610   0.031374   0.006992   0.003460   0.976436
 MBS Mayer-style numbers of lone pairs (16.000 valence pairs, 10.041 lone pairs):
               1
     1  C    1.146166
     2  S    5.951579
     3  O    3.070663
     4  H   -0.062732
     5  H   -0.064971
 BEBO parameters in MulMin, MxElBE=  0:
 ELP=  0.00000000000     EBEBO=  0.00000000000     Sum=  0.00000000000    
 ELP=  0.00000000000     EBEBO=  0.00000000000     EJK=  0.00000000000      0.00000000000     Sum=  0.00000000000    
 0 EA=  0.00000000000     EB=  0.00000000000     ETot=  0.00000000000    
[...]
    19    C    1  dxz    Ryd( 4d)     0.00123       1.22506
    20    C    1  dxz    Ryd( 3d)     0.00007       0.71096
    21    C    1  dxz    Ryd( 5d)     0.00007       3.01476
    22    C    1  dyz    Ryd( 4d)     0.00103       1.03221
    23    C    1  dyz    Ryd( 3d)     0.00011       0.73458
    24    C    1  dyz    Ryd( 5d)     0.00001       2.98002
    25    C    1  dx2y2  Ryd( 4d)     0.00205       1.39951
    26    C    1  dx2y2  Ryd( 3d)     0.00022       0.65037
    27    C    1  dx2y2  Ryd( 5d)     0.00001       2.98950
    28    C    1  dz2    Ryd( 4d)     0.00150       1.12387
    29    C    1  dz2    Ryd( 3d)     0.00002       0.69717
    30    C    1  dz2    Ryd( 5d)     0.00001       2.91691
    31    C    1  f(0)   Ryd( 4f)     0.00001       3.07534
    32    C    1  f(C1)  Ryd( 4f)     0.00009       3.50725
    33    C    1  f(S1)  Ryd( 4f)     0.00010       3.19847
    34    C    1  f(C2)  Ryd( 4f)     0.00005       3.18765
    35    C    1  f(S2)  Ryd( 4f)     0.00013       3.34909
    36    C    1  f(C3)  Ryd( 4f)     0.00004       3.49236
    37    C    1  f(S3)  Ryd( 4f)     0.00008       3.21309
 
    38    S    2  S      Cor( 1S)     1.00000     -87.66470
    39    S    2  S      Cor( 2S)     0.99958      -9.10900
    40    S    2  S      Val( 3S)     0.78156      -0.69375
    41    S    2  S      Ryd( 5S)     0.01920       0.64724
    42    S    2  S      Ryd( 4S)     0.00017       0.49330
    43    S    2  S      Ryd( 6S)     0.00001      19.50126
    44    S    2  px     Cor( 2p)     0.99985      -5.98581
    45    S    2  px     Val( 3p)     0.50443      -0.18784
    46    S    2  px     Ryd( 5p)     0.00199       1.05652
    47    S    2  px     Ryd( 6p)     0.00009       1.87300
    48    S    2  px     Ryd( 4p)     0.00008       0.36426
    49    S    2  px     Ryd( 7p)     0.00000       7.90155
    50    S    2  py     Cor( 2p)     0.99992      -5.99151
    51    S    2  py     Val( 3p)     0.55106      -0.24595
    52    S    2  py     Ryd( 5p)     0.00160       0.78052
    53    S    2  py     Ryd( 6p)     0.00006       1.91440
    54    S    2  py     Ryd( 4p)     0.00002       0.29516
    55    S    2  py     Ryd( 7p)     0.00000       8.30020
    56    S    2  pz     Cor( 2p)     0.99993      -5.98880
    57    S    2  pz     Val( 3p)     0.51874      -0.20984
    58    S    2  pz     Ryd( 5p)     0.00322       0.90440
    59    S    2  pz     Ryd( 6p)     0.00013       2.00126
    60    S    2  pz     Ryd( 4p)     0.00003       0.35757
    61    S    2  pz     Ryd( 7p)     0.00000       8.36171
    62    S    2  dxy    Ryd( 3d)     0.01003       0.65565
    63    S    2  dxy    Ryd( 4d)     0.00009       0.66647
    64    S    2  dxy    Ryd( 5d)     0.00003       1.39871
    65    S    2  dxz    Ryd( 3d)     0.00873       0.76556
    66    S    2  dxz    Ryd( 4d)     0.00021       0.84693
    67    S    2  dxz    Ryd( 5d)     0.00004       1.56036
    68    S    2  dyz    Ryd( 3d)     0.00546       0.63660
    69    S    2  dyz    Ryd( 4d)     0.00035       0.74565
    70    S    2  dyz    Ryd( 5d)     0.00003       1.44004
    71    S    2  dx2y2  Ryd( 3d)     0.01153       0.87646
    72    S    2  dx2y2  Ryd( 4d)     0.00011       0.89994
    73    S    2  dx2y2  Ryd( 5d)     0.00004       1.66327
    74    S    2  dz2    Ryd( 3d)     0.01119       0.74278
    75    S    2  dz2    Ryd( 4d)     0.00024       0.82688
    76    S    2  dz2    Ryd( 5d)     0.00002       1.52595
    77    S    2  f(0)   Ryd( 4f)     0.00017       2.26191
    78    S    2  f(C1)  Ryd( 4f)     0.00015       2.31304
    79    S    2  f(S1)  Ryd( 4f)     0.00008       2.09077
    80    S    2  f(C2)  Ryd( 4f)     0.00013       2.32457
    81    S    2  f(S2)  Ryd( 4f)     0.00008       2.15391
    82    S    2  f(C3)  Ryd( 4f)     0.00015       2.25171
    83    S    2  f(S3)  Ryd( 4f)     0.00008       2.20879
 
    84    O    3  S      Cor( 1S)     0.99994     -18.93948
    85    O    3  S      Val( 2S)     0.91802      -0.97474
    86    O    3  S      Ryd( 3S)     0.00123       0.28756
    87    O    3  S      Ryd( 4S)     0.00018       2.19772
    88    O    3  S      Ryd( 5S)     0.00000       5.36829
    89    O    3  S      Ryd( 6S)     0.00000      41.31795
    90    O    3  px     Val( 2p)     0.89739      -0.30265
    91    O    3  px     Ryd( 4p)     0.00088       0.72370
    92    O    3  px     Ryd( 3p)     0.00008       0.47447
    93    O    3  px     Ryd( 5p)     0.00002       2.91302
    94    O    3  py     Val( 2p)     0.81809      -0.30113
    95    O    3  py     Ryd( 4p)     0.00072       0.63595
    96    O    3  py     Ryd( 3p)     0.00007       0.43392
    97    O    3  py     Ryd( 5p)     0.00001       2.85117
    98    O    3  pz     Val( 2p)     0.78113      -0.31857
    99    O    3  pz     Ryd( 4p)     0.00051       0.71987
   100    O    3  pz     Ryd( 3p)     0.00011       0.51736
   101    O    3  pz     Ryd( 5p)     0.00003       3.20101
   102    O    3  dxy    Ryd( 4d)     0.00183       1.34174
   103    O    3  dxy    Ryd( 3d)     0.00001       0.96540
   104    O    3  dxy    Ryd( 5d)     0.00000       6.38296
   105    O    3  dxz    Ryd( 4d)     0.00437       1.46038
   106    O    3  dxz    Ryd( 3d)     0.00001       0.97586
   107    O    3  dxz    Ryd( 5d)     0.00001       6.42835
   108    O    3  dyz    Ryd( 4d)     0.00476       1.49973
   109    O    3  dyz    Ryd( 3d)     0.00001       0.93570
   110    O    3  dyz    Ryd( 5d)     0.00001       6.43037
   111    O    3  dx2y2  Ryd( 4d)     0.00166       1.35756
   112    O    3  dx2y2  Ryd( 3d)     0.00002       0.98696
   113    O    3  dx2y2  Ryd( 5d)     0.00001       6.38993
   114    O    3  dz2    Ryd( 4d)     0.00491       1.52404
   115    O    3  dz2    Ryd( 3d)     0.00001       0.93510
   116    O    3  dz2    Ryd( 5d)     0.00002       6.43866
   117    O    3  f(0)   Ryd( 4f)     0.00005       5.33452
   118    O    3  f(C1)  Ryd( 4f)     0.00006       5.37464
   119    O    3  f(S1)  Ryd( 4f)     0.00006       5.41242
   120    O    3  f(C2)  Ryd( 4f)     0.00004       5.30624
   121    O    3  f(S2)  Ryd( 4f)     0.00006       5.37177
   122    O    3  f(C3)  Ryd( 4f)     0.00001       5.18978
   123    O    3  f(S3)  Ryd( 4f)     0.00001       5.18733
 
   124    H    4  S      Val( 1S)     0.38221      -0.02640
   125    H    4  S      Ryd( 3S)     0.00035       1.34106
   126    H    4  S      Ryd( 2S)     0.00003       1.23722
   127    H    4  px     Ryd( 2p)     0.00026       0.48227
   128    H    4  px     Ryd( 3p)     0.00002       2.29226
   129    H    4  py     Ryd( 2p)     0.00090       0.37766
   130    H    4  py     Ryd( 3p)     0.00004       2.17588
   131    H    4  pz     Ryd( 2p)     0.00073       0.45847
   132    H    4  pz     Ryd( 3p)     0.00006       2.55544
 
   133    H    5  S      Val( 1S)     0.37962      -0.01575
   134    H    5  S      Ryd( 3S)     0.00063       1.42968
   135    H    5  S      Ryd( 2S)     0.00004       1.09270
   136    H    5  px     Ryd( 2p)     0.00029       0.52810
   137    H    5  px     Ryd( 3p)     0.00002       2.40053
   138    H    5  py     Ryd( 2p)     0.00023       0.40635
   139    H    5  py     Ryd( 3p)     0.00005       2.17322
   140    H    5  pz     Ryd( 2p)     0.00055       0.51024
   141    H    5  pz     Ryd( 3p)     0.00005       2.48136

 WARNING:  Population inversion found on atom  C    1
           Population inversion found on atom  S    2
           Population inversion found on atom  O    3
           Population inversion found on atom  H    4
           Population inversion found on atom  H    5


 Summary of Natural Population Analysis:                  
                                                          
                                       Natural Population 
                Natural  -----------------------------------------------
    Atom  No    Charge         Core      Valence    Rydberg      Total
 -----------------------------------------------------------------------
      C    1   -0.36699      0.99978     2.35276    0.01445     3.36699
      S    2    0.56940      4.99927     2.35579    0.07554     7.43060
      O    3   -0.43633      0.99994     3.41464    0.02175     4.43633
      H    4    0.11539      0.00000     0.38221    0.00240     0.38461
      H    5    0.11852      0.00000     0.37962    0.00186     0.38148
 =======================================================================
   * Total *   -0.00000      6.99898     8.88502    0.11599    16.00000

                                 Natural Population      
 --------------------------------------------------------
   Core                       6.99898 ( 99.9855% of   7)
   Valence                    8.88502 ( 98.7224% of   9)
   Natural Minimal Basis     15.88401 ( 99.2750% of  16)
   Natural Rydberg Basis      0.11599 (  0.7250% of  16)
 --------------------------------------------------------

    Atom  No          Natural Electron Configuration
 ----------------------------------------------------------------------------
      C    1      [core]2S( 0.61)2p( 1.74)4d( 0.01)
      S    2      [core]3S( 0.78)3p( 1.57)3d( 0.05)5S( 0.02)5p( 0.01)
      O    3      [core]2S( 0.92)2p( 2.50)4d( 0.02)
      H    4            1S( 0.38)
      H    5            1S( 0.38)


 NBO analysis skipped by request.
 Leave Link  607 at Tue Jan  3 09:08:57 2023, MaxMem=   536870912 cpu:               3.8 elap:               1.9
 (Enter /opt/software/gaussian/g16.c01/l701.exe)
 ... and contract with generalized density number  0.
 Compute integral first derivatives.
 Leave Link  701 at Tue Jan  3 09:08:57 2023, MaxMem=   536870912 cpu:               0.3 elap:               0.2
 (Enter /opt/software/gaussian/g16.c01/l702.exe)
 L702 exits ... SP integral derivatives will be done elsewhere.
 Leave Link  702 at Tue Jan  3 09:08:57 2023, MaxMem=   536870912 cpu:               0.1 elap:               0.0
 (Enter /opt/software/gaussian/g16.c01/l703.exe)
 Integral derivatives from FoFJK, PRISM(SPDF).
 Compute integral first derivatives, UseDBF=F ICtDFT=           0.
 Calling FoFJK, ICntrl=      2127 FMM=F ISym2X=0 I1Cent= 0 IOpClX= 1 NMat=1 NMatS=1 NMatT=0.
 FoFJK:  IHMeth= 1 ICntrl=    2127 DoSepK=F KAlg= 0 I1Cent=           0 FoldK=F
 IRaf=         0 NMat=       1 IRICut=       1 DoRegI=T DoRafI=F ISym2E= 0 IDoP0=0 IntGTp=1.
 FoFCou: FMM=F IPFlag=           0 FMFlag=      100000 FMFlg1=         800
         NFxFlg=           0 DoJE=F BraDBF=F KetDBF=F FulRan=T
         wScrn=  0.000000 ICntrl=      2127 IOpCl=  1 I1Cent=           0 NGrid=           0
         NMat0=    1 NMatS0=      1 NMatT0=    0 NMatD0=    1 NMtDS0=    0 NMtDT0=    0
 Symmetry not used in FoFCou.
 Leave Link  703 at Tue Jan  3 09:09:05 2023, MaxMem=   536870912 cpu:              14.3 elap:               7.2
 (Enter /opt/software/gaussian/g16.c01/l716.exe)
 Dipole        =-9.21208790D-01 4.17909491D-01 7.31552105D-01
 -------------------------------------------------------------------
 Center     Atomic                   Forces (Hartrees/Bohr)
 Number     Number              X              Y              Z
 -------------------------------------------------------------------
      1        6          -0.001901690    0.000622167    0.001093738
      2       16           0.001729674   -0.007898102   -0.013854489
      3        8          -0.004580303    0.007280549    0.012765500
      4        1           0.001935041   -0.002831256   -0.004939312
      5        1           0.002817278    0.002826642    0.004934564
 -------------------------------------------------------------------
 Cartesian Forces:  Max     0.013854489 RMS     0.006196214
 Z-matrix is all fixed cartesians, so copy forces.
 Force constants in Cartesian coordinates: 
                1             2             3             4             5 
      1  0.829676D+00
      2  0.511240D-02  0.243810D+00
      3  0.905768D-02  0.234956D+00  0.520669D+00
      4 -0.491409D+00 -0.959762D-02 -0.168745D-01  0.641682D+00
      5  0.287596D-02 -0.491361D-01 -0.278604D-01 -0.128355D+00  0.207963D+00
      6  0.496707D-02 -0.278624D-01 -0.819862D-01 -0.224638D+00  0.320470D+00
      7  0.492524D-03  0.133103D-01  0.233039D-01 -0.150309D+00  0.124519D+00
      8  0.104201D-03  0.602149D-02  0.308174D-02  0.137725D+00 -0.180658D+00
      9  0.181864D-03  0.308386D-02  0.966084D-02  0.241117D+00 -0.294338D+00
     10 -0.151987D+00  0.492920D-01  0.862296D-01  0.424157D-03  0.114682D-01
     11  0.447359D-01 -0.101753D+00 -0.113561D+00  0.975664D-04  0.365001D-02
     12  0.782568D-01 -0.113560D+00 -0.235538D+00  0.170666D-03  0.403592D-02
     13 -0.186773D+00 -0.581171D-01 -0.101717D+00 -0.388712D-03 -0.105080D-01
     14 -0.528284D-01 -0.989424D-01 -0.966159D-01  0.130067D-03  0.181809D-01
     15 -0.924634D-01 -0.966168D-01 -0.212806D+00  0.224637D-03 -0.230723D-02
                6             7             8             9            10 
      6  0.585965D+00
      7  0.217995D+00  0.149816D+00
      8 -0.294336D+00 -0.137829D+00  0.174946D+00
      9 -0.527847D+00 -0.241299D+00  0.291077D+00  0.518287D+00
     10  0.200660D-01  0.000000D+00  0.000000D+00  0.000000D+00  0.123189D+00
     11  0.403202D-02  0.000000D+00  0.453529D-02 -0.259031D-02 -0.513576D-01
     12  0.840740D-02  0.000000D+00 -0.259199D-02  0.148040D-02 -0.898457D-01
     13 -0.183902D-01  0.000000D+00  0.000000D+00  0.000000D+00  0.283742D-01
     14 -0.230345D-02  0.000000D+00 -0.484560D-02  0.276754D-02 -0.940299D-02
     15  0.154602D-01  0.000000D+00  0.276920D-02 -0.158162D-02 -0.164496D-01
               11            12            13            14            15 
     11  0.877574D-01
     12  0.120457D+00  0.229666D+00
     13  0.652373D-02  0.114185D-01  0.158787D+00
     14  0.581069D-02 -0.834082D-02  0.621018D-01  0.797964D-01
     15 -0.833779D-02 -0.401584D-02  0.108688D+00  0.104493D+00  0.202943D+00
 Leave Link  716 at Tue Jan  3 09:09:05 2023, MaxMem=   536870912 cpu:               0.1 elap:               0.0
 (Enter /opt/software/gaussian/g16.c01/l103.exe)

 GradGradGradGradGradGradGradGradGradGradGradGradGradGradGradGradGradGrad
 Berny optimization.
 Search for a local minimum.
 Step number   1 out of a maximum of    2
 All quantities printed in internal units (Hartrees-Bohrs-Radians)
 Second derivative matrix not updated -- first step.
 The second derivative matrix:
                          X1        Y1        Z1        X2        Y2
           X1           0.82968
           Y1           0.00511   0.24381
           Z1           0.00906   0.23496   0.52067
           X2          -0.49141  -0.00960  -0.01687   0.64168
           Y2           0.00288  -0.04914  -0.02786  -0.12836   0.20796
           Z2           0.00497  -0.02786  -0.08199  -0.22464   0.32047
           X3           0.00049   0.01331   0.02330  -0.15031   0.12452
           Y3           0.00010   0.00602   0.00308   0.13773  -0.18066
           Z3           0.00018   0.00308   0.00966   0.24112  -0.29434
           X4          -0.15199   0.04929   0.08623   0.00042   0.01147
           Y4           0.04474  -0.10175  -0.11356   0.00010   0.00365
           Z4           0.07826  -0.11356  -0.23554   0.00017   0.00404
           X5          -0.18677  -0.05812  -0.10172  -0.00039  -0.01051
           Y5          -0.05283  -0.09894  -0.09662   0.00013   0.01818
           Z5          -0.09246  -0.09662  -0.21281   0.00022  -0.00231
                          Z2        X3        Y3        Z3        X4
           Z2           0.58597
           X3           0.21800   0.14982
           Y3          -0.29434  -0.13783   0.17495
           Z3          -0.52785  -0.24130   0.29108   0.51829
           X4           0.02007   0.00000   0.00000  -0.00000   0.12319
           Y4           0.00403   0.00000   0.00454  -0.00259  -0.05136
           Z4           0.00841  -0.00000  -0.00259   0.00148  -0.08985
           X5          -0.01839  -0.00000  -0.00000   0.00000   0.02837
           Y5          -0.00230  -0.00000  -0.00485   0.00277  -0.00940
           Z5           0.01546   0.00000   0.00277  -0.00158  -0.01645
                          Y4        Z4        X5        Y5        Z5
           Y4           0.08776
           Z4           0.12046   0.22967
           X5           0.00652   0.01142   0.15879
           Y5           0.00581  -0.00834   0.06210   0.07980
           Z5          -0.00834  -0.00402   0.10869   0.10449   0.20294
 ITU=  0
     Eigenvalues ---    0.02243   0.03701   0.09811   0.12281   0.16471
     Eigenvalues ---    0.34496   0.86201   1.16715   1.68793
 Angle between quadratic step and forces=  54.43 degrees.
 Linear search not attempted -- first point.
 B after Tr=    -0.001818   -0.003718   -0.006518
         Rot=    1.000000    0.000058    0.000536   -0.000329 Ang=   0.07 deg.
 Variable       Old X    -DE/DX   Delta X   Delta X   Delta X     New X
                                 (Linear)    (Quad)   (Total)
    X1        1.84631  -0.00190   0.00000  -0.00241  -0.00401   1.84230
    Y1       -0.03741   0.00062   0.00000   0.00112  -0.00141  -0.03882
    Z1       -0.19054   0.00109   0.00000   0.00195  -0.00258  -0.19312
    X2        4.89062   0.00173   0.00000  -0.00851  -0.01001   4.88060
    Y2       -0.06532  -0.00790   0.00000  -0.00780  -0.00833  -0.07365
    Z2       -0.23894  -0.01385   0.00000  -0.01404  -0.01531  -0.25425
    X3        5.99277  -0.00458   0.00000   0.01326   0.01498   6.00775
    Y3       -1.34985   0.00728   0.00000   0.00674   0.00669  -1.34316
    Z3       -2.48781   0.01277   0.00000   0.01221   0.01229  -2.47553
    X4        0.97901   0.00194   0.00000   0.01245   0.00852   0.98753
    Y4        0.89117  -0.00283   0.00000  -0.00535  -0.00825   0.88292
    Z4        1.43411  -0.00494   0.00000  -0.00833  -0.01389   1.42022
    X5        0.70071   0.00282   0.00000  -0.01001  -0.00948   0.69124
    Y5       -0.88856   0.00283   0.00000   0.01475   0.01130  -0.87726
    Z5       -1.68006   0.00493   0.00000   0.02518   0.01950  -1.66056
         Item               Value     Threshold  Converged?
 Maximum Force            0.013854     0.000450     NO 
 RMS     Force            0.006196     0.000300     NO 
 Maximum Displacement     0.019501     0.001800     NO 
 RMS     Displacement     0.010894     0.001200     NO 
 Predicted change in Energy=-3.055022D-04
 GradGradGradGradGradGradGradGradGradGradGradGradGradGradGradGradGradGrad

 Leave Link  103 at Tue Jan  3 09:09:05 2023, MaxMem=   536870912 cpu:               0.0 elap:               0.0
 (Enter /opt/software/gaussian/g16.c01/l9999.exe)
 Unable to Open any file for archive entry.
 1\1\GINC-GRA607\Force\UB3LYP\Gen\C1H2O1S1\BHAVUK\03-Jan-2023\0\\#p ub3
 lyp/chkbasis force guess=read geom=check scf=(maxcycle=900,verytightli
 neq,xqc) integral=grid=ultrafine symmetry=None density=current pop=(cm
 5,hlygat,mbs,npa) output=wfx\\0005_q000_m01_k00_opt_uwb97xd_def2svpd/0
 005_q000_m01_k00_force_ub3lyp_def2tzvpd stable-force\\0,1\C,0.97702450
 42,-0.0197961728,-0.1008273286\S,2.5880021429,-0.0345660623,-0.1264390
 68\O,3.1712397907,-0.7143116203,-1.3164938758\H,0.5180717789,0.4715880
 124,0.7588975415\H,0.3708017881,-0.4702041579,-0.8890472689\\Version=E
 S64L-G16RevC.01\HF=-512.7585771\S2=0.\S2-1=0.\S2A=0.\RMSD=2.230e-09\RM
 SF=6.196e-03\Dipole=-0.9212088,0.4179095,0.7315521\Quadrupole=-3.65693
 6,2.4098671,1.247069,2.7218243,4.8800616,-0.8825848\PG=Unknown\\@
 The archive entry for this job was punched.

 Writing a WFNX file to "0005_q000_m01_k00_force_ub3lyp_def2tzvpd.wfx"


 FAULTILY FAULTLESS, ICILY REGULAR, SPLENDIDLY NULL...
           MAUDE BY TENNYSON
 Job cpu time:       0 days  0 hours  0 minutes 29.3 seconds.
 Elapsed time:       0 days  0 hours  0 minutes 14.4 seconds.
 File lengths (MBytes):  RWF=     16 Int=      0 D2E=      0 Chk=      4 Scr=      1
 Normal termination of Gaussian 16 at Tue Jan  3 09:09:05 2023.
