 Entering Gaussian System, Link 0=g16
 Input=0005_q000_m01_k00_force_ub3lyp_def2qzvp.com
 Output=0005_q000_m01_k00_force_ub3lyp_def2qzvp.log
 Initial command:
 /opt/software/gaussian/g16.c01/l1.exe "/localscratch/bhavuk.2151410.0/Gau-24115.inp" -scrdir="/localscratch/bhavuk.2151410.0/"
 Entering Link 1 = /opt/software/gaussian/g16.c01/l1.exe PID=     24117.
  
 Copyright (c) 1988-2019, Gaussian, Inc.  All Rights Reserved.
  
 This is part of the Gaussian(R) 16 program.  It is based on
 the Gaussian(R) 09 system (copyright 2009, Gaussian, Inc.),
 the Gaussian(R) 03 system (copyright 2003, Gaussian, Inc.),
 the Gaussian(R) 98 system (copyright 1998, Gaussian, Inc.),
 the Gaussian(R) 94 system (copyright 1995, Gaussian, Inc.),
 the Gaussian 92(TM) system (copyright 1992, Gaussian, Inc.),
 the Gaussian 90(TM) system (copyright 1990, Gaussian, Inc.),
 the Gaussian 88(TM) system (copyright 1988, Gaussian, Inc.),
 the Gaussian 86(TM) system (copyright 1986, Carnegie Mellon
 University), and the Gaussian 82(TM) system (copyright 1983,
 Carnegie Mellon University). Gaussian is a federally registered
 trademark of Gaussian, Inc.
  
 This software contains proprietary and confidential information,
 including trade secrets, belonging to Gaussian, Inc.
  
 This software is provided under written license and may be
 used, copied, transmitted, or stored only in accord with that
 written license.
  
 The following legend is applicable only to US Government
 contracts under FAR:
  
                    RESTRICTED RIGHTS LEGEND
  
 Use, reproduction and disclosure by the US Government is
 subject to restrictions as set forth in subparagraphs (a)
 and (c) of the Commercial Computer Software - Restricted
 Rights clause in FAR 52.227-19.
  
 Gaussian, Inc.
 340 Quinnipiac St., Bldg. 40, Wallingford CT 06492
  
  
 ---------------------------------------------------------------
 Warning -- This program may not be used in any manner that
 competes with the business of Gaussian, Inc. or will provide
 assistance to any competitor of Gaussian, Inc.  The licensee
 of this program is prohibited from giving any competitor of
 Gaussian, Inc. access to this program.  By using this program,
 the user acknowledges that Gaussian, Inc. is engaged in the
 business of creating and licensing software in the field of
 computational chemistry and represents and warrants to the
 licensee that it is not a competitor of Gaussian, Inc. and that
 it will not use this program in any manner prohibited above.
 ---------------------------------------------------------------
  

 Cite this work as:
 Gaussian 16, Revision C.01,
 M. J. Frisch, G. W. Trucks, H. B. Schlegel, G. E. Scuseria, 
 M. A. Robb, J. R. Cheeseman, G. Scalmani, V. Barone, 
 G. A. Petersson, H. Nakatsuji, X. Li, M. Caricato, A. V. Marenich, 
 J. Bloino, B. G. Janesko, R. Gomperts, B. Mennucci, H. P. Hratchian, 
 J. V. Ortiz, A. F. Izmaylov, J. L. Sonnenberg, D. Williams-Young, 
 F. Ding, F. Lipparini, F. Egidi, J. Goings, B. Peng, A. Petrone, 
 T. Henderson, D. Ranasinghe, V. G. Zakrzewski, J. Gao, N. Rega, 
 G. Zheng, W. Liang, M. Hada, M. Ehara, K. Toyota, R. Fukuda, 
 J. Hasegawa, M. Ishida, T. Nakajima, Y. Honda, O. Kitao, H. Nakai, 
 T. Vreven, K. Throssell, J. A. Montgomery, Jr., J. E. Peralta, 
 F. Ogliaro, M. J. Bearpark, J. J. Heyd, E. N. Brothers, K. N. Kudin, 
 V. N. Staroverov, T. A. Keith, R. Kobayashi, J. Normand, 
 K. Raghavachari, A. P. Rendell, J. C. Burant, S. S. Iyengar, 
 J. Tomasi, M. Cossi, J. M. Millam, M. Klene, C. Adamo, R. Cammi, 
 J. W. Ochterski, R. L. Martin, K. Morokuma, O. Farkas, 
 J. B. Foresman, and D. J. Fox, Gaussian, Inc., Wallingford CT, 2019.
 
 ******************************************
 Gaussian 16:  ES64L-G16RevC.01  3-Jul-2019
                 3-Jan-2023 
 ******************************************
 %chk=0005_q000_m01_k00_force_ub3lyp_def2qzvp.chk
 %nprocshared=2
 Will use up to    2 processors via shared memory.
 %mem=4GB
 ----------------------------------------------------------------------
 #p ub3lyp/gen stable=opt scf=(maxcycle=900,verytightlineq,xqc) integra
 l=grid=ultrafine symmetry=None density=current iop(99/18=-1) output=wf
 n
 ----------------------------------------------------------------------
 1/38=1,172=1/1;
 2/12=2,15=3,17=6,18=5,40=1/2;
 3/5=7,11=2,25=1,30=1,74=-5,75=-5,116=2/1,2,3;
 4//1;
 5/5=2,7=900,8=3,13=1,17=3,38=5/2,8;
 6/7=2,8=2,9=2,10=2,22=-1,28=1/1;
 8/6=1,10=90,11=11/1;
 9/8=-3,42=1,46=1/14;
 5/5=2,7=900,8=3,17=43,38=5/8(-2);
 6/7=2,8=2,9=2,10=2,22=-1,28=1/1;
 99/5=1,6=100,9=1,18=-1/99;
 Leave Link    1 at Tue Jan  3 09:07:00 2023, MaxMem=   536870912 cpu:               0.1 elap:               0.1
 (Enter /opt/software/gaussian/g16.c01/l101.exe)
 ----------------------------------------------------------------------
 0005_q000_m01_k00_opt_uwb97xd_def2svpd/0005_q000_m01_k00_force_ub3lyp_
 def2qzvp stable-force
 ----------------------------------------------------------------------
 Symbolic Z-matrix:
 Charge =  0 Multiplicity = 1
 C                     0.97702  -0.0198   -0.10083 
 S                     2.588    -0.03457  -0.12644 
 O                     3.17124  -0.71431  -1.31649 
 H                     0.51807   0.47159   0.7589 
 H                     0.3708   -0.4702   -0.88905 
 
 ITRead=  0  0  0  0  0
 MicOpt= -1 -1 -1 -1 -1
 NAtoms=      5 NQM=        5 NQMF=       0 NMMI=      0 NMMIF=      0
                NMic=       0 NMicF=      0.
                    Isotopes and Nuclear Properties:
 (Nuclear quadrupole moments (NQMom) in fm**2, nuclear magnetic moments (NMagM)
  in nuclear magnetons)

  Atom         1           2           3           4           5
 IAtWgt=          12          32          16           1           1
 AtmWgt=  12.0000000  31.9720718  15.9949146   1.0078250   1.0078250
 NucSpn=           0           0           0           1           1
 AtZEff=  -0.0000000  -0.0000000  -0.0000000  -0.0000000  -0.0000000
 NQMom=    0.0000000   0.0000000   0.0000000   0.0000000   0.0000000
 NMagM=    0.0000000   0.0000000   0.0000000   2.7928460   2.7928460
 AtZNuc=   6.0000000  16.0000000   8.0000000   1.0000000   1.0000000
 Leave Link  101 at Tue Jan  3 09:07:00 2023, MaxMem=   536870912 cpu:               0.5 elap:               0.3
 (Enter /opt/software/gaussian/g16.c01/l202.exe)
                          Input orientation:                          
 ---------------------------------------------------------------------
 Center     Atomic      Atomic             Coordinates (Angstroms)
 Number     Number       Type             X           Y           Z
 ---------------------------------------------------------------------
      1          6           0        0.977025   -0.019796   -0.100827
      2         16           0        2.588002   -0.034566   -0.126439
      3          8           0        3.171240   -0.714312   -1.316494
      4          1           0        0.518072    0.471588    0.758898
      5          1           0        0.370802   -0.470204   -0.889047
 ---------------------------------------------------------------------
                    Distance matrix (angstroms):
                    1          2          3          4          5
     1  C    0.000000
     2  S    1.611249   0.000000
     3  O    2.602840   1.489446   0.000000
     4  H    1.091432   2.307515   3.571121   0.000000
     5  H    1.091634   2.384812   2.843370   1.903781   0.000000
 Symmetry turned off by external request.
 Stoichiometry    CH2OS
 Rotational constants (GHZ):          39.0370487           9.3459813           7.5406507
 Leave Link  202 at Tue Jan  3 09:07:00 2023, MaxMem=   536870912 cpu:               0.0 elap:               0.0
 (Enter /opt/software/gaussian/g16.c01/l301.exe)
 General basis read from cards:  (5D, 7F)
 Centers:       4      5
 S 4 1.00
     Exponent=  1.9069169000D+02 Coefficients=  7.0815167000D-04
     Exponent=  2.8605532000D+01 Coefficients=  5.4678827000D-03
     Exponent=  6.5095943000D+00 Coefficients=  2.7966605000D-02
     Exponent=  1.8412455000D+00 Coefficients=  1.0764538000D-01
 S 1 1.00
     Exponent=  5.9853725000D-01 Coefficients=  1.0000000000D+00
 S 1 1.00
     Exponent=  2.1397624000D-01 Coefficients=  1.0000000000D+00
 S 1 1.00
     Exponent=  8.0316286000D-02 Coefficients=  1.0000000000D+00
 P 1 1.00
     Exponent=  2.2920000000D+00 Coefficients=  1.0000000000D+00
 P 1 1.00
     Exponent=  8.3800000000D-01 Coefficients=  1.0000000000D+00
 P 1 1.00
     Exponent=  2.9200000000D-01 Coefficients=  1.0000000000D+00
 D 1 1.00
     Exponent=  2.0620000000D+00 Coefficients=  1.0000000000D+00
 D 1 1.00
     Exponent=  6.6200000000D-01 Coefficients=  1.0000000000D+00
 F 1 1.00
     Exponent=  1.3970000000D+00 Coefficients=  1.0000000000D+00
 ****
 Centers:       1
 S 8 1.00
     Exponent=  6.7025071029D+04 Coefficients=  3.8736308501D-05
     Exponent=  1.0039986538D+04 Coefficients=  3.0107917575D-04
     Exponent=  2.2849316911D+03 Coefficients=  1.5787918095D-03
     Exponent=  6.4714122130D+02 Coefficients=  6.6087087195D-03
     Exponent=  2.1109472335D+02 Coefficients=  2.3367123250D-02
     Exponent=  7.6177643862D+01 Coefficients=  7.0420716898D-02
     Exponent=  2.9633839163D+01 Coefficients=  1.7360344953D-01
     Exponent=  1.2187785081D+01 Coefficients=  3.2292305648D-01
 S 2 1.00
     Exponent=  5.3026006299D+01 Coefficients=  7.4897404492D-02
     Exponent=  1.5258502776D+01 Coefficients=  7.6136220983D-01
 S 1 1.00
     Exponent=  5.2403957464D+00 Coefficients=  1.0000000000D+00
 S 1 1.00
     Exponent=  2.2905022379D+00 Coefficients=  1.0000000000D+00
 S 1 1.00
     Exponent=  6.9673283006D-01 Coefficients=  1.0000000000D+00
 S 1 1.00
     Exponent=  2.7599337363D-01 Coefficients=  1.0000000000D+00
 S 1 1.00
     Exponent=  1.0739884389D-01 Coefficients=  1.0000000000D+00
 P 5 1.00
     Exponent=  1.0512555082D+02 Coefficients=  8.4647553844D-04
     Exponent=  2.4884461066D+01 Coefficients=  6.6274038534D-03
     Exponent=  7.8637230826D+00 Coefficients=  3.0120390419D-02
     Exponent=  2.8407001835D+00 Coefficients=  9.9951435476D-02
     Exponent=  1.1227137335D+00 Coefficients=  2.3826299282D-01
 P 1 1.00
     Exponent=  4.6050725555D-01 Coefficients=  1.0000000000D+00
 P 1 1.00
     Exponent=  1.8937530913D-01 Coefficients=  1.0000000000D+00
 P 1 1.00
     Exponent=  7.5983791611D-02 Coefficients=  1.0000000000D+00
 D 1 1.00
     Exponent=  1.8480000000D+00 Coefficients=  1.0000000000D+00
 D 1 1.00
     Exponent=  6.4900000000D-01 Coefficients=  1.0000000000D+00
 D 1 1.00
     Exponent=  2.2800000000D-01 Coefficients=  1.0000000000D+00
 F 1 1.00
     Exponent=  1.4190000000D+00 Coefficients=  1.0000000000D+00
 F 1 1.00
     Exponent=  4.8500000000D-01 Coefficients=  1.0000000000D+00
 G 1 1.00
     Exponent=  1.0110000000D+00 Coefficients=  1.0000000000D+00
 ****
 Centers:       3
 S 8 1.00
     Exponent=  1.1650646908D+05 Coefficients=  4.0383857939D-05
     Exponent=  1.7504349724D+04 Coefficients=  3.1255139004D-04
     Exponent=  3.9934513230D+03 Coefficients=  1.6341473495D-03
     Exponent=  1.1330063186D+03 Coefficients=  6.8283224757D-03
     Exponent=  3.6999569594D+02 Coefficients=  2.4124410221D-02
     Exponent=  1.3362074349D+02 Coefficients=  7.2730206154D-02
     Exponent=  5.2035643649D+01 Coefficients=  1.7934429892D-01
     Exponent=  2.1461939313D+01 Coefficients=  3.3059588895D-01
 S 2 1.00
     Exponent=  8.9835051252D+01 Coefficients=  9.6468652996D-02
     Exponent=  2.6428010844D+01 Coefficients=  9.4117481120D-01
 S 1 1.00
     Exponent=  9.2822824649D+00 Coefficients=  1.0000000000D+00
 S 1 1.00
     Exponent=  4.0947728533D+00 Coefficients=  1.0000000000D+00
 S 1 1.00
     Exponent=  1.3255349078D+00 Coefficients=  1.0000000000D+00
 S 1 1.00
     Exponent=  5.1877230787D-01 Coefficients=  1.0000000000D+00
 S 1 1.00
     Exponent=  1.9772676454D-01 Coefficients=  1.0000000000D+00
 P 5 1.00
     Exponent=  1.9115255810D+02 Coefficients=  2.5115697705D-03
     Exponent=  4.5233356739D+01 Coefficients=  2.0039240864D-02
     Exponent=  1.4353465922D+01 Coefficients=  9.3609064762D-02
     Exponent=  5.2422371832D+00 Coefficients=  3.0618127124D-01
     Exponent=  2.0792418599D+00 Coefficients=  6.7810501439D-01
 P 1 1.00
     Exponent=  8.4282371424D-01 Coefficients=  1.0000000000D+00
 P 1 1.00
     Exponent=  3.3617694891D-01 Coefficients=  1.0000000000D+00
 P 1 1.00
     Exponent=  1.2863997974D-01 Coefficients=  1.0000000000D+00
 D 1 1.00
     Exponent=  3.7750000000D+00 Coefficients=  1.0000000000D+00
 D 1 1.00
     Exponent=  1.3000000000D+00 Coefficients=  1.0000000000D+00
 D 1 1.00
     Exponent=  4.4400000000D-01 Coefficients=  1.0000000000D+00
 F 1 1.00
     Exponent=  2.6660000000D+00 Coefficients=  1.0000000000D+00
 F 1 1.00
     Exponent=  8.5900000000D-01 Coefficients=  1.0000000000D+00
 G 1 1.00
     Exponent=  1.8460000000D+00 Coefficients=  1.0000000000D+00
 ****
 Centers:       2
 S 10 1.00
     Exponent=  1.2734109023D+06 Coefficients=  1.1767088246D-05
     Exponent=  1.9069783007D+05 Coefficients=  9.1478610166D-05
     Exponent=  4.3397885330D+04 Coefficients=  4.8090078640D-04
     Exponent=  1.2291809677D+04 Coefficients=  2.0257193592D-03
     Exponent=  4.0097420824D+03 Coefficients=  7.3190096406D-03
     Exponent=  1.4473531030D+03 Coefficients=  2.3300499900D-02
     Exponent=  5.6430102913D+02 Coefficients=  6.5386213610D-02
     Exponent=  2.3374506243D+02 Coefficients=  1.5614449910D-01
     Exponent=  1.0156402814D+02 Coefficients=  2.9318563787D-01
     Exponent=  4.5805907187D+01 Coefficients=  3.6287914289D-01
 S 3 1.00
     Exponent=  3.9427281503D+02 Coefficients=  1.8753305081D-02
     Exponent=  1.2172249591D+02 Coefficients=  1.6870726663D-01
     Exponent=  4.6754125963D+01 Coefficients=  6.3806830653D-01
 S 1 1.00
     Exponent=  2.0923008254D+01 Coefficients=  1.0000000000D+00
 S 1 1.00
     Exponent=  8.2685567800D+00 Coefficients=  1.0000000000D+00
 S 1 1.00
     Exponent=  3.8629345671D+00 Coefficients=  1.0000000000D+00
 S 1 1.00
     Exponent=  1.7794684781D+00 Coefficients=  1.0000000000D+00
 S 1 1.00
     Exponent=  6.1064260103D-01 Coefficients=  1.0000000000D+00
 S 1 1.00
     Exponent=  2.7412269445D-01 Coefficients=  1.0000000000D+00
 S 1 1.00
     Exponent=  1.1325939107D-01 Coefficients=  1.0000000000D+00
 P 8 1.00
     Exponent=  2.1898930459D+03 Coefficients=  2.3912552864D-04
     Exponent=  5.1894596592D+02 Coefficients=  2.0772032158D-03
     Exponent=  1.6819560151D+02 Coefficients=  1.1242420571D-02
     Exponent=  6.3745282788D+01 Coefficients=  4.4069933941D-02
     Exponent=  2.6597033077D+01 Coefficients=  1.2918778608D-01
     Exponent=  1.1774251449D+01 Coefficients=  2.6910820167D-01
     Exponent=  5.3534379024D+00 Coefficients=  3.7855928620D-01
     Exponent=  2.4701911802D+00 Coefficients=  2.9692134655D-01
 P 2 1.00
     Exponent=  8.2120288349D+01 Coefficients= -3.9420318847D-02
     Exponent=  4.9523532869D+00 Coefficients=  6.4048403090D-01
 P 1 1.00
     Exponent=  1.0828262029D+00 Coefficients=  1.0000000000D+00
 P 1 1.00
     Exponent=  4.9271277356D-01 Coefficients=  1.0000000000D+00
 P 1 1.00
     Exponent=  2.0483450942D-01 Coefficients=  1.0000000000D+00
 P 1 1.00
     Exponent=  8.0743615716D-02 Coefficients=  1.0000000000D+00
 D 1 1.00
     Exponent=  4.1590000000D+00 Coefficients=  1.0000000000D+00
 D 1 1.00
     Exponent=  1.0190000000D+00 Coefficients=  1.0000000000D+00
 D 1 1.00
     Exponent=  4.6400000000D-01 Coefficients=  1.0000000000D+00
 D 1 1.00
     Exponent=  1.9400000000D-01 Coefficients=  1.0000000000D+00
 F 1 1.00
     Exponent=  8.6900000000D-01 Coefficients=  1.0000000000D+00
 F 1 1.00
     Exponent=  3.3500000000D-01 Coefficients=  1.0000000000D+00
 G 1 1.00
     Exponent=  6.8300000000D-01 Coefficients=  1.0000000000D+00
 ****
 Ernie: Thresh=  0.10000D-02 Tol=  0.10000D-05 Strict=F.
   244 basis functions,   381 primitive gaussians,   300 cartesian basis functions
    16 alpha electrons       16 beta electrons
       nuclear repulsion energy       102.7536228800 Hartrees.
 IExCor=  402 DFT=T Ex+Corr=B3LYP ExCW=0 ScaHFX=  0.200000
 ScaDFX=  0.800000  0.720000  1.000000  0.810000 ScalE2=  1.000000  1.000000
 IRadAn=      5 IRanWt=     -1 IRanGd=            0 ICorTp=0 IEmpDi=  4
 NAtoms=    5 NActive=    5 NUniq=    5 SFac= 1.00D+00 NAtFMM=   60 NAOKFM=F Big=F
 Integral buffers will be    131072 words long.
 Raffenetti 2 integral format.
 Two-electron integral symmetry is turned off.
 Leave Link  301 at Tue Jan  3 09:07:00 2023, MaxMem=   536870912 cpu:               0.2 elap:               0.1
 (Enter /opt/software/gaussian/g16.c01/l302.exe)
 NPDir=0 NMtPBC=     1 NCelOv=     1 NCel=       1 NClECP=     1 NCelD=      1
         NCelK=      1 NCelE2=     1 NClLst=     1 CellRange=     0.0.
 One-electron integrals computed using PRISM.
 NBasis=   244 RedAO= T EigKep=  1.40D-04  NBF=   244
 NBsUse=   244 1.00D-06 EigRej= -1.00D+00 NBFU=   244
 Precomputing XC quadrature grid using
 IXCGrd= 4 IRadAn=           5 IRanWt=          -1 IRanGd=           0 AccXCQ= 0.00D+00.
 Generated NRdTot=       0 NPtTot=           0 NUsed=           0 NTot=          32
 NSgBfM=   298   298   298   298   298 MxSgAt=     5 MxSgA2=     5.
 Leave Link  302 at Tue Jan  3 09:07:01 2023, MaxMem=   536870912 cpu:               0.5 elap:               0.2
 (Enter /opt/software/gaussian/g16.c01/l303.exe)
 DipDrv:  MaxL=1.
 Leave Link  303 at Tue Jan  3 09:07:01 2023, MaxMem=   536870912 cpu:               0.1 elap:               0.1
 (Enter /opt/software/gaussian/g16.c01/l401.exe)
 ExpMin= 7.60D-02 ExpMax= 1.27D+06 ExpMxC= 1.45D+03 IAcc=3 IRadAn=         5 AccDes= 0.00D+00
 Harris functional with IExCor=  402 and IRadAn=       5 diagonalized for initial guess.
 HarFok:  IExCor=  402 AccDes= 0.00D+00 IRadAn=         5 IDoV= 1 UseB2=F ITyADJ=14
 ICtDFT=  3500011 ScaDFX=  1.000000  1.000000  1.000000  1.000000
 FoFCou: FMM=F IPFlag=           0 FMFlag=      100000 FMFlg1=           0
         NFxFlg=           0 DoJE=T BraDBF=F KetDBF=T FulRan=T
         wScrn=  0.000000 ICntrl=       500 IOpCl=  0 I1Cent=   200000004 NGrid=           0
         NMat0=    1 NMatS0=      1 NMatT0=    0 NMatD0=    1 NMtDS0=    0 NMtDT0=    0
 Symmetry not used in FoFCou.
 Harris En= -512.796249496413    
 JPrj=0 DoOrth=F DoCkMO=F.
 Initial guess <Sx>= 0.0000 <Sy>= 0.0000 <Sz>= 0.0000 <S**2>=-0.0000 S=-0.0000
 Leave Link  401 at Tue Jan  3 09:07:02 2023, MaxMem=   536870912 cpu:               2.5 elap:               1.2
 (Enter /opt/software/gaussian/g16.c01/l502.exe)
 Two-electron integral symmetry not used.
 UHF open shell SCF:
 Using DIIS extrapolation, IDIIS=  1040.
 NGot=   536870912 LenX=   536687186 LenY=   536596745
 Requested convergence on RMS density matrix=1.00D-08 within 128 cycles.
 Requested convergence on MAX density matrix=1.00D-06.
 Requested convergence on             energy=1.00D-06.
 No special actions if energy rises.
 Fock matrices will be formed incrementally for  20 cycles.
 Integral accuracy reduced to 1.0D-05 until final iterations.

 Cycle   1  Pass 0  IDiag  1:
 FoFJK:  IHMeth= 1 ICntrl=       0 DoSepK=F KAlg= 0 I1Cent=           0 FoldK=F
 IRaf= 970000000 NMat=       1 IRICut=       1 DoRegI=T DoRafI=F ISym2E= 0 IDoP0=0 IntGTp=1.
 FoFCou: FMM=F IPFlag=           0 FMFlag=      100000 FMFlg1=           0
         NFxFlg=           0 DoJE=F BraDBF=F KetDBF=F FulRan=T
         wScrn=  0.000000 ICntrl=         0 IOpCl=  1 I1Cent=           0 NGrid=           0
         NMat0=    1 NMatS0=      1 NMatT0=    0 NMatD0=    1 NMtDS0=    0 NMtDT0=    0
 Symmetry not used in FoFCou.
 E= -512.571268171258    
 DIIS: error= 3.86D-02 at cycle   1 NSaved=   1.
 NSaved= 1 IEnMin= 1 EnMin= -512.571268171258     IErMin= 1 ErrMin= 3.86D-02
 ErrMax= 3.86D-02  0.00D+00 EMaxC= 1.00D-01 BMatC= 1.17D+00 BMatP= 1.17D+00
 IDIUse=3 WtCom= 6.14D-01 WtEn= 3.86D-01
 Coeff-Com:  0.100D+01
 Coeff-En:   0.100D+01
 Coeff:      0.100D+01
 Gap=     0.089 Goal=   None    Shift=    0.000
 Gap=     0.089 Goal=   None    Shift=    0.000
 GapD=    0.089 DampG=0.500 DampE=0.500 DampFc=0.2500 IDamp=-1.
 Damping current iteration by 2.50D-01
 RMSDP=3.96D-03 MaxDP=2.32D-01              OVMax= 4.38D-01

 Cycle   2  Pass 0  IDiag  1:
 RMSU=  9.90D-04    CP:  1.00D+00
 E= -512.645803301853     Delta-E=       -0.074535130595 Rises=F Damp=T
 DIIS: error= 1.65D-02 at cycle   2 NSaved=   2.
 NSaved= 2 IEnMin= 2 EnMin= -512.645803301853     IErMin= 2 ErrMin= 1.65D-02
 ErrMax= 1.65D-02  0.00D+00 EMaxC= 1.00D-01 BMatC= 1.66D-01 BMatP= 1.17D+00
 IDIUse=3 WtCom= 8.35D-01 WtEn= 1.65D-01
 Coeff-Com: -0.381D+00 0.138D+01
 Coeff-En:   0.000D+00 0.100D+01
 Coeff:     -0.318D+00 0.132D+01
 Gap=     0.186 Goal=   None    Shift=    0.000
 Gap=     0.186 Goal=   None    Shift=    0.000
 RMSDP=8.90D-04 MaxDP=4.32D-02 DE=-7.45D-02 OVMax= 2.87D-01

 Cycle   3  Pass 0  IDiag  1:
 RMSU=  8.46D-04    CP:  9.91D-01  7.41D-01
 E= -512.739265811489     Delta-E=       -0.093462509636 Rises=F Damp=F
 DIIS: error= 1.34D-02 at cycle   3 NSaved=   3.
 NSaved= 3 IEnMin= 3 EnMin= -512.739265811489     IErMin= 3 ErrMin= 1.34D-02
 ErrMax= 1.34D-02  0.00D+00 EMaxC= 1.00D-01 BMatC= 1.60D-01 BMatP= 1.66D-01
 IDIUse=3 WtCom= 8.66D-01 WtEn= 1.34D-01
 Coeff-Com: -0.268D+00 0.868D+00 0.399D+00
 Coeff-En:   0.000D+00 0.000D+00 0.100D+01
 Coeff:     -0.232D+00 0.752D+00 0.480D+00
 Gap=     0.179 Goal=   None    Shift=    0.000
 Gap=     0.179 Goal=   None    Shift=    0.000
 RMSDP=8.49D-04 MaxDP=2.79D-02 DE=-9.35D-02 OVMax= 2.06D-01

 Cycle   4  Pass 0  IDiag  1:
 RMSU=  5.45D-04    CP:  9.94D-01  9.93D-01  2.91D-01
 E= -512.752750695613     Delta-E=       -0.013484884123 Rises=F Damp=F
 DIIS: error= 1.41D-02 at cycle   4 NSaved=   4.
 NSaved= 4 IEnMin= 4 EnMin= -512.752750695613     IErMin= 3 ErrMin= 1.34D-02
 ErrMax= 1.41D-02  0.00D+00 EMaxC= 1.00D-01 BMatC= 1.07D-01 BMatP= 1.60D-01
 IDIUse=3 WtCom= 8.59D-01 WtEn= 1.41D-01
 Coeff-Com: -0.475D-01 0.120D+00 0.433D+00 0.495D+00
 Coeff-En:   0.000D+00 0.000D+00 0.429D+00 0.571D+00
 Coeff:     -0.408D-01 0.103D+00 0.432D+00 0.505D+00
 Gap=     0.197 Goal=   None    Shift=    0.000
 Gap=     0.197 Goal=   None    Shift=    0.000
 RMSDP=4.52D-04 MaxDP=2.25D-02 DE=-1.35D-02 OVMax= 1.03D-01

 Cycle   5  Pass 0  IDiag  1:
 RMSU=  1.43D-04    CP:  9.93D-01  8.66D-01  6.63D-01  5.19D-01
 E= -512.778882895108     Delta-E=       -0.026132199496 Rises=F Damp=F
 DIIS: error= 1.29D-03 at cycle   5 NSaved=   5.
 NSaved= 5 IEnMin= 5 EnMin= -512.778882895108     IErMin= 5 ErrMin= 1.29D-03
 ErrMax= 1.29D-03  0.00D+00 EMaxC= 1.00D-01 BMatC= 9.22D-04 BMatP= 1.07D-01
 IDIUse=3 WtCom= 9.87D-01 WtEn= 1.29D-02
 Coeff-Com:  0.385D-02-0.109D-01 0.137D+00 0.194D+00 0.676D+00
 Coeff-En:   0.000D+00 0.000D+00 0.000D+00 0.000D+00 0.100D+01
 Coeff:      0.380D-02-0.108D-01 0.135D+00 0.191D+00 0.681D+00
 Gap=     0.186 Goal=   None    Shift=    0.000
 Gap=     0.186 Goal=   None    Shift=    0.000
 RMSDP=5.52D-05 MaxDP=3.20D-03 DE=-2.61D-02 OVMax= 7.27D-03

 Cycle   6  Pass 0  IDiag  1:
 RMSU=  2.02D-05    CP:  9.92D-01  8.67D-01  6.46D-01  5.59D-01  6.90D-01
 E= -512.779102843429     Delta-E=       -0.000219948321 Rises=F Damp=F
 DIIS: error= 2.05D-04 at cycle   6 NSaved=   6.
 NSaved= 6 IEnMin= 6 EnMin= -512.779102843429     IErMin= 6 ErrMin= 2.05D-04
 ErrMax= 2.05D-04  0.00D+00 EMaxC= 1.00D-01 BMatC= 3.19D-05 BMatP= 9.22D-04
 IDIUse=3 WtCom= 9.98D-01 WtEn= 2.05D-03
 Coeff-Com:  0.269D-02-0.617D-02 0.206D-01 0.281D-01 0.189D+00 0.765D+00
 Coeff-En:   0.000D+00 0.000D+00 0.000D+00 0.000D+00 0.000D+00 0.100D+01
 Coeff:      0.269D-02-0.615D-02 0.205D-01 0.281D-01 0.189D+00 0.766D+00
 Gap=     0.186 Goal=   None    Shift=    0.000
 Gap=     0.186 Goal=   None    Shift=    0.000
 RMSDP=1.12D-05 MaxDP=6.90D-04 DE=-2.20D-04 OVMax= 1.24D-03

 Cycle   7  Pass 0  IDiag  1:
 RMSU=  5.13D-06    CP:  9.92D-01  8.63D-01  6.50D-01  5.54D-01  7.37D-01
                    CP:  8.01D-01
 E= -512.779108934639     Delta-E=       -0.000006091210 Rises=F Damp=F
 DIIS: error= 6.40D-05 at cycle   7 NSaved=   7.
 NSaved= 7 IEnMin= 7 EnMin= -512.779108934639     IErMin= 7 ErrMin= 6.40D-05
 ErrMax= 6.40D-05  0.00D+00 EMaxC= 1.00D-01 BMatC= 2.63D-06 BMatP= 3.19D-05
 IDIUse=1 WtCom= 1.00D+00 WtEn= 0.00D+00
 Coeff-Com:  0.541D-03-0.100D-02 0.175D-03-0.927D-03 0.320D-01 0.280D+00
 Coeff-Com:  0.690D+00
 Coeff:      0.541D-03-0.100D-02 0.175D-03-0.927D-03 0.320D-01 0.280D+00
 Coeff:      0.690D+00
 Gap=     0.186 Goal=   None    Shift=    0.000
 Gap=     0.186 Goal=   None    Shift=    0.000
 RMSDP=2.34D-06 MaxDP=1.01D-04 DE=-6.09D-06 OVMax= 2.27D-04

 Initial convergence to 1.0D-05 achieved.  Increase integral accuracy.
 Cycle   8  Pass 1  IDiag  1:
 E= -512.779109432601     Delta-E=       -0.000000497962 Rises=F Damp=F
 DIIS: error= 1.22D-05 at cycle   1 NSaved=   1.
 NSaved= 1 IEnMin= 1 EnMin= -512.779109432601     IErMin= 1 ErrMin= 1.22D-05
 ErrMax= 1.22D-05  0.00D+00 EMaxC= 1.00D-01 BMatC= 1.47D-07 BMatP= 1.47D-07
 IDIUse=1 WtCom= 1.00D+00 WtEn= 0.00D+00
 Coeff-Com:  0.100D+01
 Coeff:      0.100D+01
 Gap=     0.186 Goal=   None    Shift=    0.000
 Gap=     0.186 Goal=   None    Shift=    0.000
 RMSDP=2.34D-06 MaxDP=1.01D-04 DE=-4.98D-07 OVMax= 8.50D-05

 Cycle   9  Pass 1  IDiag  1:
 RMSU=  3.23D-06    CP:  1.00D+00
 E= -512.779109420712     Delta-E=        0.000000011890 Rises=F Damp=F
 DIIS: error= 1.54D-05 at cycle   2 NSaved=   2.
 NSaved= 2 IEnMin= 1 EnMin= -512.779109432601     IErMin= 1 ErrMin= 1.22D-05
 ErrMax= 1.54D-05  0.00D+00 EMaxC= 1.00D-01 BMatC= 1.79D-07 BMatP= 1.47D-07
 IDIUse=1 WtCom= 1.00D+00 WtEn= 0.00D+00
 Coeff-Com:  0.531D+00 0.469D+00
 Coeff:      0.531D+00 0.469D+00
 Gap=     0.186 Goal=   None    Shift=    0.000
 Gap=     0.186 Goal=   None    Shift=    0.000
 RMSDP=6.41D-07 MaxDP=1.84D-05 DE= 1.19D-08 OVMax= 8.91D-05

 Cycle  10  Pass 1  IDiag  1:
 RMSU=  6.33D-07    CP:  1.00D+00  1.01D+00
 E= -512.779109442550     Delta-E=       -0.000000021838 Rises=F Damp=F
 DIIS: error= 8.90D-06 at cycle   3 NSaved=   3.
 NSaved= 3 IEnMin= 3 EnMin= -512.779109442550     IErMin= 3 ErrMin= 8.90D-06
 ErrMax= 8.90D-06  0.00D+00 EMaxC= 1.00D-01 BMatC= 6.76D-08 BMatP= 1.47D-07
 IDIUse=1 WtCom= 1.00D+00 WtEn= 0.00D+00
 Coeff-Com:  0.188D+00 0.358D+00 0.454D+00
 Coeff:      0.188D+00 0.358D+00 0.454D+00
 Gap=     0.186 Goal=   None    Shift=    0.000
 Gap=     0.186 Goal=   None    Shift=    0.000
 RMSDP=4.19D-07 MaxDP=1.82D-05 DE=-2.18D-08 OVMax= 7.72D-05

 Cycle  11  Pass 1  IDiag  1:
 RMSU=  3.10D-07    CP:  1.00D+00  1.02D+00  5.58D-01
 E= -512.779109453437     Delta-E=       -0.000000010888 Rises=F Damp=F
 DIIS: error= 4.26D-06 at cycle   4 NSaved=   4.
 NSaved= 4 IEnMin= 4 EnMin= -512.779109453437     IErMin= 4 ErrMin= 4.26D-06
 ErrMax= 4.26D-06  0.00D+00 EMaxC= 1.00D-01 BMatC= 9.08D-09 BMatP= 6.76D-08
 IDIUse=1 WtCom= 1.00D+00 WtEn= 0.00D+00
 Coeff-Com:  0.271D-01 0.149D+00 0.314D+00 0.510D+00
 Coeff:      0.271D-01 0.149D+00 0.314D+00 0.510D+00
 Gap=     0.186 Goal=   None    Shift=    0.000
 Gap=     0.186 Goal=   None    Shift=    0.000
 RMSDP=1.63D-07 MaxDP=8.45D-06 DE=-1.09D-08 OVMax= 3.74D-05

 Cycle  12  Pass 1  IDiag  1:
 RMSU=  6.84D-08    CP:  1.00D+00  1.02D+00  6.49D-01  5.65D-01
 E= -512.779109455397     Delta-E=       -0.000000001960 Rises=F Damp=F
 DIIS: error= 1.57D-06 at cycle   5 NSaved=   5.
 NSaved= 5 IEnMin= 5 EnMin= -512.779109455397     IErMin= 5 ErrMin= 1.57D-06
 ErrMax= 1.57D-06  0.00D+00 EMaxC= 1.00D-01 BMatC= 1.14D-09 BMatP= 9.08D-09
 IDIUse=1 WtCom= 1.00D+00 WtEn= 0.00D+00
 Coeff-Com: -0.261D-03 0.690D-01 0.165D+00 0.343D+00 0.423D+00
 Coeff:     -0.261D-03 0.690D-01 0.165D+00 0.343D+00 0.423D+00
 Gap=     0.186 Goal=   None    Shift=    0.000
 Gap=     0.186 Goal=   None    Shift=    0.000
 RMSDP=3.99D-08 MaxDP=1.44D-06 DE=-1.96D-09 OVMax= 9.19D-06

 Cycle  13  Pass 1  IDiag  1:
 RMSU=  1.31D-08    CP:  1.00D+00  1.02D+00  6.39D-01  5.94D-01  4.73D-01
 E= -512.779109455699     Delta-E=       -0.000000000302 Rises=F Damp=F
 DIIS: error= 7.80D-08 at cycle   6 NSaved=   6.
 NSaved= 6 IEnMin= 6 EnMin= -512.779109455699     IErMin= 6 ErrMin= 7.80D-08
 ErrMax= 7.80D-08  0.00D+00 EMaxC= 1.00D-01 BMatC= 7.08D-12 BMatP= 1.14D-09
 IDIUse=1 WtCom= 1.00D+00 WtEn= 0.00D+00
 Coeff-Com: -0.121D-02 0.192D-01 0.425D-01 0.947D-01 0.140D+00 0.704D+00
 Coeff:     -0.121D-02 0.192D-01 0.425D-01 0.947D-01 0.140D+00 0.704D+00
 Gap=     0.186 Goal=   None    Shift=    0.000
 Gap=     0.186 Goal=   None    Shift=    0.000
 RMSDP=3.53D-09 MaxDP=1.06D-07 DE=-3.02D-10 OVMax= 4.99D-07

 SCF Done:  E(UB3LYP) =  -512.779109456     A.U. after   13 cycles
            NFock= 13  Conv=0.35D-08     -V/T= 2.0024
 <Sx>= 0.0000 <Sy>= 0.0000 <Sz>= 0.0000 <S**2>=-0.0000 S=-0.0000
 <L.S>=  0.00000000000    
 KE= 5.115457032297D+02 PE=-1.421010201651D+03 EE= 2.939317660856D+02
 Annihilation of the first spin contaminant:
 S**2 before annihilation    -0.0000,   after     0.0000
 Leave Link  502 at Tue Jan  3 09:09:14 2023, MaxMem=   536870912 cpu:             264.3 elap:             132.2
 (Enter /opt/software/gaussian/g16.c01/l508.exe)
 QCSCF skips out because SCF is already converged.
 Leave Link  508 at Tue Jan  3 09:09:14 2023, MaxMem=   536870912 cpu:               0.0 elap:               0.0
 (Enter /opt/software/gaussian/g16.c01/l601.exe)
 Copying SCF densities to generalized density rwf, IOpCl= 1 IROHF=0.

 **********************************************************************

            Population analysis using the SCF Density.

 **********************************************************************

 Alpha  occ. eigenvalues --  -88.96623 -19.13148 -10.22945  -8.03613  -5.99783
 Alpha  occ. eigenvalues --   -5.99758  -5.99364  -1.04390  -0.80294  -0.60771
 Alpha  occ. eigenvalues --   -0.49273  -0.46568  -0.42236  -0.39456  -0.29206
 Alpha  occ. eigenvalues --   -0.28015
 Alpha virt. eigenvalues --   -0.09370   0.00614   0.02235   0.05445   0.07302
 Alpha virt. eigenvalues --    0.11171   0.11425   0.14714   0.18329   0.18801
 Alpha virt. eigenvalues --    0.20086   0.23728   0.25615   0.26337   0.30025
 Alpha virt. eigenvalues --    0.30982   0.33854   0.35035   0.36235   0.40156
 Alpha virt. eigenvalues --    0.44616   0.44806   0.52034   0.53422   0.61523
 Alpha virt. eigenvalues --    0.64438   0.66309   0.68207   0.72847   0.73351
 Alpha virt. eigenvalues --    0.76811   0.77086   0.79564   0.79845   0.84409
 Alpha virt. eigenvalues --    0.88293   0.88703   0.91480   0.92114   0.97105
 Alpha virt. eigenvalues --    0.98455   1.01462   1.02967   1.06076   1.06679
 Alpha virt. eigenvalues --    1.11235   1.14089   1.17453   1.18033   1.26577
 Alpha virt. eigenvalues --    1.35259   1.36223   1.37996   1.38510   1.42317
 Alpha virt. eigenvalues --    1.43984   1.48598   1.50968   1.57653   1.65213
 Alpha virt. eigenvalues --    1.66817   1.75943   1.77186   1.80321   1.86365
 Alpha virt. eigenvalues --    1.86839   1.88359   1.93758   1.94211   2.05529
 Alpha virt. eigenvalues --    2.11160   2.12704   2.13878   2.20190   2.22851
 Alpha virt. eigenvalues --    2.25637   2.28907   2.34400   2.42002   2.47131
 Alpha virt. eigenvalues --    2.51815   2.55325   2.56369   2.59509   2.60655
 Alpha virt. eigenvalues --    2.63645   2.68317   2.69029   2.71607   2.72199
 Alpha virt. eigenvalues --    2.81673   2.84682   2.90398   2.91005   2.96537
 Alpha virt. eigenvalues --    3.09413   3.11735   3.11928   3.12900   3.16334
 Alpha virt. eigenvalues --    3.17727   3.24010   3.27846   3.29186   3.30681
 Alpha virt. eigenvalues --    3.33007   3.40642   3.40928   3.45871   3.46790
 Alpha virt. eigenvalues --    3.51431   3.52986   3.57842   3.63532   3.66508
 Alpha virt. eigenvalues --    3.72266   3.73699   3.83942   3.90525   3.93071
 Alpha virt. eigenvalues --    3.97547   4.00270   4.06241   4.08081   4.23723
 Alpha virt. eigenvalues --    4.25219   4.42168   4.47288   4.66685   4.81148
 Alpha virt. eigenvalues --    4.88205   4.94217   5.01374   5.18285   5.20991
 Alpha virt. eigenvalues --    5.22215   5.23191   5.28815   5.29264   5.34531
 Alpha virt. eigenvalues --    5.41450   5.53413   5.67825   5.71051   5.81194
 Alpha virt. eigenvalues --    5.87372   5.93665   5.95793   5.98344   6.10425
 Alpha virt. eigenvalues --    6.20574   6.24818   6.34314   6.38976   6.46308
 Alpha virt. eigenvalues --    6.50923   6.64633   6.67296   6.80161   6.82378
 Alpha virt. eigenvalues --    7.10721   7.11988   7.23773   7.28616   7.41088
 Alpha virt. eigenvalues --    7.44262   7.45392   7.53324   7.55789   7.59525
 Alpha virt. eigenvalues --    7.79234   7.85166   7.97441   8.06711   8.15469
 Alpha virt. eigenvalues --    8.20368   8.23214   8.23355   8.31392   8.40178
 Alpha virt. eigenvalues --    8.52301   8.54601   8.58984   8.69854   8.71747
 Alpha virt. eigenvalues --    8.86785   8.86826   8.88295   8.89694   8.91073
 Alpha virt. eigenvalues --    8.97651   9.08863   9.13362   9.33687   9.40398
 Alpha virt. eigenvalues --    9.51822   9.55201   9.60310   9.74413   9.80679
 Alpha virt. eigenvalues --    9.98902  10.27198  10.40611  10.95448  10.96803
 Alpha virt. eigenvalues --   11.18529  11.21017  11.58575  11.72663  11.78660
 Alpha virt. eigenvalues --   11.82157  11.98363  12.01876  12.22510  12.33252
 Alpha virt. eigenvalues --   12.70443  12.73562  13.89527  24.57282  28.44479
 Alpha virt. eigenvalues --   28.60951  28.97487  29.36562  47.86409  83.99549
 Alpha virt. eigenvalues --  147.47259 252.85558 450.99377
  Beta  occ. eigenvalues --  -88.96623 -19.13148 -10.22945  -8.03613  -5.99783
  Beta  occ. eigenvalues --   -5.99758  -5.99364  -1.04390  -0.80294  -0.60771
  Beta  occ. eigenvalues --   -0.49273  -0.46568  -0.42236  -0.39456  -0.29206
  Beta  occ. eigenvalues --   -0.28015
  Beta virt. eigenvalues --   -0.09370   0.00614   0.02235   0.05445   0.07302
  Beta virt. eigenvalues --    0.11171   0.11425   0.14714   0.18329   0.18801
  Beta virt. eigenvalues --    0.20086   0.23728   0.25615   0.26337   0.30025
  Beta virt. eigenvalues --    0.30982   0.33854   0.35035   0.36235   0.40156
  Beta virt. eigenvalues --    0.44616   0.44806   0.52034   0.53422   0.61523
  Beta virt. eigenvalues --    0.64438   0.66309   0.68207   0.72847   0.73351
  Beta virt. eigenvalues --    0.76811   0.77086   0.79564   0.79845   0.84409
  Beta virt. eigenvalues --    0.88293   0.88703   0.91480   0.92114   0.97105
  Beta virt. eigenvalues --    0.98455   1.01462   1.02967   1.06076   1.06679
  Beta virt. eigenvalues --    1.11235   1.14089   1.17453   1.18033   1.26577
  Beta virt. eigenvalues --    1.35259   1.36223   1.37996   1.38510   1.42317
  Beta virt. eigenvalues --    1.43984   1.48598   1.50968   1.57653   1.65213
  Beta virt. eigenvalues --    1.66817   1.75943   1.77186   1.80321   1.86365
  Beta virt. eigenvalues --    1.86839   1.88359   1.93758   1.94211   2.05529
  Beta virt. eigenvalues --    2.11160   2.12704   2.13878   2.20190   2.22851
  Beta virt. eigenvalues --    2.25637   2.28907   2.34400   2.42002   2.47131
  Beta virt. eigenvalues --    2.51815   2.55325   2.56369   2.59509   2.60655
  Beta virt. eigenvalues --    2.63645   2.68317   2.69029   2.71607   2.72199
  Beta virt. eigenvalues --    2.81673   2.84682   2.90398   2.91005   2.96537
  Beta virt. eigenvalues --    3.09413   3.11735   3.11928   3.12900   3.16334
  Beta virt. eigenvalues --    3.17727   3.24010   3.27846   3.29186   3.30681
  Beta virt. eigenvalues --    3.33007   3.40642   3.40928   3.45871   3.46790
  Beta virt. eigenvalues --    3.51431   3.52986   3.57842   3.63532   3.66508
  Beta virt. eigenvalues --    3.72266   3.73699   3.83942   3.90525   3.93071
  Beta virt. eigenvalues --    3.97547   4.00270   4.06241   4.08081   4.23723
  Beta virt. eigenvalues --    4.25219   4.42168   4.47288   4.66685   4.81148
  Beta virt. eigenvalues --    4.88205   4.94217   5.01374   5.18285   5.20991
  Beta virt. eigenvalues --    5.22215   5.23191   5.28815   5.29264   5.34531
  Beta virt. eigenvalues --    5.41450   5.53413   5.67825   5.71051   5.81194
  Beta virt. eigenvalues --    5.87372   5.93665   5.95793   5.98344   6.10425
  Beta virt. eigenvalues --    6.20574   6.24818   6.34314   6.38976   6.46308
  Beta virt. eigenvalues --    6.50923   6.64633   6.67296   6.80161   6.82378
  Beta virt. eigenvalues --    7.10721   7.11988   7.23773   7.28616   7.41088
  Beta virt. eigenvalues --    7.44262   7.45392   7.53324   7.55789   7.59525
  Beta virt. eigenvalues --    7.79234   7.85166   7.97441   8.06711   8.15469
  Beta virt. eigenvalues --    8.20368   8.23214   8.23355   8.31392   8.40178
  Beta virt. eigenvalues --    8.52301   8.54601   8.58984   8.69854   8.71747
  Beta virt. eigenvalues --    8.86785   8.86826   8.88295   8.89694   8.91073
  Beta virt. eigenvalues --    8.97651   9.08863   9.13362   9.33687   9.40398
  Beta virt. eigenvalues --    9.51822   9.55201   9.60310   9.74413   9.80679
  Beta virt. eigenvalues --    9.98902  10.27198  10.40611  10.95448  10.96803
  Beta virt. eigenvalues --   11.18529  11.21017  11.58575  11.72663  11.78660
  Beta virt. eigenvalues --   11.82157  11.98363  12.01876  12.22510  12.33252
  Beta virt. eigenvalues --   12.70443  12.73562  13.89527  24.57282  28.44479
  Beta virt. eigenvalues --   28.60951  28.97487  29.36562  47.86409  83.99549
  Beta virt. eigenvalues --  147.47259 252.85558 450.99377
          Condensed to atoms (all electrons):
               1          2          3          4          5
     1  C    5.129448   0.352043  -0.080152   0.352951   0.414890
     2  S    0.352043  14.780073   0.459647  -0.002730  -0.023843
     3  O   -0.080152   0.459647   8.081668   0.006195  -0.003064
     4  H    0.352951  -0.002730   0.006195   0.607192  -0.036279
     5  H    0.414890  -0.023843  -0.003064  -0.036279   0.522298
          Atomic-Atomic Spin Densities.
               1          2          3          4          5
     1  C   -0.000000   0.000000   0.000000   0.000000  -0.000000
     2  S    0.000000  -0.000000  -0.000000  -0.000000   0.000000
     3  O    0.000000  -0.000000   0.000000   0.000000   0.000000
     4  H    0.000000  -0.000000   0.000000   0.000000   0.000000
     5  H   -0.000000   0.000000   0.000000   0.000000   0.000000
 Mulliken charges and spin densities:
               1          2
     1  C   -0.169181  -0.000000
     2  S    0.434809  -0.000000
     3  O   -0.464294   0.000000
     4  H    0.072670   0.000000
     5  H    0.125997   0.000000
 Sum of Mulliken charges =  -0.00000   0.00000
 Mulliken charges and spin densities with hydrogens summed into heavy atoms:
               1          2
     1  C    0.029486   0.000000
     2  S    0.434809  -0.000000
     3  O   -0.464294   0.000000
 Electronic spatial extent (au):  <R**2>=            827.9267
 Charge=             -0.0000 electrons
 Dipole moment (field-independent basis, Debye):
    X=             -2.3118    Y=              1.0781    Z=              1.8872  Tot=              3.1731
 Quadrupole moment (field-independent basis, Debye-Ang):
   XX=            -33.6978   YY=            -25.5775   ZZ=            -27.1646
   XY=              3.6934   XZ=              6.6188   YZ=             -1.2046
 Traceless Quadrupole moment (field-independent basis, Debye-Ang):
   XX=             -4.8844   YY=              3.2358   ZZ=              1.6487
   XY=              3.6934   XZ=              6.6188   YZ=             -1.2046
 Octapole moment (field-independent basis, Debye-Ang**2):
  XXX=           -197.9935  YYY=             13.9332  ZZZ=             33.1344  XYY=            -57.8076
  XXY=             16.5824  XXZ=             31.2550  XZZ=            -65.9806  YZZ=              7.3587
  YYZ=             10.9134  XYZ=             -6.4411
 Hexadecapole moment (field-independent basis, Debye-Ang**3):
 XXXX=          -1000.7000 YYYY=            -48.3239 ZZZZ=            -99.8683 XXXY=             81.2873
 XXXZ=            155.3693 YYYX=             43.1454 YYYZ=            -18.6899 ZZZX=             98.2807
 ZZZY=            -20.5601 XXYY=           -163.4517 XXZZ=           -198.7400 YYZZ=            -25.1847
 XXYZ=            -27.6430 YYXZ=             32.1482 ZZXY=             22.6026
 N-N= 1.027536228800D+02 E-N=-1.421010194437D+03  KE= 5.115457032297D+02
                          Isotropic Fermi Contact Couplings
        Atom                 a.u.       MegaHertz       Gauss      10(-4) cm-1
     1  C(13)             -0.00000      -0.00000      -0.00000      -0.00000
     2  S(33)             -0.00000      -0.00000      -0.00000      -0.00000
     3  O(17)              0.00000      -0.00000      -0.00000      -0.00000
     4  H(1)              -0.00000      -0.00000      -0.00000      -0.00000
     5  H(1)              -0.00000      -0.00000      -0.00000      -0.00000
 --------------------------------------------------------
       Center         ----  Spin Dipole Couplings  ----
                      3XX-RR        3YY-RR        3ZZ-RR
 --------------------------------------------------------
     1   Atom        0.000000     -0.000000     -0.000000
     2   Atom       -0.000000      0.000000      0.000000
     3   Atom       -0.000000      0.000000      0.000000
     4   Atom        0.000000     -0.000000     -0.000000
     5   Atom        0.000000      0.000000     -0.000000
 --------------------------------------------------------
                        XY            XZ            YZ
 --------------------------------------------------------
     1   Atom       -0.000000      0.000000     -0.000000
     2   Atom       -0.000000      0.000000      0.000000
     3   Atom       -0.000000     -0.000000      0.000000
     4   Atom        0.000000      0.000000     -0.000000
     5   Atom       -0.000000     -0.000000     -0.000000
 --------------------------------------------------------


 ---------------------------------------------------------------------------------
              Anisotropic Spin Dipole Couplings in Principal Axis System
 ---------------------------------------------------------------------------------

       Atom             a.u.   MegaHertz   Gauss  10(-4) cm-1        Axes

              Baa    -0.0000    -0.000    -0.000    -0.000  0.1068  0.5843  0.8045
     1 C(13)  Bbb     0.0000     0.000     0.000     0.000  0.5168  0.6586 -0.5470
              Bcc     0.0000     0.000     0.000     0.000  0.8494 -0.4742  0.2316
 
              Baa    -0.0000    -0.000    -0.000    -0.000  0.8851  0.2796 -0.3721
     2 S(33)  Bbb    -0.0000    -0.000    -0.000    -0.000 -0.4417  0.7567 -0.4820
              Bcc     0.0000     0.000     0.000     0.000  0.1468  0.5910  0.7932
 
              Baa    -0.0000     0.000     0.000     0.000  0.9540  0.1919  0.2302
     3 O(17)  Bbb    -0.0000     0.000     0.000     0.000 -0.0149  0.7975 -0.6032
              Bcc     0.0000    -0.000    -0.000    -0.000 -0.2994  0.5720  0.7636
 
              Baa    -0.0000    -0.000    -0.000    -0.000 -0.4315  0.5190  0.7378
     4 H(1)   Bbb     0.0000     0.000     0.000     0.000  0.1564  0.8486 -0.5054
              Bcc     0.0000     0.000     0.000     0.000  0.8884  0.1027  0.4474
 
              Baa    -0.0000    -0.000    -0.000    -0.000  0.5267  0.3061  0.7930
     5 H(1)   Bbb     0.0000     0.000     0.000     0.000 -0.0754  0.9460 -0.3151
              Bcc     0.0000     0.000     0.000     0.000  0.8467 -0.1062 -0.5213
 

 ---------------------------------------------------------------------------------

 No NMR shielding tensors so no spin-rotation constants.
 Leave Link  601 at Tue Jan  3 09:09:15 2023, MaxMem=   536870912 cpu:               0.8 elap:               0.4
 (Enter /opt/software/gaussian/g16.c01/l801.exe)
 DoSCS=F DFT=T ScalE2(SS,OS)=  1.000000  1.000000
 Range of M.O.s used for correlation:     1   244
 NBasis=   244 NAE=    16 NBE=    16 NFC=     0 NFV=     0
 NROrb=    244 NOA=    16 NOB=    16 NVA=   228 NVB=   228

 **** Warning!!: The largest alpha MO coefficient is  0.21960814D+02


 **** Warning!!: The largest beta MO coefficient is  0.21960814D+02

 Leave Link  801 at Tue Jan  3 09:09:15 2023, MaxMem=   536870912 cpu:               0.1 elap:               0.0
 (Enter /opt/software/gaussian/g16.c01/l914.exe)
 UHF ground state
 Doing stability rather than CIS.
 Two-electron integral symmetry not used.
 MDV=   536870912 DFT=T DoStab=T Mixed=T DoRPA=F DoScal=F NonHer=F
 Making orbital integer symmetry assigments:
    12 initial guesses have been made.
 Convergence on wavefunction:    0.001000000000000
 Davidson Disk Diagonalization:  ConvIn= 1.00D-03 SkipCon=T Conv= 1.00D-03.
 Max sub-space:  2000 roots to seek:    12 dimension of matrix:         7296
 Iteration     1 Dimension    12 NMult     0 NNew     12
 CISAX will form    12 AO SS matrices at one time.
 NMat=    12 NSing=    12 JSym2X= 0.
 FoFJK:  IHMeth= 1 ICntrl=       0 DoSepK=F KAlg= 0 I1Cent=           0 FoldK=F
 IRaf= 970000000 NMat=      12 IRICut=      30 DoRegI=T DoRafI=T ISym2E= 0 IDoP0=3 IntGTp=3.
 FoFCou: FMM=F IPFlag=           0 FMFlag=      100000 FMFlg1=           0
         NFxFlg=           0 DoJE=F BraDBF=F KetDBF=F FulRan=T
         wScrn=  0.000000 ICntrl=         0 IOpCl=  1 I1Cent=           0 NGrid=           0
         NMat0=   12 NMatS0=     12 NMatT0=    0 NMatD0=   12 NMtDS0=    0 NMtDT0=    0
 Symmetry not used in FoFCou.
 Raff kept on since  96.89% of shell-pairs survive, threshold=   0.20 IRatSp=97.
 Excitation Energies [eV] at current iteration:
 Root      1 :     1.712361006220181
 Root      2 :     3.118863471070159
 Root      3 :     4.470363610090688
 Root      4 :     5.680020327871389
 Root      5 :     5.844341569866486
 Root      6 :     6.125838395244181
 Root      7 :     6.416505603746526
 Root      8 :     6.954819017128540
 Root      9 :     7.141940052816880
 Root     10 :     7.278222580783486
 Root     11 :     7.616570385259430
 Root     12 :    12.361997596481261
 Iteration     2 Dimension    24 NMult    12 NNew     12
 CISAX will form    12 AO SS matrices at one time.
 NMat=    12 NSing=    12 JSym2X= 0.
 Root      1 not converged, maximum delta is    0.063725576303177
 Excitation Energies [eV] at current iteration:
 Root      1 :     1.270947541433406   Change is   -0.441413464786774
 Root      2 :     2.833875266731576   Change is   -0.284988204338583
 Root      3 :     4.200185397492550   Change is   -0.270178212598138
 Root      4 :     5.357217686884958   Change is   -0.322802640986431
 Root      5 :     5.396026010063117   Change is   -0.448315559803369
 Root      6 :     5.914849739955023   Change is   -0.210988655289158
 Root      7 :     6.311426847365266   Change is   -0.105078756381259
 Root      8 :     6.761849957236937   Change is   -0.192969059891602
 Root      9 :     6.839937823195846   Change is   -0.302002229621034
 Root     10 :     7.155213739176616   Change is   -0.461356646082814
 Root     11 :     7.276078704947268   Change is   -0.002143875836218
 Root     12 :    10.014467977760749   Change is   -2.347529618720513
 Iteration     3 Dimension    27 NMult    24 NNew      3
 CISAX will form     3 AO SS matrices at one time.
 NMat=     3 NSing=     3 JSym2X= 0.
 Root      1 not converged, maximum delta is    0.009874938158127
 Excitation Energies [eV] at current iteration:
 Root      1 :     1.264022893152094   Change is   -0.006924648281313
 Root      2 :     2.829786245926367   Change is   -0.004089020805210
 Root      3 :     4.188039022162325   Change is   -0.012146375330225
 Iteration     4 Dimension    30 NMult    27 NNew      3
 CISAX will form     3 AO SS matrices at one time.
 NMat=     3 NSing=     3 JSym2X= 0.
 Root      1 not converged, maximum delta is    0.002824412187927
 Excitation Energies [eV] at current iteration:
 Root      1 :     1.263714125402159   Change is   -0.000308767749935
 Root      2 :     2.829592585650165   Change is   -0.000193660276202
 Root      3 :     4.187802705050766   Change is   -0.000236317111560
 Iteration     5 Dimension    33 NMult    30 NNew      3
 CISAX will form     3 AO SS matrices at one time.
 NMat=     3 NSing=     3 JSym2X= 0.
 Root      1 has converged.
 Excitation Energies [eV] at current iteration:
 Root      1 :     1.263702257834907   Change is   -0.000011867567252
 Root      2 :     2.829590206238124   Change is   -0.000002379412041
 Root      3 :     4.187799364772767   Change is   -0.000003340277999
 Convergence achieved on expansion vectors.
 ***********************************************************************
 Stability analysis using <AA,BB:AA,BB> singles matrix:
 ***********************************************************************
 1PDM for each excited state written to RWF  633
 Ground to excited state transition densities written to RWF  633

 Eigenvectors of the stability matrix:
 
 Excited state symmetry could not be determined.
 Eigenvector   1:  3.000-?Sym  Eigenvalue= 0.0464402  <S**2>=2.000
     16A -> 17A        0.69348
     16B -> 17B       -0.69348
 The wavefunction is stable under the perturbations considered.
 Leave Link  914 at Tue Jan  3 09:14:46 2023, MaxMem=   536870912 cpu:             662.8 elap:             331.5
 (Enter /opt/software/gaussian/g16.c01/l508.exe)
 The wavefunction is already stable.
 Leave Link  508 at Tue Jan  3 09:14:46 2023, MaxMem=   536870912 cpu:               0.0 elap:               0.0
 (Enter /opt/software/gaussian/g16.c01/l601.exe)
 Copying SCF densities to generalized density rwf, IOpCl= 1 IROHF=0.

 **********************************************************************

            Population analysis using the SCF Density.

 **********************************************************************

 Alpha  occ. eigenvalues --  -88.96623 -19.13148 -10.22945  -8.03613  -5.99783
 Alpha  occ. eigenvalues --   -5.99758  -5.99364  -1.04390  -0.80294  -0.60771
 Alpha  occ. eigenvalues --   -0.49273  -0.46568  -0.42236  -0.39456  -0.29206
 Alpha  occ. eigenvalues --   -0.28015
 Alpha virt. eigenvalues --   -0.09370   0.00614   0.02235   0.05445   0.07302
 Alpha virt. eigenvalues --    0.11171   0.11425   0.14714   0.18329   0.18801
 Alpha virt. eigenvalues --    0.20086   0.23728   0.25615   0.26337   0.30025
 Alpha virt. eigenvalues --    0.30982   0.33854   0.35035   0.36235   0.40156
 Alpha virt. eigenvalues --    0.44616   0.44806   0.52034   0.53422   0.61523
 Alpha virt. eigenvalues --    0.64438   0.66309   0.68207   0.72847   0.73351
 Alpha virt. eigenvalues --    0.76811   0.77086   0.79564   0.79845   0.84409
 Alpha virt. eigenvalues --    0.88293   0.88703   0.91480   0.92114   0.97105
 Alpha virt. eigenvalues --    0.98455   1.01462   1.02967   1.06076   1.06679
 Alpha virt. eigenvalues --    1.11235   1.14089   1.17453   1.18033   1.26577
 Alpha virt. eigenvalues --    1.35259   1.36223   1.37996   1.38510   1.42317
 Alpha virt. eigenvalues --    1.43984   1.48598   1.50968   1.57653   1.65213
 Alpha virt. eigenvalues --    1.66817   1.75943   1.77186   1.80321   1.86365
 Alpha virt. eigenvalues --    1.86839   1.88359   1.93758   1.94211   2.05529
 Alpha virt. eigenvalues --    2.11160   2.12704   2.13878   2.20190   2.22851
 Alpha virt. eigenvalues --    2.25637   2.28907   2.34400   2.42002   2.47131
 Alpha virt. eigenvalues --    2.51815   2.55325   2.56369   2.59509   2.60655
 Alpha virt. eigenvalues --    2.63645   2.68317   2.69029   2.71607   2.72199
 Alpha virt. eigenvalues --    2.81673   2.84682   2.90398   2.91005   2.96537
 Alpha virt. eigenvalues --    3.09413   3.11735   3.11928   3.12900   3.16334
 Alpha virt. eigenvalues --    3.17727   3.24010   3.27846   3.29186   3.30681
 Alpha virt. eigenvalues --    3.33007   3.40642   3.40928   3.45871   3.46790
 Alpha virt. eigenvalues --    3.51431   3.52986   3.57842   3.63532   3.66508
 Alpha virt. eigenvalues --    3.72266   3.73699   3.83942   3.90525   3.93071
 Alpha virt. eigenvalues --    3.97547   4.00270   4.06241   4.08081   4.23723
 Alpha virt. eigenvalues --    4.25219   4.42168   4.47288   4.66685   4.81148
 Alpha virt. eigenvalues --    4.88205   4.94217   5.01374   5.18285   5.20991
 Alpha virt. eigenvalues --    5.22215   5.23191   5.28815   5.29264   5.34531
 Alpha virt. eigenvalues --    5.41450   5.53413   5.67825   5.71051   5.81194
 Alpha virt. eigenvalues --    5.87372   5.93665   5.95793   5.98344   6.10425
 Alpha virt. eigenvalues --    6.20574   6.24818   6.34314   6.38976   6.46308
 Alpha virt. eigenvalues --    6.50923   6.64633   6.67296   6.80161   6.82378
 Alpha virt. eigenvalues --    7.10721   7.11988   7.23773   7.28616   7.41088
 Alpha virt. eigenvalues --    7.44262   7.45392   7.53324   7.55789   7.59525
 Alpha virt. eigenvalues --    7.79234   7.85166   7.97441   8.06711   8.15469
 Alpha virt. eigenvalues --    8.20368   8.23214   8.23355   8.31392   8.40178
 Alpha virt. eigenvalues --    8.52301   8.54601   8.58984   8.69854   8.71747
 Alpha virt. eigenvalues --    8.86785   8.86826   8.88295   8.89694   8.91073
 Alpha virt. eigenvalues --    8.97651   9.08863   9.13362   9.33687   9.40398
 Alpha virt. eigenvalues --    9.51822   9.55201   9.60310   9.74413   9.80679
 Alpha virt. eigenvalues --    9.98902  10.27198  10.40611  10.95448  10.96803
 Alpha virt. eigenvalues --   11.18529  11.21017  11.58575  11.72663  11.78660
 Alpha virt. eigenvalues --   11.82157  11.98363  12.01876  12.22510  12.33252
 Alpha virt. eigenvalues --   12.70443  12.73562  13.89527  24.57282  28.44479
 Alpha virt. eigenvalues --   28.60951  28.97487  29.36562  47.86409  83.99549
 Alpha virt. eigenvalues --  147.47259 252.85558 450.99377
  Beta  occ. eigenvalues --  -88.96623 -19.13148 -10.22945  -8.03613  -5.99783
  Beta  occ. eigenvalues --   -5.99758  -5.99364  -1.04390  -0.80294  -0.60771
  Beta  occ. eigenvalues --   -0.49273  -0.46568  -0.42236  -0.39456  -0.29206
  Beta  occ. eigenvalues --   -0.28015
  Beta virt. eigenvalues --   -0.09370   0.00614   0.02235   0.05445   0.07302
  Beta virt. eigenvalues --    0.11171   0.11425   0.14714   0.18329   0.18801
  Beta virt. eigenvalues --    0.20086   0.23728   0.25615   0.26337   0.30025
  Beta virt. eigenvalues --    0.30982   0.33854   0.35035   0.36235   0.40156
  Beta virt. eigenvalues --    0.44616   0.44806   0.52034   0.53422   0.61523
  Beta virt. eigenvalues --    0.64438   0.66309   0.68207   0.72847   0.73351
  Beta virt. eigenvalues --    0.76811   0.77086   0.79564   0.79845   0.84409
  Beta virt. eigenvalues --    0.88293   0.88703   0.91480   0.92114   0.97105
  Beta virt. eigenvalues --    0.98455   1.01462   1.02967   1.06076   1.06679
  Beta virt. eigenvalues --    1.11235   1.14089   1.17453   1.18033   1.26577
  Beta virt. eigenvalues --    1.35259   1.36223   1.37996   1.38510   1.42317
  Beta virt. eigenvalues --    1.43984   1.48598   1.50968   1.57653   1.65213
  Beta virt. eigenvalues --    1.66817   1.75943   1.77186   1.80321   1.86365
  Beta virt. eigenvalues --    1.86839   1.88359   1.93758   1.94211   2.05529
  Beta virt. eigenvalues --    2.11160   2.12704   2.13878   2.20190   2.22851
  Beta virt. eigenvalues --    2.25637   2.28907   2.34400   2.42002   2.47131
  Beta virt. eigenvalues --    2.51815   2.55325   2.56369   2.59509   2.60655
  Beta virt. eigenvalues --    2.63645   2.68317   2.69029   2.71607   2.72199
  Beta virt. eigenvalues --    2.81673   2.84682   2.90398   2.91005   2.96537
  Beta virt. eigenvalues --    3.09413   3.11735   3.11928   3.12900   3.16334
  Beta virt. eigenvalues --    3.17727   3.24010   3.27846   3.29186   3.30681
  Beta virt. eigenvalues --    3.33007   3.40642   3.40928   3.45871   3.46790
  Beta virt. eigenvalues --    3.51431   3.52986   3.57842   3.63532   3.66508
  Beta virt. eigenvalues --    3.72266   3.73699   3.83942   3.90525   3.93071
  Beta virt. eigenvalues --    3.97547   4.00270   4.06241   4.08081   4.23723
  Beta virt. eigenvalues --    4.25219   4.42168   4.47288   4.66685   4.81148
  Beta virt. eigenvalues --    4.88205   4.94217   5.01374   5.18285   5.20991
  Beta virt. eigenvalues --    5.22215   5.23191   5.28815   5.29264   5.34531
  Beta virt. eigenvalues --    5.41450   5.53413   5.67825   5.71051   5.81194
  Beta virt. eigenvalues --    5.87372   5.93665   5.95793   5.98344   6.10425
  Beta virt. eigenvalues --    6.20574   6.24818   6.34314   6.38976   6.46308
  Beta virt. eigenvalues --    6.50923   6.64633   6.67296   6.80161   6.82378
  Beta virt. eigenvalues --    7.10721   7.11988   7.23773   7.28616   7.41088
  Beta virt. eigenvalues --    7.44262   7.45392   7.53324   7.55789   7.59525
  Beta virt. eigenvalues --    7.79234   7.85166   7.97441   8.06711   8.15469
  Beta virt. eigenvalues --    8.20368   8.23214   8.23355   8.31392   8.40178
  Beta virt. eigenvalues --    8.52301   8.54601   8.58984   8.69854   8.71747
  Beta virt. eigenvalues --    8.86785   8.86826   8.88295   8.89694   8.91073
  Beta virt. eigenvalues --    8.97651   9.08863   9.13362   9.33687   9.40398
  Beta virt. eigenvalues --    9.51822   9.55201   9.60310   9.74413   9.80679
  Beta virt. eigenvalues --    9.98902  10.27198  10.40611  10.95448  10.96803
  Beta virt. eigenvalues --   11.18529  11.21017  11.58575  11.72663  11.78660
  Beta virt. eigenvalues --   11.82157  11.98363  12.01876  12.22510  12.33252
  Beta virt. eigenvalues --   12.70443  12.73562  13.89527  24.57282  28.44479
  Beta virt. eigenvalues --   28.60951  28.97487  29.36562  47.86409  83.99549
  Beta virt. eigenvalues --  147.47259 252.85558 450.99377
          Condensed to atoms (all electrons):
               1          2          3          4          5
     1  C    5.129448   0.352043  -0.080152   0.352951   0.414890
     2  S    0.352043  14.780073   0.459647  -0.002730  -0.023843
     3  O   -0.080152   0.459647   8.081668   0.006195  -0.003064
     4  H    0.352951  -0.002730   0.006195   0.607192  -0.036279
     5  H    0.414890  -0.023843  -0.003064  -0.036279   0.522298
          Atomic-Atomic Spin Densities.
               1          2          3          4          5
     1  C   -0.000000   0.000000   0.000000   0.000000  -0.000000
     2  S    0.000000  -0.000000  -0.000000  -0.000000   0.000000
     3  O    0.000000  -0.000000   0.000000   0.000000   0.000000
     4  H    0.000000  -0.000000   0.000000   0.000000   0.000000
     5  H   -0.000000   0.000000   0.000000   0.000000   0.000000
 Mulliken charges and spin densities:
               1          2
     1  C   -0.169181  -0.000000
     2  S    0.434809  -0.000000
     3  O   -0.464294   0.000000
     4  H    0.072670   0.000000
     5  H    0.125997   0.000000
 Sum of Mulliken charges =  -0.00000   0.00000
 Mulliken charges and spin densities with hydrogens summed into heavy atoms:
               1          2
     1  C    0.029486   0.000000
     2  S    0.434809  -0.000000
     3  O   -0.464294   0.000000
 Electronic spatial extent (au):  <R**2>=            827.9267
 Charge=             -0.0000 electrons
 Dipole moment (field-independent basis, Debye):
    X=             -2.3118    Y=              1.0781    Z=              1.8872  Tot=              3.1731
 Quadrupole moment (field-independent basis, Debye-Ang):
   XX=            -33.6978   YY=            -25.5775   ZZ=            -27.1646
   XY=              3.6934   XZ=              6.6188   YZ=             -1.2046
 Traceless Quadrupole moment (field-independent basis, Debye-Ang):
   XX=             -4.8844   YY=              3.2358   ZZ=              1.6487
   XY=              3.6934   XZ=              6.6188   YZ=             -1.2046
 Octapole moment (field-independent basis, Debye-Ang**2):
  XXX=           -197.9935  YYY=             13.9332  ZZZ=             33.1344  XYY=            -57.8076
  XXY=             16.5824  XXZ=             31.2550  XZZ=            -65.9806  YZZ=              7.3587
  YYZ=             10.9134  XYZ=             -6.4411
 Hexadecapole moment (field-independent basis, Debye-Ang**3):
 XXXX=          -1000.7000 YYYY=            -48.3239 ZZZZ=            -99.8683 XXXY=             81.2873
 XXXZ=            155.3693 YYYX=             43.1454 YYYZ=            -18.6899 ZZZX=             98.2807
 ZZZY=            -20.5601 XXYY=           -163.4517 XXZZ=           -198.7400 YYZZ=            -25.1847
 XXYZ=            -27.6430 YYXZ=             32.1482 ZZXY=             22.6026
 N-N= 1.027536228800D+02 E-N=-1.421010194437D+03  KE= 5.115457032297D+02
                          Isotropic Fermi Contact Couplings
        Atom                 a.u.       MegaHertz       Gauss      10(-4) cm-1
     1  C(13)             -0.00000      -0.00000      -0.00000      -0.00000
     2  S(33)             -0.00000      -0.00000      -0.00000      -0.00000
     3  O(17)              0.00000      -0.00000      -0.00000      -0.00000
     4  H(1)              -0.00000      -0.00000      -0.00000      -0.00000
     5  H(1)              -0.00000      -0.00000      -0.00000      -0.00000
 --------------------------------------------------------
       Center         ----  Spin Dipole Couplings  ----
                      3XX-RR        3YY-RR        3ZZ-RR
 --------------------------------------------------------
     1   Atom        0.000000     -0.000000     -0.000000
     2   Atom       -0.000000      0.000000      0.000000
     3   Atom       -0.000000      0.000000      0.000000
     4   Atom        0.000000     -0.000000     -0.000000
     5   Atom        0.000000      0.000000     -0.000000
 --------------------------------------------------------
                        XY            XZ            YZ
 --------------------------------------------------------
     1   Atom       -0.000000      0.000000     -0.000000
     2   Atom       -0.000000      0.000000      0.000000
     3   Atom       -0.000000     -0.000000      0.000000
     4   Atom        0.000000      0.000000     -0.000000
     5   Atom       -0.000000     -0.000000     -0.000000
 --------------------------------------------------------


 ---------------------------------------------------------------------------------
              Anisotropic Spin Dipole Couplings in Principal Axis System
 ---------------------------------------------------------------------------------

       Atom             a.u.   MegaHertz   Gauss  10(-4) cm-1        Axes

              Baa    -0.0000    -0.000    -0.000    -0.000  0.1068  0.5843  0.8045
     1 C(13)  Bbb     0.0000     0.000     0.000     0.000  0.5168  0.6586 -0.5470
              Bcc     0.0000     0.000     0.000     0.000  0.8494 -0.4742  0.2316
 
              Baa    -0.0000    -0.000    -0.000    -0.000  0.8851  0.2796 -0.3721
     2 S(33)  Bbb    -0.0000    -0.000    -0.000    -0.000 -0.4417  0.7567 -0.4820
              Bcc     0.0000     0.000     0.000     0.000  0.1468  0.5910  0.7932
 
              Baa    -0.0000     0.000     0.000     0.000  0.9540  0.1919  0.2302
     3 O(17)  Bbb    -0.0000     0.000     0.000     0.000 -0.0149  0.7975 -0.6032
              Bcc     0.0000    -0.000    -0.000    -0.000 -0.2994  0.5720  0.7636
 
              Baa    -0.0000    -0.000    -0.000    -0.000 -0.4315  0.5190  0.7378
     4 H(1)   Bbb     0.0000     0.000     0.000     0.000  0.1564  0.8486 -0.5054
              Bcc     0.0000     0.000     0.000     0.000  0.8884  0.1027  0.4474
 
              Baa    -0.0000    -0.000    -0.000    -0.000  0.5267  0.3061  0.7930
     5 H(1)   Bbb     0.0000     0.000     0.000     0.000 -0.0754  0.9460 -0.3151
              Bcc     0.0000     0.000     0.000     0.000  0.8467 -0.1062 -0.5213
 

 ---------------------------------------------------------------------------------

 No NMR shielding tensors so no spin-rotation constants.
 Leave Link  601 at Tue Jan  3 09:14:47 2023, MaxMem=   536870912 cpu:               0.8 elap:               0.4
 (Enter /opt/software/gaussian/g16.c01/l9999.exe)

 Test job not archived.
 1\1\GINC-GRA738\Stability\UB3LYP\Gen\C1H2O1S1\BHAVUK\03-Jan-2023\0\\#p
  ub3lyp/gen stable=opt scf=(maxcycle=900,verytightlineq,xqc) integral=
 grid=ultrafine symmetry=None density=current iop(99/18=-1) output=wfn\
 \0005_q000_m01_k00_opt_uwb97xd_def2svpd/0005_q000_m01_k00_force_ub3lyp
 _def2qzvp stable-force\\0,1\C,0,0.9770245042,-0.0197961728,-0.10082732
 86\S,0,2.5880021429,-0.0345660623,-0.126439068\O,0,3.1712397907,-0.714
 3116203,-1.3164938758\H,0,0.5180717789,0.4715880124,0.7588975415\H,0,0
 .3708017881,-0.4702041579,-0.8890472689\\Version=ES64L-G16RevC.01\HF=-
 512.7791095\S2=0.\S2-1=0.\S2A=0.\RMSD=3.529e-09\Dipole=-0.909551,0.424
 1522,0.7424862\Quadrupole=-3.6314612,2.4057146,1.2257466,2.7459702,4.9
 208883,-0.8956185\PG=Unknown\\@

 Writing a WFN file to "0005_q000_m01_k00_force_ub3lyp_def2qzvp.wfn"


 Ideas are like rabbits. You get a couple and learn
 how to handle them, and pretty soon you have a dozen.
                                    -- John Steinbeck
 Job cpu time:       0 days  0 hours 15 minutes 33.3 seconds.
 Elapsed time:       0 days  0 hours  7 minutes 46.7 seconds.
 File lengths (MBytes):  RWF=    185 Int=      0 D2E=      0 Chk=      9 Scr=      1
 Normal termination of Gaussian 16 at Tue Jan  3 09:14:47 2023.
 Initial command:
 /opt/software/gaussian/g16.c01/l1.exe "/localscratch/bhavuk.2151410.0/Gau-24115.inp" -scrdir="/localscratch/bhavuk.2151410.0/"
 Entering Link 1 = /opt/software/gaussian/g16.c01/l1.exe PID=      9624.
  
 Copyright (c) 1988-2019, Gaussian, Inc.  All Rights Reserved.
  
 This is part of the Gaussian(R) 16 program.  It is based on
 the Gaussian(R) 09 system (copyright 2009, Gaussian, Inc.),
 the Gaussian(R) 03 system (copyright 2003, Gaussian, Inc.),
 the Gaussian(R) 98 system (copyright 1998, Gaussian, Inc.),
 the Gaussian(R) 94 system (copyright 1995, Gaussian, Inc.),
 the Gaussian 92(TM) system (copyright 1992, Gaussian, Inc.),
 the Gaussian 90(TM) system (copyright 1990, Gaussian, Inc.),
 the Gaussian 88(TM) system (copyright 1988, Gaussian, Inc.),
 the Gaussian 86(TM) system (copyright 1986, Carnegie Mellon
 University), and the Gaussian 82(TM) system (copyright 1983,
 Carnegie Mellon University). Gaussian is a federally registered
 trademark of Gaussian, Inc.
  
 This software contains proprietary and confidential information,
 including trade secrets, belonging to Gaussian, Inc.
  
 This software is provided under written license and may be
 used, copied, transmitted, or stored only in accord with that
 written license.
  
 The following legend is applicable only to US Government
 contracts under FAR:
  
                    RESTRICTED RIGHTS LEGEND
  
 Use, reproduction and disclosure by the US Government is
 subject to restrictions as set forth in subparagraphs (a)
 and (c) of the Commercial Computer Software - Restricted
 Rights clause in FAR 52.227-19.
  
 Gaussian, Inc.
 340 Quinnipiac St., Bldg. 40, Wallingford CT 06492
  
  
 ---------------------------------------------------------------
 Warning -- This program may not be used in any manner that
 competes with the business of Gaussian, Inc. or will provide
 assistance to any competitor of Gaussian, Inc.  The licensee
 of this program is prohibited from giving any competitor of
 Gaussian, Inc. access to this program.  By using this program,
 the user acknowledges that Gaussian, Inc. is engaged in the
 business of creating and licensing software in the field of
 computational chemistry and represents and warrants to the
 licensee that it is not a competitor of Gaussian, Inc. and that
 it will not use this program in any manner prohibited above.
 ---------------------------------------------------------------
  

 Cite this work as:
 Gaussian 16, Revision C.01,
 M. J. Frisch, G. W. Trucks, H. B. Schlegel, G. E. Scuseria, 
 M. A. Robb, J. R. Cheeseman, G. Scalmani, V. Barone, 
 G. A. Petersson, H. Nakatsuji, X. Li, M. Caricato, A. V. Marenich, 
 J. Bloino, B. G. Janesko, R. Gomperts, B. Mennucci, H. P. Hratchian, 
 J. V. Ortiz, A. F. Izmaylov, J. L. Sonnenberg, D. Williams-Young, 
 F. Ding, F. Lipparini, F. Egidi, J. Goings, B. Peng, A. Petrone, 
 T. Henderson, D. Ranasinghe, V. G. Zakrzewski, J. Gao, N. Rega, 
 G. Zheng, W. Liang, M. Hada, M. Ehara, K. Toyota, R. Fukuda, 
 J. Hasegawa, M. Ishida, T. Nakajima, Y. Honda, O. Kitao, H. Nakai, 
 T. Vreven, K. Throssell, J. A. Montgomery, Jr., J. E. Peralta, 
 F. Ogliaro, M. J. Bearpark, J. J. Heyd, E. N. Brothers, K. N. Kudin, 
 V. N. Staroverov, T. A. Keith, R. Kobayashi, J. Normand, 
 K. Raghavachari, A. P. Rendell, J. C. Burant, S. S. Iyengar, 
 J. Tomasi, M. Cossi, J. M. Millam, M. Klene, C. Adamo, R. Cammi, 
 J. W. Ochterski, R. L. Martin, K. Morokuma, O. Farkas, 
 J. B. Foresman, and D. J. Fox, Gaussian, Inc., Wallingford CT, 2019.
 
 ******************************************
 Gaussian 16:  ES64L-G16RevC.01  3-Jul-2019
                 3-Jan-2023 
 ******************************************
 %chk=0005_q000_m01_k00_force_ub3lyp_def2qzvp.chk
 %nprocshared=2
 Will use up to    2 processors via shared memory.
 %mem=4GB
 ----------------------------------------------------------------------
 #p ub3lyp/chkbasis force guess=read geom=check scf=(maxcycle=900,veryt
 ightlineq,xqc) integral=grid=ultrafine symmetry=None density=current p
 op=(cm5,hlygat,mbs,npa) output=wfx
 ----------------------------------------------------------------------
 1/10=7,29=2,30=1,38=1/1,3;
 2/12=2,15=3,40=1/2;
 3/5=7,6=2,11=2,14=-4,25=1,30=1,67=1,71=1,74=-5,75=-5,116=2/1,2,3;
 4/5=1/1;
 5/5=2,7=900,8=3,13=1,17=3,38=6/2,8;
 6/7=2,8=2,9=2,10=2,15=8,20=15,22=-1,27=100,28=1,40=-1,79=1/1,2,7;
 7/29=1,30=1/1,2,3,16;
 1/10=7,30=1/3;
 99/6=200/99;
 Leave Link    1 at Tue Jan  3 09:14:47 2023, MaxMem=   536870912 cpu:               0.2 elap:               0.1
 (Enter /opt/software/gaussian/g16.c01/l101.exe)
 ----------------------------------------------------------------------
 0005_q000_m01_k00_opt_uwb97xd_def2svpd/0005_q000_m01_k00_force_ub3lyp_
 def2qzvp stable-force
 ----------------------------------------------------------------------
 Structure from the checkpoint file:  "0005_q000_m01_k00_force_ub3lyp_def2qzvp.chk"
 Charge =  0 Multiplicity = 1
 Z-Matrix found in chk file.
 C,0,0.9770245042,-0.0197961728,-0.1008273286
 S,0,2.5880021429,-0.0345660623,-0.126439068
 O,0,3.1712397907,-0.7143116203,-1.3164938758
 H,0,0.5180717789,0.4715880124,0.7588975415
 H,0,0.3708017881,-0.4702041579,-0.8890472689
 Recover connectivity data from disk.
 ITRead=  0  0  0  0  0
 MicOpt= -1 -1 -1 -1 -1
 NAtoms=      5 NQM=        5 NQMF=       0 NMMI=      0 NMMIF=      0
                NMic=       0 NMicF=      0.
                    Isotopes and Nuclear Properties:
 (Nuclear quadrupole moments (NQMom) in fm**2, nuclear magnetic moments (NMagM)
  in nuclear magnetons)

  Atom         1           2           3           4           5
 IAtWgt=          12          32          16           1           1
 AtmWgt=  12.0000000  31.9720718  15.9949146   1.0078250   1.0078250
 NucSpn=           0           0           0           1           1
 AtZEff=   3.6000000  13.6000000   5.6000000   1.0000000   1.0000000
 NQMom=    0.0000000   0.0000000   0.0000000   0.0000000   0.0000000
 NMagM=    0.0000000   0.0000000   0.0000000   2.7928460   2.7928460
 AtZNuc=   6.0000000  16.0000000   8.0000000   1.0000000   1.0000000
 Leave Link  101 at Tue Jan  3 09:14:47 2023, MaxMem=   536870912 cpu:               0.4 elap:               0.2
 (Enter /opt/software/gaussian/g16.c01/l103.exe)

 GradGradGradGradGradGradGradGradGradGradGradGradGradGradGradGradGradGrad
 Berny optimization.
 Initialization pass.
 Trust Radius=3.00D-01 FncErr=1.00D-07 GrdErr=1.00D-07 EigMax=2.50D+02 EigMin=1.00D-04
 Number of steps in this run=      2 maximum allowed number of steps=      2.
 GradGradGradGradGradGradGradGradGradGradGradGradGradGradGradGradGradGrad

 Leave Link  103 at Tue Jan  3 09:14:47 2023, MaxMem=   536870912 cpu:               0.1 elap:               0.0
 (Enter /opt/software/gaussian/g16.c01/l202.exe)
                          Input orientation:                          
 ---------------------------------------------------------------------
 Center     Atomic      Atomic             Coordinates (Angstroms)
 Number     Number       Type             X           Y           Z
 ---------------------------------------------------------------------
      1          6           0        0.977025   -0.019796   -0.100827
      2         16           0        2.588002   -0.034566   -0.126439
      3          8           0        3.171240   -0.714312   -1.316494
      4          1           0        0.518072    0.471588    0.758898
      5          1           0        0.370802   -0.470204   -0.889047
 ---------------------------------------------------------------------
                    Distance matrix (angstroms):
                    1          2          3          4          5
     1  C    0.000000
     2  S    1.611249   0.000000
     3  O    2.602840   1.489446   0.000000
     4  H    1.091432   2.307515   3.571121   0.000000
     5  H    1.091634   2.384812   2.843370   1.903781   0.000000
 Symmetry turned off by external request.
 Stoichiometry    CH2OS
 Rotational constants (GHZ):          39.0370487           9.3459813           7.5406507
 Leave Link  202 at Tue Jan  3 09:14:47 2023, MaxMem=   536870912 cpu:               0.0 elap:               0.0
 (Enter /opt/software/gaussian/g16.c01/l301.exe)
 Basis read from chk: "0005_q000_m01_k00_force_ub3lyp_def2qzvp.chk" (5D, 7F)
 No pseudopotential information found on chk file.
   244 basis functions,   381 primitive gaussians,   300 cartesian basis functions
    16 alpha electrons       16 beta electrons
       nuclear repulsion energy       102.7536228800 Hartrees.
 IExCor=  402 DFT=T Ex+Corr=B3LYP ExCW=0 ScaHFX=  0.200000
 ScaDFX=  0.800000  0.720000  1.000000  0.810000 ScalE2=  1.000000  1.000000
 IRadAn=      5 IRanWt=     -1 IRanGd=            0 ICorTp=0 IEmpDi=  4
 NAtoms=    5 NActive=    5 NUniq=    5 SFac= 1.00D+00 NAtFMM=   60 NAOKFM=F Big=F
 Integral buffers will be    131072 words long.
 Raffenetti 2 integral format.
 Two-electron integral symmetry is turned off.
 No density basis found on file  20724.
 Leave Link  301 at Tue Jan  3 09:14:48 2023, MaxMem=   536870912 cpu:               0.1 elap:               0.1
 (Enter /opt/software/gaussian/g16.c01/l302.exe)
 NPDir=0 NMtPBC=     1 NCelOv=     1 NCel=       1 NClECP=     1 NCelD=      1
         NCelK=      1 NCelE2=     1 NClLst=     1 CellRange=     0.0.
 One-electron integrals computed using PRISM.
 NBasis=   244 RedAO= T EigKep=  1.40D-04  NBF=   244
 NBsUse=   244 1.00D-06 EigRej= -1.00D+00 NBFU=   244
 Precomputing XC quadrature grid using
 IXCGrd= 4 IRadAn=           5 IRanWt=          -1 IRanGd=           0 AccXCQ= 0.00D+00.
 Generated NRdTot=       0 NPtTot=           0 NUsed=           0 NTot=          32
 NSgBfM=   298   298   298   298   298 MxSgAt=     5 MxSgA2=     5.
 Leave Link  302 at Tue Jan  3 09:14:48 2023, MaxMem=   536870912 cpu:               0.5 elap:               0.2
 (Enter /opt/software/gaussian/g16.c01/l303.exe)
 DipDrv:  MaxL=1.
 Leave Link  303 at Tue Jan  3 09:14:48 2023, MaxMem=   536870912 cpu:               0.1 elap:               0.1
 (Enter /opt/software/gaussian/g16.c01/l401.exe)
 Initial guess from the checkpoint file:  "0005_q000_m01_k00_force_ub3lyp_def2qzvp.chk"
 B after Tr=     0.000000    0.000000    0.000000
         Rot=    1.000000    0.000000    0.000000    0.000000 Ang=   0.00 deg.
 Guess basis will be translated and rotated to current coordinates.
 JPrj=2 DoOrth=T DoCkMO=T.
 Initial guess <Sx>= 0.0000 <Sy>= 0.0000 <Sz>= 0.0000 <S**2>= 0.0000 S= 0.0000
 Leave Link  401 at Tue Jan  3 09:14:48 2023, MaxMem=   536870912 cpu:               0.4 elap:               0.2
 (Enter /opt/software/gaussian/g16.c01/l502.exe)
 Two-electron integral symmetry not used.
 UHF open shell SCF:
 Using DIIS extrapolation, IDIIS=  1040.
 NGot=   536870912 LenX=   536687186 LenY=   536596745
 Requested convergence on RMS density matrix=1.00D-08 within 128 cycles.
 Requested convergence on MAX density matrix=1.00D-06.
 Requested convergence on             energy=1.00D-06.
 No special actions if energy rises.
 Fock matrices will be formed incrementally for  20 cycles.

 Cycle   1  Pass 1  IDiag  1:
 FoFJK:  IHMeth= 1 ICntrl=       0 DoSepK=F KAlg= 0 I1Cent=           0 FoldK=F
 IRaf= 970000000 NMat=       1 IRICut=       1 DoRegI=T DoRafI=F ISym2E= 0 IDoP0=0 IntGTp=1.
 FoFCou: FMM=F IPFlag=           0 FMFlag=      100000 FMFlg1=           0
         NFxFlg=           0 DoJE=F BraDBF=F KetDBF=F FulRan=T
         wScrn=  0.000000 ICntrl=         0 IOpCl=  1 I1Cent=           0 NGrid=           0
         NMat0=    1 NMatS0=      1 NMatT0=    0 NMatD0=    1 NMtDS0=    0 NMtDT0=    0
 Symmetry not used in FoFCou.
 E= -512.779109455700    
 DIIS: error= 2.57D-08 at cycle   1 NSaved=   1.
 NSaved= 1 IEnMin= 1 EnMin= -512.779109455700     IErMin= 1 ErrMin= 2.57D-08
 ErrMax= 2.57D-08  0.00D+00 EMaxC= 1.00D-01 BMatC= 6.01D-13 BMatP= 6.01D-13
 IDIUse=1 WtCom= 1.00D+00 WtEn= 0.00D+00
 Coeff-Com:  0.100D+01
 Coeff:      0.100D+01
 Gap=     0.186 Goal=   None    Shift=    0.000
 Gap=     0.186 Goal=   None    Shift=    0.000
 RMSDP=2.98D-09 MaxDP=1.08D-07              OVMax= 5.65D-07

 SCF Done:  E(UB3LYP) =  -512.779109456     A.U. after    1 cycles
            NFock=  1  Conv=0.30D-08     -V/T= 2.0024
 <Sx>= 0.0000 <Sy>= 0.0000 <Sz>= 0.0000 <S**2>=-0.0000 S=-0.0000
 <L.S>=  0.00000000000    
 KE= 5.115457028375D+02 PE=-1.421010194044D+03 EE= 2.939317588712D+02
 Annihilation of the first spin contaminant:
 S**2 before annihilation    -0.0000,   after    -0.0000
 Leave Link  502 at Tue Jan  3 09:15:01 2023, MaxMem=   536870912 cpu:              25.6 elap:              12.8
 (Enter /opt/software/gaussian/g16.c01/l508.exe)
 QCSCF skips out because SCF is already converged.
 Leave Link  508 at Tue Jan  3 09:15:01 2023, MaxMem=   536870912 cpu:               0.0 elap:               0.0
 (Enter /opt/software/gaussian/g16.c01/l601.exe)
 Copying SCF densities to generalized density rwf, IOpCl= 1 IROHF=0.

 **********************************************************************

            Population analysis using the SCF Density.

 **********************************************************************

 Alpha  occ. eigenvalues --  -88.96623 -19.13148 -10.22945  -8.03613  -5.99783
 Alpha  occ. eigenvalues --   -5.99758  -5.99364  -1.04390  -0.80294  -0.60771
 Alpha  occ. eigenvalues --   -0.49273  -0.46568  -0.42236  -0.39456  -0.29206
 Alpha  occ. eigenvalues --   -0.28015
 Alpha virt. eigenvalues --   -0.09370   0.00614   0.02235   0.05445   0.07302
 Alpha virt. eigenvalues --    0.11171   0.11425   0.14714   0.18329   0.18801
 Alpha virt. eigenvalues --    0.20086   0.23728   0.25615   0.26337   0.30025
 Alpha virt. eigenvalues --    0.30982   0.33854   0.35035   0.36235   0.40156
 Alpha virt. eigenvalues --    0.44616   0.44806   0.52034   0.53422   0.61523
 Alpha virt. eigenvalues --    0.64438   0.66309   0.68207   0.72847   0.73351
 Alpha virt. eigenvalues --    0.76811   0.77086   0.79564   0.79845   0.84409
 Alpha virt. eigenvalues --    0.88293   0.88703   0.91480   0.92114   0.97105
 Alpha virt. eigenvalues --    0.98455   1.01462   1.02967   1.06076   1.06679
 Alpha virt. eigenvalues --    1.11235   1.14089   1.17453   1.18033   1.26577
 Alpha virt. eigenvalues --    1.35259   1.36223   1.37996   1.38510   1.42317
 Alpha virt. eigenvalues --    1.43984   1.48598   1.50968   1.57653   1.65213
 Alpha virt. eigenvalues --    1.66817   1.75943   1.77186   1.80321   1.86365
 Alpha virt. eigenvalues --    1.86839   1.88359   1.93758   1.94211   2.05529
 Alpha virt. eigenvalues --    2.11160   2.12704   2.13878   2.20190   2.22851
 Alpha virt. eigenvalues --    2.25637   2.28907   2.34400   2.42002   2.47131
 Alpha virt. eigenvalues --    2.51815   2.55325   2.56369   2.59509   2.60655
 Alpha virt. eigenvalues --    2.63645   2.68317   2.69029   2.71607   2.72199
 Alpha virt. eigenvalues --    2.81673   2.84682   2.90398   2.91005   2.96537
 Alpha virt. eigenvalues --    3.09413   3.11735   3.11928   3.12900   3.16334
[...]
   120    S    2  g(C1)  Ryd( 5g)     0.00002       3.67702
   121    S    2  g(S1)  Ryd( 5g)     0.00002       3.36776
   122    S    2  g(C2)  Ryd( 5g)     0.00002       3.56204
   123    S    2  g(S2)  Ryd( 5g)     0.00006       3.42125
   124    S    2  g(C3)  Ryd( 5g)     0.00001       3.52687
   125    S    2  g(S3)  Ryd( 5g)     0.00001       3.58482
   126    S    2  g(C4)  Ryd( 5g)     0.00002       3.52868
   127    S    2  g(S4)  Ryd( 5g)     0.00001       3.52422
 
   128    O    3  S      Cor( 1S)     0.99994     -18.92988
   129    O    3  S      Val( 2S)     0.91765      -0.98140
   130    O    3  S      Ryd( 3S)     0.00025       3.47250
   131    O    3  S      Ryd( 4S)     0.00005       5.66502
   132    O    3  S      Ryd( 5S)     0.00000      28.10888
   133    O    3  S      Ryd( 6S)     0.00000      70.14799
   134    O    3  S      Ryd( 7S)     0.00000     209.45822
   135    O    3  px     Val( 2p)     0.89911      -0.30243
   136    O    3  px     Ryd( 3p)     0.00102       0.65839
   137    O    3  px     Ryd( 4p)     0.00002       1.78390
   138    O    3  px     Ryd( 5p)     0.00001       5.01414
   139    O    3  py     Val( 2p)     0.81691      -0.30068
   140    O    3  py     Ryd( 3p)     0.00065       0.64218
   141    O    3  py     Ryd( 4p)     0.00002       1.71710
   142    O    3  py     Ryd( 5p)     0.00001       5.03006
   143    O    3  pz     Val( 2p)     0.78270      -0.31934
   144    O    3  pz     Ryd( 3p)     0.00044       1.01156
   145    O    3  pz     Ryd( 4p)     0.00005       2.10138
   146    O    3  pz     Ryd( 5p)     0.00002       5.27790
   147    O    3  dxy    Ryd( 3d)     0.00194       1.18223
   148    O    3  dxy    Ryd( 4d)     0.00001       3.91409
   149    O    3  dxy    Ryd( 5d)     0.00000      11.99430
   150    O    3  dxz    Ryd( 3d)     0.00456       1.29915
   151    O    3  dxz    Ryd( 4d)     0.00002       4.16319
   152    O    3  dxz    Ryd( 5d)     0.00000      12.10054
   153    O    3  dyz    Ryd( 3d)     0.00515       1.33544
   154    O    3  dyz    Ryd( 4d)     0.00002       4.19270
   155    O    3  dyz    Ryd( 5d)     0.00000      12.11790
   156    O    3  dx2y2  Ryd( 3d)     0.00188       1.18027
   157    O    3  dx2y2  Ryd( 4d)     0.00001       3.88897
   158    O    3  dx2y2  Ryd( 5d)     0.00000      11.99336
   159    O    3  dz2    Ryd( 3d)     0.00550       1.31613
   160    O    3  dz2    Ryd( 4d)     0.00003       4.13271
   161    O    3  dz2    Ryd( 5d)     0.00000      12.10607
   162    O    3  f(0)   Ryd( 4f)     0.00010       4.00284
   163    O    3  f(0)   Ryd( 5f)     0.00000      11.17280
   164    O    3  f(C1)  Ryd( 4f)     0.00012       3.96497
   165    O    3  f(C1)  Ryd( 5f)     0.00000      11.16190
   166    O    3  f(S1)  Ryd( 4f)     0.00013       4.08901
   167    O    3  f(S1)  Ryd( 5f)     0.00000      11.18608
   168    O    3  f(C2)  Ryd( 4f)     0.00009       3.84538
   169    O    3  f(C2)  Ryd( 5f)     0.00000      11.12422
   170    O    3  f(S2)  Ryd( 4f)     0.00012       3.91375
   171    O    3  f(S2)  Ryd( 5f)     0.00000      11.13808
   172    O    3  f(C3)  Ryd( 4f)     0.00002       3.41754
   173    O    3  f(C3)  Ryd( 5f)     0.00000      11.01996
   174    O    3  f(S3)  Ryd( 4f)     0.00002       3.42033
   175    O    3  f(S3)  Ryd( 5f)     0.00000      11.01953
   176    O    3  g(0)   Ryd( 5g)     0.00000       9.03809
   177    O    3  g(C1)  Ryd( 5g)     0.00000       9.03586
   178    O    3  g(S1)  Ryd( 5g)     0.00001       9.05587
   179    O    3  g(C2)  Ryd( 5g)     0.00000       9.03747
   180    O    3  g(S2)  Ryd( 5g)     0.00001       9.05473
   181    O    3  g(C3)  Ryd( 5g)     0.00000       8.99643
   182    O    3  g(S3)  Ryd( 5g)     0.00000       8.99625
   183    O    3  g(C4)  Ryd( 5g)     0.00000       8.89550
   184    O    3  g(S4)  Ryd( 5g)     0.00000       8.89596
 
   185    H    4  S      Val( 1S)     0.38099      -0.01136
   186    H    4  S      Ryd( 3S)     0.00024       1.31128
   187    H    4  S      Ryd( 2S)     0.00014       0.55545
   188    H    4  S      Ryd( 4S)     0.00000       5.48876
   189    H    4  px     Ryd( 2p)     0.00006       2.57285
   190    H    4  px     Ryd( 3p)     0.00003       3.74011
   191    H    4  px     Ryd( 4p)     0.00000       7.65926
   192    H    4  py     Ryd( 2p)     0.00006       2.34407
   193    H    4  py     Ryd( 3p)     0.00006       3.59554
   194    H    4  py     Ryd( 4p)     0.00000       7.35370
   195    H    4  pz     Ryd( 2p)     0.00018       2.86748
   196    H    4  pz     Ryd( 3p)     0.00003       4.53153
   197    H    4  pz     Ryd( 4p)     0.00000       7.78201
   198    H    4  dxy    Ryd( 3d)     0.00002       2.90521
   199    H    4  dxy    Ryd( 4d)     0.00000       8.09729
   200    H    4  dxz    Ryd( 3d)     0.00003       3.32927
   201    H    4  dxz    Ryd( 4d)     0.00000       8.39269
   202    H    4  dyz    Ryd( 3d)     0.00004       3.31323
   203    H    4  dyz    Ryd( 4d)     0.00000       8.40212
   204    H    4  dx2y2  Ryd( 3d)     0.00002       3.00189
   205    H    4  dx2y2  Ryd( 4d)     0.00000       8.11692
   206    H    4  dz2    Ryd( 3d)     0.00006       3.37578
   207    H    4  dz2    Ryd( 4d)     0.00000       8.43123
   208    H    4  f(0)   Ryd( 4f)     0.00000       6.67120
   209    H    4  f(C1)  Ryd( 4f)     0.00002       6.56456
   210    H    4  f(S1)  Ryd( 4f)     0.00002       6.55022
   211    H    4  f(C2)  Ryd( 4f)     0.00000       6.46749
   212    H    4  f(S2)  Ryd( 4f)     0.00002       6.37727
   213    H    4  f(C3)  Ryd( 4f)     0.00000       6.25761
   214    H    4  f(S3)  Ryd( 4f)     0.00000       6.24473
 
   215    H    5  S      Val( 1S)     0.37787      -0.00173
   216    H    5  S      Ryd( 2S)     0.00092       0.85176
   217    H    5  S      Ryd( 3S)     0.00015       1.23360
   218    H    5  S      Ryd( 4S)     0.00000       5.31433
   219    H    5  px     Ryd( 2p)     0.00044       1.66910
   220    H    5  px     Ryd( 3p)     0.00001       3.88206
   221    H    5  px     Ryd( 4p)     0.00000       7.94635
   222    H    5  py     Ryd( 2p)     0.00018       1.28261
   223    H    5  py     Ryd( 3p)     0.00003       3.36453
   224    H    5  py     Ryd( 4p)     0.00000       7.74534
   225    H    5  pz     Ryd( 2p)     0.00043       1.66767
   226    H    5  pz     Ryd( 3p)     0.00003       4.24079
   227    H    5  pz     Ryd( 4p)     0.00000       7.97375
   228    H    5  dxy    Ryd( 3d)     0.00001       4.02079
   229    H    5  dxy    Ryd( 4d)     0.00000       7.26016
   230    H    5  dxz    Ryd( 3d)     0.00002       4.48058
   231    H    5  dxz    Ryd( 4d)     0.00000       7.54714
   232    H    5  dyz    Ryd( 3d)     0.00001       4.32894
   233    H    5  dyz    Ryd( 4d)     0.00000       7.39144
   234    H    5  dx2y2  Ryd( 3d)     0.00001       4.21703
   235    H    5  dx2y2  Ryd( 4d)     0.00000       7.26413
   236    H    5  dz2    Ryd( 3d)     0.00002       4.48024
   237    H    5  dz2    Ryd( 4d)     0.00000       7.48651
   238    H    5  f(0)   Ryd( 4f)     0.00000       6.63333
   239    H    5  f(C1)  Ryd( 4f)     0.00001       6.55842
   240    H    5  f(S1)  Ryd( 4f)     0.00001       6.51719
   241    H    5  f(C2)  Ryd( 4f)     0.00001       6.47425
   242    H    5  f(S2)  Ryd( 4f)     0.00002       6.33783
   243    H    5  f(C3)  Ryd( 4f)     0.00000       6.35289
   244    H    5  f(S3)  Ryd( 4f)     0.00000       6.32552

 WARNING:  Population inversion found on atom  C    1
           Population inversion found on atom  S    2
           Population inversion found on atom  H    4


 Summary of Natural Population Analysis:                  
                                                          
                                       Natural Population 
                Natural  -----------------------------------------------
    Atom  No    Charge         Core      Valence    Rydberg      Total
 -----------------------------------------------------------------------
      C    1   -0.37426      0.99979     2.35869    0.01578     3.37426
      S    2    0.57514      4.99927     2.35300    0.07259     7.42486
      O    3   -0.43862      0.99994     3.41637    0.02232     4.43862
      H    4    0.11796      0.00000     0.38099    0.00105     0.38204
      H    5    0.11978      0.00000     0.37787    0.00235     0.38022
 =======================================================================
   * Total *   -0.00000      6.99900     8.88691    0.11409    16.00000

                                 Natural Population      
 --------------------------------------------------------
   Core                       6.99900 ( 99.9857% of   7)
   Valence                    8.88691 ( 98.7435% of   9)
   Natural Minimal Basis     15.88591 ( 99.2869% of  16)
   Natural Rydberg Basis      0.11409 (  0.7131% of  16)
 --------------------------------------------------------

    Atom  No          Natural Electron Configuration
 ----------------------------------------------------------------------------
      C    1      [core]2S( 0.61)2p( 1.75)3p( 0.01)3d( 0.01)
      S    2      [core]3S( 0.78)3p( 1.57)4S( 0.02)3d( 0.04)4p( 0.01)
      O    3      [core]2S( 0.92)2p( 2.50)3d( 0.02)
      H    4            1S( 0.38)
      H    5            1S( 0.38)


 NBO analysis skipped by request.
 Leave Link  607 at Tue Jan  3 09:15:04 2023, MaxMem=   536870912 cpu:               3.9 elap:               1.9
 (Enter /opt/software/gaussian/g16.c01/l701.exe)
 ... and contract with generalized density number  0.
 Compute integral first derivatives.
 Leave Link  701 at Tue Jan  3 09:15:05 2023, MaxMem=   536870912 cpu:               0.5 elap:               0.2
 (Enter /opt/software/gaussian/g16.c01/l702.exe)
 L702 exits ... SP integral derivatives will be done elsewhere.
 Leave Link  702 at Tue Jan  3 09:15:05 2023, MaxMem=   536870912 cpu:               0.1 elap:               0.0
 (Enter /opt/software/gaussian/g16.c01/l703.exe)
 Integral derivatives from FoFJK, PRISM(SPDF).
 Compute integral first derivatives, UseDBF=F ICtDFT=           0.
 Calling FoFJK, ICntrl=      2127 FMM=F ISym2X=0 I1Cent= 0 IOpClX= 1 NMat=1 NMatS=1 NMatT=0.
 FoFJK:  IHMeth= 1 ICntrl=    2127 DoSepK=F KAlg= 0 I1Cent=           0 FoldK=F
 IRaf=         0 NMat=       1 IRICut=       1 DoRegI=T DoRafI=F ISym2E= 0 IDoP0=0 IntGTp=1.
 FoFCou: FMM=F IPFlag=           0 FMFlag=      100000 FMFlg1=         800
         NFxFlg=           0 DoJE=F BraDBF=F KetDBF=F FulRan=T
         wScrn=  0.000000 ICntrl=      2127 IOpCl=  1 I1Cent=           0 NGrid=           0
         NMat0=    1 NMatS0=      1 NMatT0=    0 NMatD0=    1 NMtDS0=    0 NMtDT0=    0
 Symmetry not used in FoFCou.
 Leave Link  703 at Tue Jan  3 09:15:57 2023, MaxMem=   536870912 cpu:             103.8 elap:              51.9
 (Enter /opt/software/gaussian/g16.c01/l716.exe)
 Dipole        =-9.09546444D-01 4.24150062D-01 7.42482499D-01
 -------------------------------------------------------------------
 Center     Atomic                   Forces (Hartrees/Bohr)
 Number     Number              X              Y              Z
 -------------------------------------------------------------------
      1        6          -0.002314557    0.000735185    0.001291330
      2       16           0.002320379   -0.009450177   -0.016571542
      3        8          -0.005763404    0.008775538    0.015382265
      4        1           0.002338298   -0.003327036   -0.005806858
      5        1           0.003419285    0.003266490    0.005704805
 -------------------------------------------------------------------
 Cartesian Forces:  Max     0.016571542 RMS     0.007433594
 Z-matrix is all fixed cartesians, so copy forces.
 Force constants in Cartesian coordinates: 
                1             2             3             4             5 
      1  0.829676D+00
      2  0.511240D-02  0.243810D+00
      3  0.905768D-02  0.234956D+00  0.520669D+00
      4 -0.491409D+00 -0.959762D-02 -0.168745D-01  0.641682D+00
      5  0.287596D-02 -0.491361D-01 -0.278604D-01 -0.128355D+00  0.207963D+00
      6  0.496707D-02 -0.278624D-01 -0.819862D-01 -0.224638D+00  0.320470D+00
      7  0.492524D-03  0.133103D-01  0.233039D-01 -0.150309D+00  0.124519D+00
      8  0.104201D-03  0.602149D-02  0.308174D-02  0.137725D+00 -0.180658D+00
      9  0.181864D-03  0.308386D-02  0.966084D-02  0.241117D+00 -0.294338D+00
     10 -0.151987D+00  0.492920D-01  0.862296D-01  0.424157D-03  0.114682D-01
     11  0.447359D-01 -0.101753D+00 -0.113561D+00  0.975664D-04  0.365001D-02
     12  0.782568D-01 -0.113560D+00 -0.235538D+00  0.170666D-03  0.403592D-02
     13 -0.186773D+00 -0.581171D-01 -0.101717D+00 -0.388712D-03 -0.105080D-01
     14 -0.528284D-01 -0.989424D-01 -0.966159D-01  0.130067D-03  0.181809D-01
     15 -0.924634D-01 -0.966168D-01 -0.212806D+00  0.224637D-03 -0.230723D-02
                6             7             8             9            10 
      6  0.585965D+00
      7  0.217995D+00  0.149816D+00
      8 -0.294336D+00 -0.137829D+00  0.174946D+00
      9 -0.527847D+00 -0.241299D+00  0.291077D+00  0.518287D+00
     10  0.200660D-01  0.000000D+00  0.000000D+00  0.000000D+00  0.123189D+00
     11  0.403202D-02  0.000000D+00  0.453529D-02 -0.259031D-02 -0.513576D-01
     12  0.840740D-02  0.000000D+00 -0.259199D-02  0.148040D-02 -0.898457D-01
     13 -0.183902D-01  0.000000D+00  0.000000D+00  0.000000D+00  0.283742D-01
     14 -0.230345D-02  0.000000D+00 -0.484560D-02  0.276754D-02 -0.940299D-02
     15  0.154602D-01  0.000000D+00  0.276920D-02 -0.158162D-02 -0.164496D-01
               11            12            13            14            15 
     11  0.877574D-01
     12  0.120457D+00  0.229666D+00
     13  0.652373D-02  0.114185D-01  0.158787D+00
     14  0.581069D-02 -0.834082D-02  0.621018D-01  0.797964D-01
     15 -0.833779D-02 -0.401584D-02  0.108688D+00  0.104493D+00  0.202943D+00
 Leave Link  716 at Tue Jan  3 09:15:57 2023, MaxMem=   536870912 cpu:               0.1 elap:               0.1
 (Enter /opt/software/gaussian/g16.c01/l103.exe)

 GradGradGradGradGradGradGradGradGradGradGradGradGradGradGradGradGradGrad
 Berny optimization.
 Search for a local minimum.
 Step number   1 out of a maximum of    2
 All quantities printed in internal units (Hartrees-Bohrs-Radians)
 Second derivative matrix not updated -- first step.
 The second derivative matrix:
                          X1        Y1        Z1        X2        Y2
           X1           0.82968
           Y1           0.00511   0.24381
           Z1           0.00906   0.23496   0.52067
           X2          -0.49141  -0.00960  -0.01687   0.64168
           Y2           0.00288  -0.04914  -0.02786  -0.12836   0.20796
           Z2           0.00497  -0.02786  -0.08199  -0.22464   0.32047
           X3           0.00049   0.01331   0.02330  -0.15031   0.12452
           Y3           0.00010   0.00602   0.00308   0.13773  -0.18066
           Z3           0.00018   0.00308   0.00966   0.24112  -0.29434
           X4          -0.15199   0.04929   0.08623   0.00042   0.01147
           Y4           0.04474  -0.10175  -0.11356   0.00010   0.00365
           Z4           0.07826  -0.11356  -0.23554   0.00017   0.00404
           X5          -0.18677  -0.05812  -0.10172  -0.00039  -0.01051
           Y5          -0.05283  -0.09894  -0.09662   0.00013   0.01818
           Z5          -0.09246  -0.09662  -0.21281   0.00022  -0.00231
                          Z2        X3        Y3        Z3        X4
           Z2           0.58597
           X3           0.21800   0.14982
           Y3          -0.29434  -0.13783   0.17495
           Z3          -0.52785  -0.24130   0.29108   0.51829
           X4           0.02007   0.00000   0.00000  -0.00000   0.12319
           Y4           0.00403   0.00000   0.00454  -0.00259  -0.05136
           Z4           0.00841  -0.00000  -0.00259   0.00148  -0.08985
           X5          -0.01839  -0.00000  -0.00000   0.00000   0.02837
           Y5          -0.00230  -0.00000  -0.00485   0.00277  -0.00940
           Z5           0.01546   0.00000   0.00277  -0.00158  -0.01645
                          Y4        Z4        X5        Y5        Z5
           Y4           0.08776
           Z4           0.12046   0.22967
           X5           0.00652   0.01142   0.15879
           Y5           0.00581  -0.00834   0.06210   0.07980
           Z5          -0.00834  -0.00402   0.10869   0.10449   0.20294
 ITU=  0
     Eigenvalues ---    0.02243   0.03701   0.09811   0.12281   0.16471
     Eigenvalues ---    0.34496   0.86201   1.16715   1.68793
 Angle between quadratic step and forces=  52.03 degrees.
 Linear search not attempted -- first point.
 B after Tr=    -0.002402   -0.003814   -0.006686
         Rot=    1.000000    0.000056    0.000546   -0.000334 Ang=   0.07 deg.
 Variable       Old X    -DE/DX   Delta X   Delta X   Delta X     New X
                                 (Linear)    (Quad)   (Total)
    X1        1.84631  -0.00231   0.00000  -0.00182  -0.00400   1.84231
    Y1       -0.03741   0.00074   0.00000   0.00108  -0.00152  -0.03893
    Z1       -0.19054   0.00129   0.00000   0.00189  -0.00278  -0.19332
    X2        4.89062   0.00232   0.00000  -0.00915  -0.01123   4.87939
    Y2       -0.06532  -0.00945   0.00000  -0.00865  -0.00923  -0.07455
    Z2       -0.23894  -0.01657   0.00000  -0.01553  -0.01688  -0.25582
    X3        5.99277  -0.00576   0.00000   0.01229   0.01348   6.00625
    Y3       -1.34985   0.00878   0.00000   0.00799   0.00791  -1.34194
    Z3       -2.48781   0.01538   0.00000   0.01439   0.01441  -2.47340
    X4        0.97901   0.00234   0.00000   0.01443   0.00989   0.98890
    Y4        0.89117  -0.00333   0.00000  -0.00675  -0.00974   0.88143
    Z4        1.43411  -0.00581   0.00000  -0.01081  -0.01651   1.41760
    X5        0.70071   0.00342   0.00000  -0.00812  -0.00814   0.69258
    Y5       -0.88856   0.00327   0.00000   0.01612   0.01259  -0.87597
    Z5       -1.68006   0.00570   0.00000   0.02759   0.02176  -1.65829
         Item               Value     Threshold  Converged?
 Maximum Force            0.016572     0.000450     NO 
 RMS     Force            0.007434     0.000300     NO 
 Maximum Displacement     0.021764     0.001800     NO 
 RMS     Displacement     0.011939     0.001200     NO 
 Predicted change in Energy=-4.236766D-04
 GradGradGradGradGradGradGradGradGradGradGradGradGradGradGradGradGradGrad

 Leave Link  103 at Tue Jan  3 09:15:57 2023, MaxMem=   536870912 cpu:               0.0 elap:               0.0
 (Enter /opt/software/gaussian/g16.c01/l9999.exe)
 Unable to Open any file for archive entry.
 1\1\GINC-GRA738\Force\UB3LYP\Gen\C1H2O1S1\BHAVUK\03-Jan-2023\0\\#p ub3
 lyp/chkbasis force guess=read geom=check scf=(maxcycle=900,verytightli
 neq,xqc) integral=grid=ultrafine symmetry=None density=current pop=(cm
 5,hlygat,mbs,npa) output=wfx\\0005_q000_m01_k00_opt_uwb97xd_def2svpd/0
 005_q000_m01_k00_force_ub3lyp_def2qzvp stable-force\\0,1\C,0.977024504
 2,-0.0197961728,-0.1008273286\S,2.5880021429,-0.0345660623,-0.12643906
 8\O,3.1712397907,-0.7143116203,-1.3164938758\H,0.5180717789,0.47158801
 24,0.7588975415\H,0.3708017881,-0.4702041579,-0.8890472689\\Version=ES
 64L-G16RevC.01\HF=-512.7791095\S2=0.\S2-1=0.\S2A=0.\RMSD=2.977e-09\RMS
 F=7.434e-03\Dipole=-0.9095464,0.4241501,0.7424825\Quadrupole=-3.631439
 1,2.4057002,1.2257389,2.7459589,4.920868,-0.8956134\PG=Unknown\\@
 The archive entry for this job was punched.

 Writing a WFNX file to "0005_q000_m01_k00_force_ub3lyp_def2qzvp.wfx"


 I take a simple view of life: keep your eyes open and get on with it.
 -- Laurence Olivier
 Job cpu time:       0 days  0 hours  2 minutes 19.3 seconds.
 Elapsed time:       0 days  0 hours  1 minutes  9.4 seconds.
 File lengths (MBytes):  RWF=     61 Int=      0 D2E=      0 Chk=      9 Scr=      1
 Normal termination of Gaussian 16 at Tue Jan  3 09:15:57 2023.
