 Entering Gaussian System, Link 0=g16
 Input=0005_q000_m01_k00_force_ub3lyp_def2svp.com
 Output=0005_q000_m01_k00_force_ub3lyp_def2svp.log
 Initial command:
 /opt/software/gaussian/g16.c01/l1.exe "/localscratch/bhavuk.2151412.0/Gau-20728.inp" -scrdir="/localscratch/bhavuk.2151412.0/"
 Entering Link 1 = /opt/software/gaussian/g16.c01/l1.exe PID=     20742.
  
 Copyright (c) 1988-2019, Gaussian, Inc.  All Rights Reserved.
  
 This is part of the Gaussian(R) 16 program.  It is based on
 the Gaussian(R) 09 system (copyright 2009, Gaussian, Inc.),
 the Gaussian(R) 03 system (copyright 2003, Gaussian, Inc.),
 the Gaussian(R) 98 system (copyright 1998, Gaussian, Inc.),
 the Gaussian(R) 94 system (copyright 1995, Gaussian, Inc.),
 the Gaussian 92(TM) system (copyright 1992, Gaussian, Inc.),
 the Gaussian 90(TM) system (copyright 1990, Gaussian, Inc.),
 the Gaussian 88(TM) system (copyright 1988, Gaussian, Inc.),
 the Gaussian 86(TM) system (copyright 1986, Carnegie Mellon
 University), and the Gaussian 82(TM) system (copyright 1983,
 Carnegie Mellon University). Gaussian is a federally registered
 trademark of Gaussian, Inc.
  
 This software contains proprietary and confidential information,
 including trade secrets, belonging to Gaussian, Inc.
  
 This software is provided under written license and may be
 used, copied, transmitted, or stored only in accord with that
 written license.
  
 The following legend is applicable only to US Government
 contracts under FAR:
  
                    RESTRICTED RIGHTS LEGEND
  
 Use, reproduction and disclosure by the US Government is
 subject to restrictions as set forth in subparagraphs (a)
 and (c) of the Commercial Computer Software - Restricted
 Rights clause in FAR 52.227-19.
  
 Gaussian, Inc.
 340 Quinnipiac St., Bldg. 40, Wallingford CT 06492
  
  
 ---------------------------------------------------------------
 Warning -- This program may not be used in any manner that
 competes with the business of Gaussian, Inc. or will provide
 assistance to any competitor of Gaussian, Inc.  The licensee
 of this program is prohibited from giving any competitor of
 Gaussian, Inc. access to this program.  By using this program,
 the user acknowledges that Gaussian, Inc. is engaged in the
 business of creating and licensing software in the field of
 computational chemistry and represents and warrants to the
 licensee that it is not a competitor of Gaussian, Inc. and that
 it will not use this program in any manner prohibited above.
 ---------------------------------------------------------------
  

 Cite this work as:
 Gaussian 16, Revision C.01,
 M. J. Frisch, G. W. Trucks, H. B. Schlegel, G. E. Scuseria, 
 M. A. Robb, J. R. Cheeseman, G. Scalmani, V. Barone, 
 G. A. Petersson, H. Nakatsuji, X. Li, M. Caricato, A. V. Marenich, 
 J. Bloino, B. G. Janesko, R. Gomperts, B. Mennucci, H. P. Hratchian, 
 J. V. Ortiz, A. F. Izmaylov, J. L. Sonnenberg, D. Williams-Young, 
 F. Ding, F. Lipparini, F. Egidi, J. Goings, B. Peng, A. Petrone, 
 T. Henderson, D. Ranasinghe, V. G. Zakrzewski, J. Gao, N. Rega, 
 G. Zheng, W. Liang, M. Hada, M. Ehara, K. Toyota, R. Fukuda, 
 J. Hasegawa, M. Ishida, T. Nakajima, Y. Honda, O. Kitao, H. Nakai, 
 T. Vreven, K. Throssell, J. A. Montgomery, Jr., J. E. Peralta, 
 F. Ogliaro, M. J. Bearpark, J. J. Heyd, E. N. Brothers, K. N. Kudin, 
 V. N. Staroverov, T. A. Keith, R. Kobayashi, J. Normand, 
 K. Raghavachari, A. P. Rendell, J. C. Burant, S. S. Iyengar, 
 J. Tomasi, M. Cossi, J. M. Millam, M. Klene, C. Adamo, R. Cammi, 
 J. W. Ochterski, R. L. Martin, K. Morokuma, O. Farkas, 
 J. B. Foresman, and D. J. Fox, Gaussian, Inc., Wallingford CT, 2019.
 
 ******************************************
 Gaussian 16:  ES64L-G16RevC.01  3-Jul-2019
                 3-Jan-2023 
 ******************************************
 %chk=0005_q000_m01_k00_force_ub3lyp_def2svp.chk
 %nprocshared=2
 Will use up to    2 processors via shared memory.
 %mem=4GB
 ----------------------------------------------------------------------
 #p ub3lyp/gen stable=opt scf=(maxcycle=900,verytightlineq,xqc) integra
 l=grid=ultrafine symmetry=None density=current iop(99/18=-1) output=wf
 n
 ----------------------------------------------------------------------
 1/38=1,172=1/1;
 2/12=2,15=3,17=6,18=5,40=1/2;
 3/5=7,11=2,25=1,30=1,74=-5,75=-5,116=2/1,2,3;
 4//1;
 5/5=2,7=900,8=3,13=1,17=3,38=5/2,8;
 6/7=2,8=2,9=2,10=2,22=-1,28=1/1;
 8/6=1,10=90,11=11/1;
 9/8=-3,42=1,46=1/14;
 5/5=2,7=900,8=3,17=43,38=5/8(-2);
 6/7=2,8=2,9=2,10=2,22=-1,28=1/1;
 99/5=1,6=100,9=1,18=-1/99;
 Leave Link    1 at Tue Jan  3 09:07:07 2023, MaxMem=   536870912 cpu:               0.1 elap:               0.1
 (Enter /opt/software/gaussian/g16.c01/l101.exe)
 ----------------------------------------------------------------------
 0005_q000_m01_k00_opt_uwb97xd_def2svpd/0005_q000_m01_k00_force_ub3lyp_
 def2svp stable-force
 ----------------------------------------------------------------------
 Symbolic Z-matrix:
 Charge =  0 Multiplicity = 1
 C                     0.97702  -0.0198   -0.10083 
 S                     2.588    -0.03457  -0.12644 
 O                     3.17124  -0.71431  -1.31649 
 H                     0.51807   0.47159   0.7589 
 H                     0.3708   -0.4702   -0.88905 
 
 ITRead=  0  0  0  0  0
 MicOpt= -1 -1 -1 -1 -1
 NAtoms=      5 NQM=        5 NQMF=       0 NMMI=      0 NMMIF=      0
                NMic=       0 NMicF=      0.
                    Isotopes and Nuclear Properties:
 (Nuclear quadrupole moments (NQMom) in fm**2, nuclear magnetic moments (NMagM)
  in nuclear magnetons)

  Atom         1           2           3           4           5
 IAtWgt=          12          32          16           1           1
 AtmWgt=  12.0000000  31.9720718  15.9949146   1.0078250   1.0078250
 NucSpn=           0           0           0           1           1
 AtZEff=  -0.0000000  -0.0000000  -0.0000000  -0.0000000  -0.0000000
 NQMom=    0.0000000   0.0000000   0.0000000   0.0000000   0.0000000
 NMagM=    0.0000000   0.0000000   0.0000000   2.7928460   2.7928460
 AtZNuc=   6.0000000  16.0000000   8.0000000   1.0000000   1.0000000
 Leave Link  101 at Tue Jan  3 09:07:07 2023, MaxMem=   536870912 cpu:               0.5 elap:               0.3
 (Enter /opt/software/gaussian/g16.c01/l202.exe)
                          Input orientation:                          
 ---------------------------------------------------------------------
 Center     Atomic      Atomic             Coordinates (Angstroms)
 Number     Number       Type             X           Y           Z
 ---------------------------------------------------------------------
      1          6           0        0.977025   -0.019796   -0.100827
      2         16           0        2.588002   -0.034566   -0.126439
      3          8           0        3.171240   -0.714312   -1.316494
      4          1           0        0.518072    0.471588    0.758898
      5          1           0        0.370802   -0.470204   -0.889047
 ---------------------------------------------------------------------
                    Distance matrix (angstroms):
                    1          2          3          4          5
     1  C    0.000000
     2  S    1.611249   0.000000
     3  O    2.602840   1.489446   0.000000
     4  H    1.091432   2.307515   3.571121   0.000000
     5  H    1.091634   2.384812   2.843370   1.903781   0.000000
 Symmetry turned off by external request.
 Stoichiometry    CH2OS
 Rotational constants (GHZ):          39.0370487           9.3459813           7.5406507
 Leave Link  202 at Tue Jan  3 09:07:07 2023, MaxMem=   536870912 cpu:               0.0 elap:               0.0
 (Enter /opt/software/gaussian/g16.c01/l301.exe)
 General basis read from cards:  (5D, 7F)
 Centers:       4      5
 S 3 1.00
     Exponent=  1.3010701000D+01 Coefficients=  1.9682158000D-02
     Exponent=  1.9622572000D+00 Coefficients=  1.3796524000D-01
     Exponent=  4.4453796000D-01 Coefficients=  4.7831935000D-01
 S 1 1.00
     Exponent=  1.2194962000D-01 Coefficients=  1.0000000000D+00
 P 1 1.00
     Exponent=  8.0000000000D-01 Coefficients=  1.0000000000D+00
 ****
 Centers:       1
 S 5 1.00
     Exponent=  1.2384016938D+03 Coefficients=  5.4568832082D-03
     Exponent=  1.8629004992D+02 Coefficients=  4.0638409211D-02
     Exponent=  4.2251176346D+01 Coefficients=  1.8025593888D-01
     Exponent=  1.1676557932D+01 Coefficients=  4.6315121755D-01
     Exponent=  3.5930506482D+00 Coefficients=  4.4087173314D-01
 S 1 1.00
     Exponent=  4.0245147363D-01 Coefficients=  1.0000000000D+00
 S 1 1.00
     Exponent=  1.3090182668D-01 Coefficients=  1.0000000000D+00
 P 3 1.00
     Exponent=  9.4680970621D+00 Coefficients=  3.8387871728D-02
     Exponent=  2.0103545142D+00 Coefficients=  2.1117025112D-01
     Exponent=  5.4771004707D-01 Coefficients=  5.1328172114D-01
 P 1 1.00
     Exponent=  1.5268613795D-01 Coefficients=  1.0000000000D+00
 D 1 1.00
     Exponent=  8.0000000000D-01 Coefficients=  1.0000000000D+00
 ****
 Centers:       3
 S 5 1.00
     Exponent=  2.2661767785D+03 Coefficients= -5.3431809926D-03
     Exponent=  3.4087010191D+02 Coefficients= -3.9890039230D-02
     Exponent=  7.7363135167D+01 Coefficients= -1.7853911985D-01
     Exponent=  2.1479644940D+01 Coefficients= -4.6427684959D-01
     Exponent=  6.6589433124D+00 Coefficients= -4.4309745172D-01
 S 1 1.00
     Exponent=  8.0975975668D-01 Coefficients=  1.0000000000D+00
 S 1 1.00
     Exponent=  2.5530772234D-01 Coefficients=  1.0000000000D+00
 P 3 1.00
     Exponent=  1.7721504317D+01 Coefficients=  4.3394573193D-02
     Exponent=  3.8635505440D+00 Coefficients=  2.3094120765D-01
     Exponent=  1.0480920883D+00 Coefficients=  5.1375311064D-01
 P 1 1.00
     Exponent=  2.7641544411D-01 Coefficients=  1.0000000000D+00
 D 1 1.00
     Exponent=  1.2000000000D+00 Coefficients=  1.0000000000D+00
 ****
 Centers:       2
 S 5 1.00
     Exponent=  9.1849303010D+03 Coefficients= -2.2294387756D-03
     Exponent=  1.3815105503D+03 Coefficients= -1.6683029937D-02
     Exponent=  3.1387147580D+02 Coefficients= -7.5262436116D-02
     Exponent=  8.8053870623D+01 Coefficients= -1.9376827038D-01
     Exponent=  2.7039914905D+01 Coefficients= -1.7718020803D-01
 S 3 1.00
     Exponent=  4.5648731303D+01 Coefficients= -1.0736062573D-01
     Exponent=  4.9664522326D+00 Coefficients=  6.5066293018D-01
     Exponent=  2.0116242047D+00 Coefficients=  5.9712155354D-01
 S 1 1.00
     Exponent=  3.5661077013D-01 Coefficients=  1.0000000000D+00
 S 1 1.00
     Exponent=  1.3507221477D-01 Coefficients=  1.0000000000D+00
 P 5 1.00
     Exponent=  2.6198233439D+02 Coefficients= -9.2729929822D-03
     Exponent=  6.1306894736D+01 Coefficients= -6.6547669241D-02
     Exponent=  1.9103729887D+01 Coefficients= -2.4828595903D-01
     Exponent=  6.6567720378D+00 Coefficients= -4.8703847402D-01
     Exponent=  2.3959635161D+00 Coefficients= -3.9337850312D-01
 P 1 1.00
     Exponent=  6.1776161679D-01 Coefficients=  1.0000000000D+00
 P 1 1.00
     Exponent=  1.6993376871D-01 Coefficients=  1.0000000000D+00
 D 1 1.00
     Exponent=  5.5000000000D-01 Coefficients=  1.0000000000D+00
 ****
 Ernie: Thresh=  0.10000D-02 Tol=  0.10000D-05 Strict=F.
    56 basis functions,   101 primitive gaussians,    59 cartesian basis functions
    16 alpha electrons       16 beta electrons
       nuclear repulsion energy       102.7536228800 Hartrees.
 IExCor=  402 DFT=T Ex+Corr=B3LYP ExCW=0 ScaHFX=  0.200000
 ScaDFX=  0.800000  0.720000  1.000000  0.810000 ScalE2=  1.000000  1.000000
 IRadAn=      5 IRanWt=     -1 IRanGd=            0 ICorTp=0 IEmpDi=  4
 NAtoms=    5 NActive=    5 NUniq=    5 SFac= 1.00D+00 NAtFMM=   60 NAOKFM=F Big=F
 Integral buffers will be    131072 words long.
 Raffenetti 2 integral format.
 Two-electron integral symmetry is turned off.
 Leave Link  301 at Tue Jan  3 09:07:07 2023, MaxMem=   536870912 cpu:               0.1 elap:               0.1
 (Enter /opt/software/gaussian/g16.c01/l302.exe)
 NPDir=0 NMtPBC=     1 NCelOv=     1 NCel=       1 NClECP=     1 NCelD=      1
         NCelK=      1 NCelE2=     1 NClLst=     1 CellRange=     0.0.
 One-electron integrals computed using PRISM.
 NBasis=    56 RedAO= T EigKep=  8.61D-03  NBF=    56
 NBsUse=    56 1.00D-06 EigRej= -1.00D+00 NBFU=    56
 Precomputing XC quadrature grid using
 IXCGrd= 4 IRadAn=           5 IRanWt=          -1 IRanGd=           0 AccXCQ= 0.00D+00.
 Generated NRdTot=       0 NPtTot=           0 NUsed=           0 NTot=          32
 NSgBfM=    59    59    59    59    59 MxSgAt=     5 MxSgA2=     5.
 Leave Link  302 at Tue Jan  3 09:07:07 2023, MaxMem=   536870912 cpu:               0.3 elap:               0.2
 (Enter /opt/software/gaussian/g16.c01/l303.exe)
 DipDrv:  MaxL=1.
 Leave Link  303 at Tue Jan  3 09:07:07 2023, MaxMem=   536870912 cpu:               0.1 elap:               0.0
 (Enter /opt/software/gaussian/g16.c01/l401.exe)
 ExpMin= 1.22D-01 ExpMax= 9.18D+03 ExpMxC= 1.38D+03 IAcc=3 IRadAn=         5 AccDes= 0.00D+00
 Harris functional with IExCor=  402 and IRadAn=       5 diagonalized for initial guess.
 HarFok:  IExCor=  402 AccDes= 0.00D+00 IRadAn=         5 IDoV= 1 UseB2=F ITyADJ=14
 ICtDFT=  3500011 ScaDFX=  1.000000  1.000000  1.000000  1.000000
 FoFCou: FMM=F IPFlag=           0 FMFlag=      100000 FMFlg1=           0
         NFxFlg=           0 DoJE=T BraDBF=F KetDBF=T FulRan=T
         wScrn=  0.000000 ICntrl=       500 IOpCl=  0 I1Cent=   200000004 NGrid=           0
         NMat0=    1 NMatS0=      1 NMatT0=    0 NMatD0=    1 NMtDS0=    0 NMtDT0=    0
 Symmetry not used in FoFCou.
 Harris En= -512.470388040734    
 JPrj=0 DoOrth=F DoCkMO=F.
 Initial guess <Sx>= 0.0000 <Sy>= 0.0000 <Sz>= 0.0000 <S**2>=-0.0000 S=-0.0000
 Leave Link  401 at Tue Jan  3 09:07:08 2023, MaxMem=   536870912 cpu:               0.6 elap:               0.3
 (Enter /opt/software/gaussian/g16.c01/l502.exe)
 Keep R1 and R2 ints in memory in canonical form, NReq=4311527.
 FoFCou: FMM=F IPFlag=           0 FMFlag=           0 FMFlg1=           0
         NFxFlg=           0 DoJE=F BraDBF=F KetDBF=F FulRan=T
         wScrn=  0.000000 ICntrl=       600 IOpCl=  0 I1Cent=           0 NGrid=           0
         NMat0=    1 NMatS0=   1596 NMatT0=    0 NMatD0=    1 NMtDS0=    0 NMtDT0=    0
 Symmetry not used in FoFCou.
 Two-electron integral symmetry not used.
 UHF open shell SCF:
 Using DIIS extrapolation, IDIIS=  1040.
 NGot=   536870912 LenX=   534314063 LenY=   534310141
 Requested convergence on RMS density matrix=1.00D-08 within 128 cycles.
 Requested convergence on MAX density matrix=1.00D-06.
 Requested convergence on             energy=1.00D-06.
 No special actions if energy rises.
 Integral accuracy reduced to 1.0D-05 until final iterations.

 Cycle   1  Pass 0  IDiag  1:
 E= -512.251064249321    
 DIIS: error= 4.72D-02 at cycle   1 NSaved=   1.
 NSaved= 1 IEnMin= 1 EnMin= -512.251064249321     IErMin= 1 ErrMin= 4.72D-02
 ErrMax= 4.72D-02  0.00D+00 EMaxC= 1.00D-01 BMatC= 8.92D-01 BMatP= 8.92D-01
 IDIUse=3 WtCom= 5.28D-01 WtEn= 4.72D-01
 Coeff-Com:  0.100D+01
 Coeff-En:   0.100D+01
 Coeff:      0.100D+01
 Gap=     0.174 Goal=   None    Shift=    0.000
 Gap=     0.174 Goal=   None    Shift=    0.000
 GapD=    0.174 DampG=1.000 DampE=0.500 DampFc=0.5000 IDamp=-1.
 Damping current iteration by 5.00D-01
 RMSDP=2.23D-02 MaxDP=2.55D-01              OVMax= 4.41D-01

 Cycle   2  Pass 0  IDiag  1:
 E= -512.268567479983     Delta-E=       -0.017503230662 Rises=F Damp=T
 DIIS: error= 3.08D-02 at cycle   2 NSaved=   2.
 NSaved= 2 IEnMin= 2 EnMin= -512.268567479983     IErMin= 2 ErrMin= 3.08D-02
 ErrMax= 3.08D-02  0.00D+00 EMaxC= 1.00D-01 BMatC= 2.13D-01 BMatP= 8.92D-01
 IDIUse=3 WtCom= 6.92D-01 WtEn= 3.08D-01
 Coeff-Com:  0.308D+00 0.692D+00
 Coeff-En:   0.466D+00 0.534D+00
 Coeff:      0.357D+00 0.643D+00
 Gap=     0.167 Goal=   None    Shift=    0.000
 Gap=     0.167 Goal=   None    Shift=    0.000
 RMSDP=7.12D-03 MaxDP=7.58D-02 DE=-1.75D-02 OVMax= 2.72D-01

 Cycle   3  Pass 0  IDiag  1:
 E= -512.395797050107     Delta-E=       -0.127229570124 Rises=F Damp=F
 DIIS: error= 2.49D-02 at cycle   3 NSaved=   3.
 NSaved= 3 IEnMin= 3 EnMin= -512.395797050107     IErMin= 3 ErrMin= 2.49D-02
 ErrMax= 2.49D-02  0.00D+00 EMaxC= 1.00D-01 BMatC= 1.95D-01 BMatP= 2.13D-01
 IDIUse=3 WtCom= 7.51D-01 WtEn= 2.49D-01
 Coeff-Com:  0.218D+00 0.483D+00 0.299D+00
 Coeff-En:   0.147D+00 0.000D+00 0.853D+00
 Coeff:      0.200D+00 0.363D+00 0.437D+00
 Gap=     0.166 Goal=   None    Shift=    0.000
 Gap=     0.166 Goal=   None    Shift=    0.000
 RMSDP=6.85D-03 MaxDP=8.93D-02 DE=-1.27D-01 OVMax= 2.47D-01

 Cycle   4  Pass 0  IDiag  1:
 E= -512.421717100755     Delta-E=       -0.025920050648 Rises=F Damp=F
 DIIS: error= 2.49D-02 at cycle   4 NSaved=   4.
 NSaved= 4 IEnMin= 4 EnMin= -512.421717100755     IErMin= 4 ErrMin= 2.49D-02
 ErrMax= 2.49D-02  0.00D+00 EMaxC= 1.00D-01 BMatC= 1.27D-01 BMatP= 1.95D-01
 IDIUse=3 WtCom= 7.51D-01 WtEn= 2.49D-01
 Coeff-Com:  0.790D-01 0.139D-01 0.407D+00 0.500D+00
 Coeff-En:   0.000D+00 0.000D+00 0.397D+00 0.603D+00
 Coeff:      0.593D-01 0.104D-01 0.405D+00 0.526D+00
 Gap=     0.194 Goal=   None    Shift=    0.000
 Gap=     0.194 Goal=   None    Shift=    0.000
 RMSDP=3.30D-03 MaxDP=3.85D-02 DE=-2.59D-02 OVMax= 1.11D-01

 Cycle   5  Pass 0  IDiag  1:
 E= -512.452808668326     Delta-E=       -0.031091567572 Rises=F Damp=F
 DIIS: error= 2.74D-03 at cycle   5 NSaved=   5.
 NSaved= 5 IEnMin= 5 EnMin= -512.452808668326     IErMin= 5 ErrMin= 2.74D-03
 ErrMax= 2.74D-03  0.00D+00 EMaxC= 1.00D-01 BMatC= 1.77D-03 BMatP= 1.27D-01
 IDIUse=3 WtCom= 9.73D-01 WtEn= 2.74D-02
 Coeff-Com: -0.141D-01 0.834D-02 0.557D-01 0.114D+00 0.836D+00
 Coeff-En:   0.000D+00 0.000D+00 0.000D+00 0.000D+00 0.100D+01
 Coeff:     -0.137D-01 0.811D-02 0.542D-01 0.111D+00 0.840D+00
 Gap=     0.184 Goal=   None    Shift=    0.000
 Gap=     0.184 Goal=   None    Shift=    0.000
 RMSDP=3.01D-04 MaxDP=4.70D-03 DE=-3.11D-02 OVMax= 5.25D-03

 Cycle   6  Pass 0  IDiag  1:
 E= -512.453144383714     Delta-E=       -0.000335715388 Rises=F Damp=F
 DIIS: error= 1.96D-04 at cycle   6 NSaved=   6.
 NSaved= 6 IEnMin= 6 EnMin= -512.453144383714     IErMin= 6 ErrMin= 1.96D-04
 ErrMax= 1.96D-04  0.00D+00 EMaxC= 1.00D-01 BMatC= 1.51D-05 BMatP= 1.77D-03
 IDIUse=3 WtCom= 9.98D-01 WtEn= 1.96D-03
 Coeff-Com: -0.628D-02 0.648D-02-0.190D-02 0.895D-02 0.250D+00 0.743D+00
 Coeff-En:   0.000D+00 0.000D+00 0.000D+00 0.000D+00 0.000D+00 0.100D+01
 Coeff:     -0.626D-02 0.646D-02-0.190D-02 0.893D-02 0.250D+00 0.743D+00
 Gap=     0.185 Goal=   None    Shift=    0.000
 Gap=     0.185 Goal=   None    Shift=    0.000
 RMSDP=4.94D-05 MaxDP=8.04D-04 DE=-3.36D-04 OVMax= 6.95D-04

 Cycle   7  Pass 0  IDiag  1:
 E= -512.453147970682     Delta-E=       -0.000003586968 Rises=F Damp=F
 DIIS: error= 1.04D-04 at cycle   7 NSaved=   7.
 NSaved= 7 IEnMin= 7 EnMin= -512.453147970682     IErMin= 7 ErrMin= 1.04D-04
 ErrMax= 1.04D-04  0.00D+00 EMaxC= 1.00D-01 BMatC= 2.09D-06 BMatP= 1.51D-05
 IDIUse=3 WtCom= 9.99D-01 WtEn= 1.04D-03
 Coeff-Com: -0.193D-02 0.244D-02-0.266D-02 0.152D-02 0.645D-01 0.247D+00
 Coeff-Com:  0.689D+00
 Coeff-En:   0.000D+00 0.000D+00 0.000D+00 0.000D+00 0.000D+00 0.000D+00
 Coeff-En:   0.100D+01
 Coeff:     -0.193D-02 0.243D-02-0.265D-02 0.152D-02 0.644D-01 0.246D+00
 Coeff:      0.690D+00
 Gap=     0.185 Goal=   None    Shift=    0.000
 Gap=     0.185 Goal=   None    Shift=    0.000
 RMSDP=1.31D-05 MaxDP=1.19D-04 DE=-3.59D-06 OVMax= 3.51D-04

 Cycle   8  Pass 0  IDiag  1:
 E= -512.453148493999     Delta-E=       -0.000000523317 Rises=F Damp=F
 DIIS: error= 2.22D-05 at cycle   8 NSaved=   8.
 NSaved= 8 IEnMin= 8 EnMin= -512.453148493999     IErMin= 8 ErrMin= 2.22D-05
 ErrMax= 2.22D-05  0.00D+00 EMaxC= 1.00D-01 BMatC= 1.17D-07 BMatP= 2.09D-06
 IDIUse=1 WtCom= 1.00D+00 WtEn= 0.00D+00
 Coeff-Com: -0.199D-03 0.215D-03-0.625D-03 0.392D-03 0.222D-02 0.687D-02
 Coeff-Com:  0.119D+00 0.872D+00
 Coeff:     -0.199D-03 0.215D-03-0.625D-03 0.392D-03 0.222D-02 0.687D-02
 Coeff:      0.119D+00 0.872D+00
 Gap=     0.185 Goal=   None    Shift=    0.000
 Gap=     0.185 Goal=   None    Shift=    0.000
 RMSDP=2.61D-06 MaxDP=3.00D-05 DE=-5.23D-07 OVMax= 8.54D-05

 Initial convergence to 1.0D-05 achieved.  Increase integral accuracy.
 Cycle   9  Pass 1  IDiag  1:
 E= -512.453151598374     Delta-E=       -0.000003104374 Rises=F Damp=F
 DIIS: error= 2.23D-06 at cycle   1 NSaved=   1.
 NSaved= 1 IEnMin= 1 EnMin= -512.453151598374     IErMin= 1 ErrMin= 2.23D-06
 ErrMax= 2.23D-06  0.00D+00 EMaxC= 1.00D-01 BMatC= 1.66D-09 BMatP= 1.66D-09
 IDIUse=1 WtCom= 1.00D+00 WtEn= 0.00D+00
 Coeff-Com:  0.100D+01
 Coeff:      0.100D+01
 Gap=     0.185 Goal=   None    Shift=    0.000
 Gap=     0.185 Goal=   None    Shift=    0.000
 RMSDP=2.61D-06 MaxDP=3.00D-05 DE=-3.10D-06 OVMax= 2.07D-05

 Cycle  10  Pass 1  IDiag  1:
 E= -512.453151597674     Delta-E=        0.000000000700 Rises=F Damp=F
 DIIS: error= 5.44D-06 at cycle   2 NSaved=   2.
 NSaved= 2 IEnMin= 1 EnMin= -512.453151598374     IErMin= 1 ErrMin= 2.23D-06
 ErrMax= 5.44D-06  0.00D+00 EMaxC= 1.00D-01 BMatC= 5.01D-09 BMatP= 1.66D-09
 IDIUse=1 WtCom= 1.00D+00 WtEn= 0.00D+00
 Coeff-Com:  0.652D+00 0.348D+00
 Coeff:      0.652D+00 0.348D+00
 Gap=     0.185 Goal=   None    Shift=    0.000
 Gap=     0.185 Goal=   None    Shift=    0.000
 RMSDP=8.14D-07 MaxDP=1.03D-05 DE= 7.00D-10 OVMax= 2.67D-05

 Cycle  11  Pass 1  IDiag  1:
 E= -512.453151598582     Delta-E=       -0.000000000908 Rises=F Damp=F
 DIIS: error= 2.07D-06 at cycle   3 NSaved=   3.
 NSaved= 3 IEnMin= 3 EnMin= -512.453151598582     IErMin= 3 ErrMin= 2.07D-06
 ErrMax= 2.07D-06  0.00D+00 EMaxC= 1.00D-01 BMatC= 9.21D-10 BMatP= 1.66D-09
 IDIUse=1 WtCom= 1.00D+00 WtEn= 0.00D+00
 Coeff-Com:  0.167D+00 0.294D+00 0.539D+00
 Coeff:      0.167D+00 0.294D+00 0.539D+00
 Gap=     0.185 Goal=   None    Shift=    0.000
 Gap=     0.185 Goal=   None    Shift=    0.000
 RMSDP=2.59D-07 MaxDP=3.21D-06 DE=-9.08D-10 OVMax= 9.47D-06

 Cycle  12  Pass 1  IDiag  1:
 E= -512.453151598809     Delta-E=       -0.000000000226 Rises=F Damp=F
 DIIS: error= 1.92D-07 at cycle   4 NSaved=   4.
 NSaved= 4 IEnMin= 4 EnMin= -512.453151598809     IErMin= 4 ErrMin= 1.92D-07
 ErrMax= 1.92D-07  0.00D+00 EMaxC= 1.00D-01 BMatC= 1.16D-11 BMatP= 9.21D-10
 IDIUse=1 WtCom= 1.00D+00 WtEn= 0.00D+00
 Coeff-Com:  0.225D-01 0.999D-01 0.208D+00 0.670D+00
 Coeff:      0.225D-01 0.999D-01 0.208D+00 0.670D+00
 Gap=     0.185 Goal=   None    Shift=    0.000
 Gap=     0.185 Goal=   None    Shift=    0.000
 RMSDP=4.58D-08 MaxDP=6.43D-07 DE=-2.26D-10 OVMax= 1.01D-06

 Cycle  13  Pass 1  IDiag  1:
 E= -512.453151598811     Delta-E=       -0.000000000003 Rises=F Damp=F
 DIIS: error= 1.10D-07 at cycle   5 NSaved=   5.
 NSaved= 5 IEnMin= 5 EnMin= -512.453151598811     IErMin= 5 ErrMin= 1.10D-07
 ErrMax= 1.10D-07  0.00D+00 EMaxC= 1.00D-01 BMatC= 5.38D-12 BMatP= 1.16D-11
 IDIUse=1 WtCom= 1.00D+00 WtEn= 0.00D+00
 Coeff-Com: -0.530D-02 0.294D-01 0.669D-01 0.435D+00 0.474D+00
 Coeff:     -0.530D-02 0.294D-01 0.669D-01 0.435D+00 0.474D+00
 Gap=     0.185 Goal=   None    Shift=    0.000
 Gap=     0.185 Goal=   None    Shift=    0.000
 RMSDP=2.19D-08 MaxDP=3.30D-07 DE=-2.61D-12 OVMax= 5.56D-07

 Cycle  14  Pass 1  IDiag  1:
 E= -512.453151598812     Delta-E=       -0.000000000000 Rises=F Damp=F
 DIIS: error= 2.31D-08 at cycle   6 NSaved=   6.
 NSaved= 6 IEnMin= 6 EnMin= -512.453151598812     IErMin= 6 ErrMin= 2.31D-08
 ErrMax= 2.31D-08  0.00D+00 EMaxC= 1.00D-01 BMatC= 1.03D-13 BMatP= 5.38D-12
 IDIUse=1 WtCom= 1.00D+00 WtEn= 0.00D+00
 Coeff-Com: -0.276D-02 0.142D-02 0.112D-01 0.902D-01 0.123D+00 0.777D+00
 Coeff:     -0.276D-02 0.142D-02 0.112D-01 0.902D-01 0.123D+00 0.777D+00
 Gap=     0.185 Goal=   None    Shift=    0.000
 Gap=     0.185 Goal=   None    Shift=    0.000
 RMSDP=4.73D-09 MaxDP=4.05D-08 DE=-4.55D-13 OVMax= 1.15D-07

 SCF Done:  E(UB3LYP) =  -512.453151599     A.U. after   14 cycles
            NFock= 14  Conv=0.47D-08     -V/T= 2.0035
 <Sx>= 0.0000 <Sy>= 0.0000 <Sz>= 0.0000 <S**2>=-0.0000 S=-0.0000
 <L.S>=  0.00000000000    
 KE= 5.106728954907D+02 PE=-1.419610190928D+03 EE= 2.937305209590D+02
 Annihilation of the first spin contaminant:
 S**2 before annihilation    -0.0000,   after    -0.0000
 Leave Link  502 at Tue Jan  3 09:07:11 2023, MaxMem=   536870912 cpu:               5.9 elap:               3.0
 (Enter /opt/software/gaussian/g16.c01/l508.exe)
 QCSCF skips out because SCF is already converged.
 Leave Link  508 at Tue Jan  3 09:07:11 2023, MaxMem=   536870912 cpu:               0.0 elap:               0.0
 (Enter /opt/software/gaussian/g16.c01/l601.exe)
 Copying SCF densities to generalized density rwf, IOpCl= 1 IROHF=0.

 **********************************************************************

            Population analysis using the SCF Density.

 **********************************************************************

 Alpha  occ. eigenvalues --  -88.95870 -19.12242 -10.23078  -8.04542  -6.01307
 Alpha  occ. eigenvalues --   -6.01122  -6.00749  -1.03068  -0.79391  -0.59485
 Alpha  occ. eigenvalues --   -0.48569  -0.45628  -0.41750  -0.38407  -0.27631
 Alpha  occ. eigenvalues --   -0.26702
 Alpha virt. eigenvalues --   -0.08233   0.04158   0.07159   0.12704   0.15332
 Alpha virt. eigenvalues --    0.31123   0.39353   0.47519   0.48074   0.48445
 Alpha virt. eigenvalues --    0.58459   0.61754   0.63258   0.63759   0.65191
 Alpha virt. eigenvalues --    0.71430   0.75085   0.84153   0.94194   1.00443
 Alpha virt. eigenvalues --    1.02099   1.07503   1.16258   1.17213   1.31065
 Alpha virt. eigenvalues --    1.52768   1.53527   1.64798   1.96413   1.99936
 Alpha virt. eigenvalues --    2.01062   2.18507   2.36391   2.64208   2.64625
 Alpha virt. eigenvalues --    2.71361   2.76623   2.83719   2.90738   3.29399
  Beta  occ. eigenvalues --  -88.95870 -19.12242 -10.23078  -8.04542  -6.01307
  Beta  occ. eigenvalues --   -6.01122  -6.00749  -1.03068  -0.79391  -0.59485
  Beta  occ. eigenvalues --   -0.48569  -0.45628  -0.41750  -0.38407  -0.27631
  Beta  occ. eigenvalues --   -0.26702
  Beta virt. eigenvalues --   -0.08233   0.04158   0.07159   0.12704   0.15332
  Beta virt. eigenvalues --    0.31123   0.39353   0.47519   0.48074   0.48445
  Beta virt. eigenvalues --    0.58459   0.61754   0.63258   0.63759   0.65191
  Beta virt. eigenvalues --    0.71430   0.75085   0.84153   0.94194   1.00443
  Beta virt. eigenvalues --    1.02099   1.07503   1.16258   1.17213   1.31065
  Beta virt. eigenvalues --    1.52768   1.53527   1.64798   1.96413   1.99936
  Beta virt. eigenvalues --    2.01062   2.18507   2.36391   2.64208   2.64625
  Beta virt. eigenvalues --    2.71361   2.76623   2.83719   2.90738   3.29399
          Condensed to atoms (all electrons):
               1          2          3          4          5
     1  C    5.215710   0.321214  -0.056347   0.337777   0.371314
     2  S    0.321214  14.851364   0.323615  -0.001193  -0.004849
     3  O   -0.056347   0.323615   8.222346   0.003039   0.003721
     4  H    0.337777  -0.001193   0.003039   0.596535  -0.015300
     5  H    0.371314  -0.004849   0.003721  -0.015300   0.548064
          Atomic-Atomic Spin Densities.
               1          2          3          4          5
     1  C   -0.000000  -0.000000  -0.000000   0.000000   0.000000
     2  S   -0.000000   0.000000   0.000000   0.000000   0.000000
     3  O   -0.000000   0.000000  -0.000000  -0.000000  -0.000000
     4  H    0.000000   0.000000  -0.000000   0.000000   0.000000
     5  H    0.000000   0.000000  -0.000000   0.000000  -0.000000
 Mulliken charges and spin densities:
               1          2
     1  C   -0.189668  -0.000000
     2  S    0.509849   0.000000
     3  O   -0.496374  -0.000000
     4  H    0.079142   0.000000
     5  H    0.097051   0.000000
 Sum of Mulliken charges =  -0.00000   0.00000
 Mulliken charges and spin densities with hydrogens summed into heavy atoms:
               1          2
     1  C   -0.013475   0.000000
     2  S    0.509849   0.000000
     3  O   -0.496374  -0.000000
 Electronic spatial extent (au):  <R**2>=            826.4404
 Charge=             -0.0000 electrons
 Dipole moment (field-independent basis, Debye):
    X=             -2.0441    Y=              1.1060    Z=              1.9361  Tot=              3.0249
 Quadrupole moment (field-independent basis, Debye-Ang):
   XX=            -32.7197   YY=            -24.9922   ZZ=            -26.7289
   XY=              3.7385   XZ=              6.6801   YZ=             -1.3278
 Traceless Quadrupole moment (field-independent basis, Debye-Ang):
   XX=             -4.5728   YY=              3.1547   ZZ=              1.4181
   XY=              3.7385   XZ=              6.6801   YZ=             -1.3278
 Octapole moment (field-independent basis, Debye-Ang**2):
  XXX=           -193.5080  YYY=             13.4442  ZZZ=             32.3244  XYY=            -56.2692
  XXY=             16.5047  XXZ=             31.0548  XZZ=            -64.7719  YZZ=              7.3122
  YYZ=             10.6322  XYZ=             -6.7155
 Hexadecapole moment (field-independent basis, Debye-Ang**3):
 XXXX=           -975.1405 YYYY=            -43.7114 ZZZZ=            -93.9125 XXXY=             79.7377
 XXXZ=            152.3611 YYYX=             41.3174 YYYZ=            -17.9236 ZZZX=             95.8737
 ZZZY=            -20.3160 XXYY=           -158.2406 XXZZ=           -194.4333 YYZZ=            -23.6072
 XXYZ=            -28.4228 YYXZ=             31.3134 ZZXY=             22.8098
 N-N= 1.027536228800D+02 E-N=-1.419610192837D+03  KE= 5.106728954907D+02
                          Isotropic Fermi Contact Couplings
        Atom                 a.u.       MegaHertz       Gauss      10(-4) cm-1
     1  C(13)             -0.00000      -0.00000      -0.00000      -0.00000
     2  S(33)             -0.00000      -0.00000      -0.00000      -0.00000
     3  O(17)             -0.00000       0.00000       0.00000       0.00000
     4  H(1)              -0.00000      -0.00000      -0.00000      -0.00000
     5  H(1)              -0.00000      -0.00000      -0.00000      -0.00000
 --------------------------------------------------------
       Center         ----  Spin Dipole Couplings  ----
                      3XX-RR        3YY-RR        3ZZ-RR
 --------------------------------------------------------
     1   Atom        0.000000      0.000000      0.000000
     2   Atom        0.000000      0.000000      0.000000
     3   Atom        0.000000      0.000000      0.000000
     4   Atom        0.000000      0.000000      0.000000
     5   Atom        0.000000      0.000000      0.000000
 --------------------------------------------------------
                        XY            XZ            YZ
 --------------------------------------------------------
     1   Atom        0.000000      0.000000      0.000000
     2   Atom        0.000000      0.000000      0.000000
     3   Atom        0.000000      0.000000      0.000000
     4   Atom        0.000000      0.000000      0.000000
     5   Atom        0.000000      0.000000      0.000000
 --------------------------------------------------------


 ---------------------------------------------------------------------------------
              Anisotropic Spin Dipole Couplings in Principal Axis System
 ---------------------------------------------------------------------------------

       Atom             a.u.   MegaHertz   Gauss  10(-4) cm-1        Axes

              Baa     0.0000     0.000     0.000     0.000  1.0000  0.0000  0.0000
     1 C(13)  Bbb     0.0000     0.000     0.000     0.000 -0.0000  1.0000  0.0000
              Bcc     0.0000     0.000     0.000     0.000  0.0000  0.0000  1.0000
 
              Baa     0.0000     0.000     0.000     0.000  1.0000  0.0000  0.0000
     2 S(33)  Bbb     0.0000     0.000     0.000     0.000 -0.0000  1.0000  0.0000
              Bcc     0.0000     0.000     0.000     0.000  0.0000  0.0000  1.0000
 
              Baa     0.0000    -0.000    -0.000    -0.000  1.0000  0.0000  0.0000
     3 O(17)  Bbb     0.0000    -0.000    -0.000    -0.000 -0.0000  1.0000  0.0000
              Bcc     0.0000    -0.000    -0.000    -0.000  0.0000  0.0000  1.0000
 
              Baa     0.0000     0.000     0.000     0.000  1.0000  0.0000  0.0000
     4 H(1)   Bbb     0.0000     0.000     0.000     0.000 -0.0000  1.0000  0.0000
              Bcc     0.0000     0.000     0.000     0.000  0.0000  0.0000  1.0000
 
              Baa     0.0000     0.000     0.000     0.000  1.0000  0.0000  0.0000
     5 H(1)   Bbb     0.0000     0.000     0.000     0.000 -0.0000  1.0000  0.0000
              Bcc     0.0000     0.000     0.000     0.000  0.0000  0.0000  1.0000
 

 ---------------------------------------------------------------------------------

 No NMR shielding tensors so no spin-rotation constants.
 Leave Link  601 at Tue Jan  3 09:07:11 2023, MaxMem=   536870912 cpu:               0.3 elap:               0.1
 (Enter /opt/software/gaussian/g16.c01/l801.exe)
 DoSCS=F DFT=T ScalE2(SS,OS)=  1.000000  1.000000
 Range of M.O.s used for correlation:     1    56
 NBasis=    56 NAE=    16 NBE=    16 NFC=     0 NFV=     0
 NROrb=     56 NOA=    16 NOB=    16 NVA=    40 NVB=    40
 Leave Link  801 at Tue Jan  3 09:07:11 2023, MaxMem=   536870912 cpu:               0.1 elap:               0.0
 (Enter /opt/software/gaussian/g16.c01/l914.exe)
 UHF ground state
 Doing stability rather than CIS.
 Keep R1 and R2 ints in memory in canonical form, NReq=4842937.
 FoFCou: FMM=F IPFlag=           0 FMFlag=           0 FMFlg1=           0
         NFxFlg=           0 DoJE=F BraDBF=F KetDBF=F FulRan=T
         wScrn=  0.000000 ICntrl=       600 IOpCl=  0 I1Cent=           0 NGrid=           0
         NMat0=    1 NMatS0=   1596 NMatT0=    0 NMatD0=    1 NMtDS0=    0 NMtDT0=    0
 Symmetry not used in FoFCou.
 Two-electron integral symmetry not used.
 MDV=   536870912 DFT=T DoStab=T Mixed=T DoRPA=F DoScal=F NonHer=F
 Making orbital integer symmetry assigments:
    12 initial guesses have been made.
 Convergence on wavefunction:    0.001000000000000
 Davidson Disk Diagonalization:  ConvIn= 1.00D-03 SkipCon=T Conv= 1.00D-03.
 Max sub-space:  2000 roots to seek:    12 dimension of matrix:         1280
 Iteration     1 Dimension    12 NMult     0 NNew     12
 CISAX will form    12 AO SS matrices at one time.
 NMat=    12 NSing=    12 JSym2X= 0.
 Excitation Energies [eV] at current iteration:
 Root      1 :     1.334198223415406
 Root      2 :     2.913441661208245
 Root      3 :     4.283760241395059
 Root      4 :     5.753287877411551
 Root      5 :     5.777862364659489
 Root      6 :     6.197155465784624
 Root      7 :     6.413307085318443
 Root      8 :     6.876349946669008
 Root      9 :     7.480452051230765
 Root     10 :     7.606071902241900
 Root     11 :    13.803850201256479
 Root     12 :    13.894793531522831
 Iteration     2 Dimension    24 NMult    12 NNew     12
 CISAX will form    12 AO SS matrices at one time.
 NMat=    12 NSing=    12 JSym2X= 0.
 Root      1 not converged, maximum delta is    0.040342820272761
 Excitation Energies [eV] at current iteration:
 Root      1 :     1.052479523706016   Change is   -0.281718699709390
 Root      2 :     2.702109689666412   Change is   -0.211331971541833
 Root      3 :     4.059808728414859   Change is   -0.223951512980200
 Root      4 :     5.483817856611942   Change is   -0.269470020799608
 Root      5 :     5.488016333269379   Change is   -0.289846031390110
 Root      6 :     5.787712778748131   Change is   -0.409442687036493
 Root      7 :     6.276790426593894   Change is   -0.136516658724548
 Root      8 :     6.732482177887392   Change is   -0.143867768781616
 Root      9 :     7.119750687278464   Change is   -0.360701363952301
 Root     10 :     7.370276311779168   Change is   -0.235795590462732
 Root     11 :     9.864093262773896   Change is   -3.939756938482583
 Root     12 :    11.138243359960821   Change is   -2.756550171562010
 Iteration     3 Dimension    27 NMult    24 NNew      3
 CISAX will form     3 AO SS matrices at one time.
 NMat=     3 NSing=     3 JSym2X= 0.
 Root      1 not converged, maximum delta is    0.003432449994293
 Excitation Energies [eV] at current iteration:
 Root      1 :     1.048222545235657   Change is   -0.004256978470359
 Root      2 :     2.698603630041543   Change is   -0.003506059624869
 Root      3 :     4.053975189881872   Change is   -0.005833538532986
 Iteration     4 Dimension    30 NMult    27 NNew      3
 CISAX will form     3 AO SS matrices at one time.
 NMat=     3 NSing=     3 JSym2X= 0.
 Root      1 has converged.
 Excitation Energies [eV] at current iteration:
 Root      1 :     1.048128866408893   Change is   -0.000093678826765
 Root      2 :     2.698518428398639   Change is   -0.000085201642904
 Root      3 :     4.053933114066211   Change is   -0.000042075815661
 Convergence achieved on expansion vectors.
 ***********************************************************************
 Stability analysis using <AA,BB:AA,BB> singles matrix:
 ***********************************************************************
 1PDM for each excited state written to RWF  633
 Ground to excited state transition densities written to RWF  633

 Eigenvectors of the stability matrix:
 
 Excited state symmetry could not be determined.
 Eigenvector   1:  3.000-?Sym  Eigenvalue= 0.0385180  <S**2>=2.000
     16A -> 17A       -0.70082
     16B -> 17B        0.70082
 The wavefunction is stable under the perturbations considered.
 Leave Link  914 at Tue Jan  3 09:07:19 2023, MaxMem=   536870912 cpu:              17.0 elap:               8.5
 (Enter /opt/software/gaussian/g16.c01/l508.exe)
 The wavefunction is already stable.
 Leave Link  508 at Tue Jan  3 09:07:19 2023, MaxMem=   536870912 cpu:               0.0 elap:               0.0
 (Enter /opt/software/gaussian/g16.c01/l601.exe)
 Copying SCF densities to generalized density rwf, IOpCl= 1 IROHF=0.

 **********************************************************************

            Population analysis using the SCF Density.

 **********************************************************************

 Alpha  occ. eigenvalues --  -88.95870 -19.12242 -10.23078  -8.04542  -6.01307
 Alpha  occ. eigenvalues --   -6.01122  -6.00749  -1.03068  -0.79391  -0.59485
 Alpha  occ. eigenvalues --   -0.48569  -0.45628  -0.41750  -0.38407  -0.27631
 Alpha  occ. eigenvalues --   -0.26702
 Alpha virt. eigenvalues --   -0.08233   0.04158   0.07159   0.12704   0.15332
 Alpha virt. eigenvalues --    0.31123   0.39353   0.47519   0.48074   0.48445
 Alpha virt. eigenvalues --    0.58459   0.61754   0.63258   0.63759   0.65191
 Alpha virt. eigenvalues --    0.71430   0.75085   0.84153   0.94194   1.00443
 Alpha virt. eigenvalues --    1.02099   1.07503   1.16258   1.17213   1.31065
 Alpha virt. eigenvalues --    1.52768   1.53527   1.64798   1.96413   1.99936
 Alpha virt. eigenvalues --    2.01062   2.18507   2.36391   2.64208   2.64625
 Alpha virt. eigenvalues --    2.71361   2.76623   2.83719   2.90738   3.29399
  Beta  occ. eigenvalues --  -88.95870 -19.12242 -10.23078  -8.04542  -6.01307
  Beta  occ. eigenvalues --   -6.01122  -6.00749  -1.03068  -0.79391  -0.59485
  Beta  occ. eigenvalues --   -0.48569  -0.45628  -0.41750  -0.38407  -0.27631
  Beta  occ. eigenvalues --   -0.26702
  Beta virt. eigenvalues --   -0.08233   0.04158   0.07159   0.12704   0.15332
  Beta virt. eigenvalues --    0.31123   0.39353   0.47519   0.48074   0.48445
  Beta virt. eigenvalues --    0.58459   0.61754   0.63258   0.63759   0.65191
  Beta virt. eigenvalues --    0.71430   0.75085   0.84153   0.94194   1.00443
  Beta virt. eigenvalues --    1.02099   1.07503   1.16258   1.17213   1.31065
  Beta virt. eigenvalues --    1.52768   1.53527   1.64798   1.96413   1.99936
  Beta virt. eigenvalues --    2.01062   2.18507   2.36391   2.64208   2.64625
  Beta virt. eigenvalues --    2.71361   2.76623   2.83719   2.90738   3.29399
          Condensed to atoms (all electrons):
               1          2          3          4          5
     1  C    5.215710   0.321214  -0.056347   0.337777   0.371314
     2  S    0.321214  14.851364   0.323615  -0.001193  -0.004849
     3  O   -0.056347   0.323615   8.222346   0.003039   0.003721
     4  H    0.337777  -0.001193   0.003039   0.596535  -0.015300
     5  H    0.371314  -0.004849   0.003721  -0.015300   0.548064
          Atomic-Atomic Spin Densities.
               1          2          3          4          5
     1  C   -0.000000  -0.000000  -0.000000   0.000000   0.000000
     2  S   -0.000000   0.000000   0.000000   0.000000   0.000000
     3  O   -0.000000   0.000000  -0.000000  -0.000000  -0.000000
     4  H    0.000000   0.000000  -0.000000   0.000000   0.000000
     5  H    0.000000   0.000000  -0.000000   0.000000  -0.000000
 Mulliken charges and spin densities:
               1          2
     1  C   -0.189668  -0.000000
     2  S    0.509849   0.000000
     3  O   -0.496374  -0.000000
     4  H    0.079142   0.000000
     5  H    0.097051   0.000000
 Sum of Mulliken charges =  -0.00000   0.00000
 Mulliken charges and spin densities with hydrogens summed into heavy atoms:
               1          2
     1  C   -0.013475   0.000000
     2  S    0.509849   0.000000
     3  O   -0.496374  -0.000000
 Electronic spatial extent (au):  <R**2>=            826.4404
 Charge=             -0.0000 electrons
 Dipole moment (field-independent basis, Debye):
    X=             -2.0441    Y=              1.1060    Z=              1.9361  Tot=              3.0249
 Quadrupole moment (field-independent basis, Debye-Ang):
   XX=            -32.7197   YY=            -24.9922   ZZ=            -26.7289
   XY=              3.7385   XZ=              6.6801   YZ=             -1.3278
 Traceless Quadrupole moment (field-independent basis, Debye-Ang):
   XX=             -4.5728   YY=              3.1547   ZZ=              1.4181
   XY=              3.7385   XZ=              6.6801   YZ=             -1.3278
 Octapole moment (field-independent basis, Debye-Ang**2):
  XXX=           -193.5080  YYY=             13.4442  ZZZ=             32.3244  XYY=            -56.2692
  XXY=             16.5047  XXZ=             31.0548  XZZ=            -64.7719  YZZ=              7.3122
  YYZ=             10.6322  XYZ=             -6.7155
 Hexadecapole moment (field-independent basis, Debye-Ang**3):
 XXXX=           -975.1405 YYYY=            -43.7114 ZZZZ=            -93.9125 XXXY=             79.7377
 XXXZ=            152.3611 YYYX=             41.3174 YYYZ=            -17.9236 ZZZX=             95.8737
 ZZZY=            -20.3160 XXYY=           -158.2406 XXZZ=           -194.4333 YYZZ=            -23.6072
 XXYZ=            -28.4228 YYXZ=             31.3134 ZZXY=             22.8098
 N-N= 1.027536228800D+02 E-N=-1.419610192837D+03  KE= 5.106728954907D+02
                          Isotropic Fermi Contact Couplings
        Atom                 a.u.       MegaHertz       Gauss      10(-4) cm-1
     1  C(13)             -0.00000      -0.00000      -0.00000      -0.00000
     2  S(33)             -0.00000      -0.00000      -0.00000      -0.00000
     3  O(17)             -0.00000       0.00000       0.00000       0.00000
     4  H(1)              -0.00000      -0.00000      -0.00000      -0.00000
     5  H(1)              -0.00000      -0.00000      -0.00000      -0.00000
 --------------------------------------------------------
       Center         ----  Spin Dipole Couplings  ----
                      3XX-RR        3YY-RR        3ZZ-RR
 --------------------------------------------------------
     1   Atom        0.000000      0.000000      0.000000
     2   Atom        0.000000      0.000000      0.000000
     3   Atom        0.000000      0.000000      0.000000
     4   Atom        0.000000      0.000000      0.000000
     5   Atom        0.000000      0.000000      0.000000
 --------------------------------------------------------
                        XY            XZ            YZ
 --------------------------------------------------------
     1   Atom        0.000000      0.000000      0.000000
     2   Atom        0.000000      0.000000      0.000000
     3   Atom        0.000000      0.000000      0.000000
     4   Atom        0.000000      0.000000      0.000000
     5   Atom        0.000000      0.000000      0.000000
 --------------------------------------------------------


 ---------------------------------------------------------------------------------
              Anisotropic Spin Dipole Couplings in Principal Axis System
 ---------------------------------------------------------------------------------

       Atom             a.u.   MegaHertz   Gauss  10(-4) cm-1        Axes

              Baa     0.0000     0.000     0.000     0.000  1.0000  0.0000  0.0000
     1 C(13)  Bbb     0.0000     0.000     0.000     0.000 -0.0000  1.0000  0.0000
              Bcc     0.0000     0.000     0.000     0.000  0.0000  0.0000  1.0000
 
              Baa     0.0000     0.000     0.000     0.000  1.0000  0.0000  0.0000
     2 S(33)  Bbb     0.0000     0.000     0.000     0.000 -0.0000  1.0000  0.0000
              Bcc     0.0000     0.000     0.000     0.000  0.0000  0.0000  1.0000
 
              Baa     0.0000    -0.000    -0.000    -0.000  1.0000  0.0000  0.0000
     3 O(17)  Bbb     0.0000    -0.000    -0.000    -0.000 -0.0000  1.0000  0.0000
              Bcc     0.0000    -0.000    -0.000    -0.000  0.0000  0.0000  1.0000
 
              Baa     0.0000     0.000     0.000     0.000  1.0000  0.0000  0.0000
     4 H(1)   Bbb     0.0000     0.000     0.000     0.000 -0.0000  1.0000  0.0000
              Bcc     0.0000     0.000     0.000     0.000  0.0000  0.0000  1.0000
 
              Baa     0.0000     0.000     0.000     0.000  1.0000  0.0000  0.0000
     5 H(1)   Bbb     0.0000     0.000     0.000     0.000 -0.0000  1.0000  0.0000
              Bcc     0.0000     0.000     0.000     0.000  0.0000  0.0000  1.0000
 

 ---------------------------------------------------------------------------------

 No NMR shielding tensors so no spin-rotation constants.
 Leave Link  601 at Tue Jan  3 09:07:20 2023, MaxMem=   536870912 cpu:               0.3 elap:               0.1
 (Enter /opt/software/gaussian/g16.c01/l9999.exe)

 Test job not archived.
 1\1\GINC-GRA1076\Stability\UB3LYP\Gen\C1H2O1S1\BHAVUK\03-Jan-2023\0\\#
 p ub3lyp/gen stable=opt scf=(maxcycle=900,verytightlineq,xqc) integral
 =grid=ultrafine symmetry=None density=current iop(99/18=-1) output=wfn
 \\0005_q000_m01_k00_opt_uwb97xd_def2svpd/0005_q000_m01_k00_force_ub3ly
 p_def2svp stable-force\\0,1\C,0,0.9770245042,-0.0197961728,-0.10082732
 86\S,0,2.5880021429,-0.0345660623,-0.126439068\O,0,3.1712397907,-0.714
 3116203,-1.3164938758\H,0,0.5180717789,0.4715880124,0.7588975415\H,0,0
 .3708017881,-0.4702041579,-0.8890472689\\Version=ES64L-G16RevC.01\HF=-
 512.4531516\S2=0.\S2-1=0.\S2A=0.\RMSD=4.725e-09\Dipole=-0.8042163,0.43
 51222,0.7617353\Quadrupole=-3.3997681,2.345457,1.0543111,2.7794804,4.9
 664821,-0.9871908\PG=Unknown\\@

 Writing a WFN file to "0005_q000_m01_k00_force_ub3lyp_def2svp.wfn"


 NATURE REVEALS EVERY SECRET ONCE.
                    - RALPH WALDO EMERSON
 Job cpu time:       0 days  0 hours  0 minutes 25.8 seconds.
 Elapsed time:       0 days  0 hours  0 minutes 12.9 seconds.
 File lengths (MBytes):  RWF=     50 Int=      0 D2E=      0 Chk=      2 Scr=      1
 Normal termination of Gaussian 16 at Tue Jan  3 09:07:20 2023.
 Initial command:
 /opt/software/gaussian/g16.c01/l1.exe "/localscratch/bhavuk.2151412.0/Gau-20728.inp" -scrdir="/localscratch/bhavuk.2151412.0/"
 Entering Link 1 = /opt/software/gaussian/g16.c01/l1.exe PID=     21206.
  
 Copyright (c) 1988-2019, Gaussian, Inc.  All Rights Reserved.
  
 This is part of the Gaussian(R) 16 program.  It is based on
 the Gaussian(R) 09 system (copyright 2009, Gaussian, Inc.),
 the Gaussian(R) 03 system (copyright 2003, Gaussian, Inc.),
 the Gaussian(R) 98 system (copyright 1998, Gaussian, Inc.),
 the Gaussian(R) 94 system (copyright 1995, Gaussian, Inc.),
 the Gaussian 92(TM) system (copyright 1992, Gaussian, Inc.),
 the Gaussian 90(TM) system (copyright 1990, Gaussian, Inc.),
 the Gaussian 88(TM) system (copyright 1988, Gaussian, Inc.),
 the Gaussian 86(TM) system (copyright 1986, Carnegie Mellon
 University), and the Gaussian 82(TM) system (copyright 1983,
 Carnegie Mellon University). Gaussian is a federally registered
 trademark of Gaussian, Inc.
  
 This software contains proprietary and confidential information,
 including trade secrets, belonging to Gaussian, Inc.
  
 This software is provided under written license and may be
 used, copied, transmitted, or stored only in accord with that
 written license.
  
 The following legend is applicable only to US Government
 contracts under FAR:
  
                    RESTRICTED RIGHTS LEGEND
  
 Use, reproduction and disclosure by the US Government is
 subject to restrictions as set forth in subparagraphs (a)
 and (c) of the Commercial Computer Software - Restricted
 Rights clause in FAR 52.227-19.
  
 Gaussian, Inc.
 340 Quinnipiac St., Bldg. 40, Wallingford CT 06492
  
  
 ---------------------------------------------------------------
 Warning -- This program may not be used in any manner that
 competes with the business of Gaussian, Inc. or will provide
 assistance to any competitor of Gaussian, Inc.  The licensee
 of this program is prohibited from giving any competitor of
 Gaussian, Inc. access to this program.  By using this program,
 the user acknowledges that Gaussian, Inc. is engaged in the
 business of creating and licensing software in the field of
 computational chemistry and represents and warrants to the
 licensee that it is not a competitor of Gaussian, Inc. and that
 it will not use this program in any manner prohibited above.
 ---------------------------------------------------------------
  

 Cite this work as:
 Gaussian 16, Revision C.01,
 M. J. Frisch, G. W. Trucks, H. B. Schlegel, G. E. Scuseria, 
 M. A. Robb, J. R. Cheeseman, G. Scalmani, V. Barone, 
 G. A. Petersson, H. Nakatsuji, X. Li, M. Caricato, A. V. Marenich, 
 J. Bloino, B. G. Janesko, R. Gomperts, B. Mennucci, H. P. Hratchian, 
 J. V. Ortiz, A. F. Izmaylov, J. L. Sonnenberg, D. Williams-Young, 
 F. Ding, F. Lipparini, F. Egidi, J. Goings, B. Peng, A. Petrone, 
 T. Henderson, D. Ranasinghe, V. G. Zakrzewski, J. Gao, N. Rega, 
 G. Zheng, W. Liang, M. Hada, M. Ehara, K. Toyota, R. Fukuda, 
 J. Hasegawa, M. Ishida, T. Nakajima, Y. Honda, O. Kitao, H. Nakai, 
 T. Vreven, K. Throssell, J. A. Montgomery, Jr., J. E. Peralta, 
 F. Ogliaro, M. J. Bearpark, J. J. Heyd, E. N. Brothers, K. N. Kudin, 
 V. N. Staroverov, T. A. Keith, R. Kobayashi, J. Normand, 
 K. Raghavachari, A. P. Rendell, J. C. Burant, S. S. Iyengar, 
 J. Tomasi, M. Cossi, J. M. Millam, M. Klene, C. Adamo, R. Cammi, 
 J. W. Ochterski, R. L. Martin, K. Morokuma, O. Farkas, 
 J. B. Foresman, and D. J. Fox, Gaussian, Inc., Wallingford CT, 2019.
 
 ******************************************
 Gaussian 16:  ES64L-G16RevC.01  3-Jul-2019
                 3-Jan-2023 
 ******************************************
 %chk=0005_q000_m01_k00_force_ub3lyp_def2svp.chk
 %nprocshared=2
 Will use up to    2 processors via shared memory.
 %mem=4GB
 ----------------------------------------------------------------------
 #p ub3lyp/chkbasis force guess=read geom=check scf=(maxcycle=900,veryt
 ightlineq,xqc) integral=grid=ultrafine symmetry=None density=current p
 op=(cm5,hlygat,mbs,npa) output=wfx
 ----------------------------------------------------------------------
 1/10=7,29=2,30=1,38=1/1,3;
 2/12=2,15=3,40=1/2;
 3/5=7,6=2,11=2,14=-4,25=1,30=1,67=1,71=1,74=-5,75=-5,116=2/1,2,3;
 4/5=1/1;
 5/5=2,7=900,8=3,13=1,17=3,38=6/2,8;
 6/7=2,8=2,9=2,10=2,15=8,20=15,22=-1,27=100,28=1,40=-1,79=1/1,2,7;
 7/29=1,30=1/1,2,3,16;
 1/10=7,30=1/3;
 99/6=200/99;
 Leave Link    1 at Tue Jan  3 09:07:20 2023, MaxMem=   536870912 cpu:               0.2 elap:               0.1
 (Enter /opt/software/gaussian/g16.c01/l101.exe)
 ----------------------------------------------------------------------
 0005_q000_m01_k00_opt_uwb97xd_def2svpd/0005_q000_m01_k00_force_ub3lyp_
 def2svp stable-force
 ----------------------------------------------------------------------
 Structure from the checkpoint file:  "0005_q000_m01_k00_force_ub3lyp_def2svp.chk"
 Charge =  0 Multiplicity = 1
 Z-Matrix found in chk file.
 C,0,0.9770245042,-0.0197961728,-0.1008273286
 S,0,2.5880021429,-0.0345660623,-0.126439068
 O,0,3.1712397907,-0.7143116203,-1.3164938758
 H,0,0.5180717789,0.4715880124,0.7588975415
 H,0,0.3708017881,-0.4702041579,-0.8890472689
 Recover connectivity data from disk.
 ITRead=  0  0  0  0  0
 MicOpt= -1 -1 -1 -1 -1
 NAtoms=      5 NQM=        5 NQMF=       0 NMMI=      0 NMMIF=      0
                NMic=       0 NMicF=      0.
                    Isotopes and Nuclear Properties:
 (Nuclear quadrupole moments (NQMom) in fm**2, nuclear magnetic moments (NMagM)
  in nuclear magnetons)

  Atom         1           2           3           4           5
 IAtWgt=          12          32          16           1           1
 AtmWgt=  12.0000000  31.9720718  15.9949146   1.0078250   1.0078250
 NucSpn=           0           0           0           1           1
 AtZEff=   3.6000000  13.6000000   5.6000000   1.0000000   1.0000000
 NQMom=    0.0000000   0.0000000   0.0000000   0.0000000   0.0000000
 NMagM=    0.0000000   0.0000000   0.0000000   2.7928460   2.7928460
 AtZNuc=   6.0000000  16.0000000   8.0000000   1.0000000   1.0000000
 Leave Link  101 at Tue Jan  3 09:07:20 2023, MaxMem=   536870912 cpu:               0.4 elap:               0.2
 (Enter /opt/software/gaussian/g16.c01/l103.exe)

 GradGradGradGradGradGradGradGradGradGradGradGradGradGradGradGradGradGrad
 Berny optimization.
 Initialization pass.
 Trust Radius=3.00D-01 FncErr=1.00D-07 GrdErr=1.00D-07 EigMax=2.50D+02 EigMin=1.00D-04
 Number of steps in this run=      2 maximum allowed number of steps=      2.
 GradGradGradGradGradGradGradGradGradGradGradGradGradGradGradGradGradGrad

 Leave Link  103 at Tue Jan  3 09:07:20 2023, MaxMem=   536870912 cpu:               0.1 elap:               0.0
 (Enter /opt/software/gaussian/g16.c01/l202.exe)
                          Input orientation:                          
 ---------------------------------------------------------------------
 Center     Atomic      Atomic             Coordinates (Angstroms)
 Number     Number       Type             X           Y           Z
 ---------------------------------------------------------------------
      1          6           0        0.977025   -0.019796   -0.100827
      2         16           0        2.588002   -0.034566   -0.126439
      3          8           0        3.171240   -0.714312   -1.316494
      4          1           0        0.518072    0.471588    0.758898
      5          1           0        0.370802   -0.470204   -0.889047
 ---------------------------------------------------------------------
                    Distance matrix (angstroms):
                    1          2          3          4          5
     1  C    0.000000
     2  S    1.611249   0.000000
     3  O    2.602840   1.489446   0.000000
     4  H    1.091432   2.307515   3.571121   0.000000
     5  H    1.091634   2.384812   2.843370   1.903781   0.000000
 Symmetry turned off by external request.
 Stoichiometry    CH2OS
 Rotational constants (GHZ):          39.0370487           9.3459813           7.5406507
 Leave Link  202 at Tue Jan  3 09:07:20 2023, MaxMem=   536870912 cpu:               0.0 elap:               0.0
 (Enter /opt/software/gaussian/g16.c01/l301.exe)
 Basis read from chk: "0005_q000_m01_k00_force_ub3lyp_def2svp.chk" (5D, 7F)
 No pseudopotential information found on chk file.
    56 basis functions,   101 primitive gaussians,    59 cartesian basis functions
    16 alpha electrons       16 beta electrons
       nuclear repulsion energy       102.7536228800 Hartrees.
 IExCor=  402 DFT=T Ex+Corr=B3LYP ExCW=0 ScaHFX=  0.200000
 ScaDFX=  0.800000  0.720000  1.000000  0.810000 ScalE2=  1.000000  1.000000
 IRadAn=      5 IRanWt=     -1 IRanGd=            0 ICorTp=0 IEmpDi=  4
 NAtoms=    5 NActive=    5 NUniq=    5 SFac= 1.00D+00 NAtFMM=   60 NAOKFM=F Big=F
 Integral buffers will be    131072 words long.
 Raffenetti 2 integral format.
 Two-electron integral symmetry is turned off.
 No density basis found on file  20724.
 Leave Link  301 at Tue Jan  3 09:07:20 2023, MaxMem=   536870912 cpu:               0.1 elap:               0.1
 (Enter /opt/software/gaussian/g16.c01/l302.exe)
 NPDir=0 NMtPBC=     1 NCelOv=     1 NCel=       1 NClECP=     1 NCelD=      1
         NCelK=      1 NCelE2=     1 NClLst=     1 CellRange=     0.0.
 One-electron integrals computed using PRISM.
 NBasis=    56 RedAO= T EigKep=  8.61D-03  NBF=    56
 NBsUse=    56 1.00D-06 EigRej= -1.00D+00 NBFU=    56
 Precomputing XC quadrature grid using
 IXCGrd= 4 IRadAn=           5 IRanWt=          -1 IRanGd=           0 AccXCQ= 0.00D+00.
 Generated NRdTot=       0 NPtTot=           0 NUsed=           0 NTot=          32
 NSgBfM=    59    59    59    59    59 MxSgAt=     5 MxSgA2=     5.
 Leave Link  302 at Tue Jan  3 09:07:20 2023, MaxMem=   536870912 cpu:               0.3 elap:               0.1
 (Enter /opt/software/gaussian/g16.c01/l303.exe)
 DipDrv:  MaxL=1.
 Leave Link  303 at Tue Jan  3 09:07:20 2023, MaxMem=   536870912 cpu:               0.1 elap:               0.0
 (Enter /opt/software/gaussian/g16.c01/l401.exe)
 Initial guess from the checkpoint file:  "0005_q000_m01_k00_force_ub3lyp_def2svp.chk"
 B after Tr=     0.000000    0.000000    0.000000
         Rot=    1.000000    0.000000    0.000000    0.000000 Ang=   0.00 deg.
 Guess basis will be translated and rotated to current coordinates.
 JPrj=2 DoOrth=T DoCkMO=T.
 Initial guess <Sx>= 0.0000 <Sy>= 0.0000 <Sz>= 0.0000 <S**2>=-0.0000 S=-0.0000
 Leave Link  401 at Tue Jan  3 09:07:20 2023, MaxMem=   536870912 cpu:               0.2 elap:               0.1
 (Enter /opt/software/gaussian/g16.c01/l502.exe)
 Keep R1 and R2 ints in memory in canonical form, NReq=4311527.
 FoFCou: FMM=F IPFlag=           0 FMFlag=           0 FMFlg1=           0
         NFxFlg=           0 DoJE=F BraDBF=F KetDBF=F FulRan=T
         wScrn=  0.000000 ICntrl=       600 IOpCl=  0 I1Cent=           0 NGrid=           0
         NMat0=    1 NMatS0=   1596 NMatT0=    0 NMatD0=    1 NMtDS0=    0 NMtDT0=    0
 Symmetry not used in FoFCou.
 Two-electron integral symmetry not used.
 UHF open shell SCF:
 Using DIIS extrapolation, IDIIS=  1040.
 NGot=   536870912 LenX=   534314063 LenY=   534310141
 Requested convergence on RMS density matrix=1.00D-08 within 128 cycles.
 Requested convergence on MAX density matrix=1.00D-06.
 Requested convergence on             energy=1.00D-06.
 No special actions if energy rises.

 Cycle   1  Pass 1  IDiag  1:
 E= -512.453151598811    
 DIIS: error= 3.07D-09 at cycle   1 NSaved=   1.
 NSaved= 1 IEnMin= 1 EnMin= -512.453151598811     IErMin= 1 ErrMin= 3.07D-09
 ErrMax= 3.07D-09  0.00D+00 EMaxC= 1.00D-01 BMatC= 2.98D-15 BMatP= 2.98D-15
 IDIUse=1 WtCom= 1.00D+00 WtEn= 0.00D+00
 Coeff-Com:  0.100D+01
 Coeff:      0.100D+01
 Gap=     0.185 Goal=   None    Shift=    0.000
 Gap=     0.185 Goal=   None    Shift=    0.000
 RMSDP=1.43D-09 MaxDP=2.42D-08              OVMax= 3.27D-08

 SCF Done:  E(UB3LYP) =  -512.453151599     A.U. after    1 cycles
            NFock=  1  Conv=0.14D-08     -V/T= 2.0035
 <Sx>= 0.0000 <Sy>= 0.0000 <Sz>= 0.0000 <S**2>=-0.0000 S=-0.0000
 <L.S>=  0.00000000000    
 KE= 5.106728951834D+02 PE=-1.419610192530D+03 EE= 2.937305228676D+02
 Annihilation of the first spin contaminant:
 S**2 before annihilation    -0.0000,   after     0.0000
 Leave Link  502 at Tue Jan  3 09:07:21 2023, MaxMem=   536870912 cpu:               1.0 elap:               0.5
 (Enter /opt/software/gaussian/g16.c01/l508.exe)
 QCSCF skips out because SCF is already converged.
 Leave Link  508 at Tue Jan  3 09:07:21 2023, MaxMem=   536870912 cpu:               0.0 elap:               0.0
 (Enter /opt/software/gaussian/g16.c01/l601.exe)
 Copying SCF densities to generalized density rwf, IOpCl= 1 IROHF=0.

 **********************************************************************

            Population analysis using the SCF Density.

 **********************************************************************

 Alpha  occ. eigenvalues --  -88.95870 -19.12242 -10.23078  -8.04542  -6.01307
 Alpha  occ. eigenvalues --   -6.01122  -6.00749  -1.03068  -0.79391  -0.59485
 Alpha  occ. eigenvalues --   -0.48569  -0.45628  -0.41750  -0.38407  -0.27631
 Alpha  occ. eigenvalues --   -0.26702
 Alpha virt. eigenvalues --   -0.08233   0.04158   0.07159   0.12704   0.15332
 Alpha virt. eigenvalues --    0.31123   0.39353   0.47519   0.48074   0.48445
 Alpha virt. eigenvalues --    0.58459   0.61754   0.63258   0.63759   0.65191
 Alpha virt. eigenvalues --    0.71430   0.75085   0.84153   0.94194   1.00443
 Alpha virt. eigenvalues --    1.02099   1.07503   1.16258   1.17213   1.31065
 Alpha virt. eigenvalues --    1.52768   1.53527   1.64798   1.96413   1.99936
 Alpha virt. eigenvalues --    2.01062   2.18507   2.36391   2.64208   2.64625
 Alpha virt. eigenvalues --    2.71361   2.76623   2.83719   2.90738   3.29399
  Beta  occ. eigenvalues --  -88.95870 -19.12242 -10.23078  -8.04542  -6.01307
  Beta  occ. eigenvalues --   -6.01122  -6.00749  -1.03068  -0.79391  -0.59485
  Beta  occ. eigenvalues --   -0.48569  -0.45628  -0.41750  -0.38407  -0.27631
  Beta  occ. eigenvalues --   -0.26702
  Beta virt. eigenvalues --   -0.08233   0.04158   0.07159   0.12704   0.15332
  Beta virt. eigenvalues --    0.31123   0.39353   0.47519   0.48074   0.48445
  Beta virt. eigenvalues --    0.58459   0.61754   0.63258   0.63759   0.65191
  Beta virt. eigenvalues --    0.71430   0.75085   0.84153   0.94194   1.00443
  Beta virt. eigenvalues --    1.02099   1.07503   1.16258   1.17213   1.31065
  Beta virt. eigenvalues --    1.52768   1.53527   1.64798   1.96413   1.99936
  Beta virt. eigenvalues --    2.01062   2.18507   2.36391   2.64208   2.64625
  Beta virt. eigenvalues --    2.71361   2.76623   2.83719   2.90738   3.29399
          Condensed to atoms (all electrons):
               1          2          3          4          5
     1  C    5.215710   0.321214  -0.056347   0.337777   0.371314
     2  S    0.321214  14.851364   0.323615  -0.001193  -0.004849
     3  O   -0.056347   0.323615   8.222346   0.003039   0.003721
     4  H    0.337777  -0.001193   0.003039   0.596535  -0.015300
     5  H    0.371314  -0.004849   0.003721  -0.015300   0.548064
          Atomic-Atomic Spin Densities.
               1          2          3          4          5
     1  C    0.000000   0.000000   0.000000  -0.000000   0.000000
     2  S    0.000000  -0.000000   0.000000   0.000000  -0.000000
     3  O    0.000000   0.000000   0.000000  -0.000000  -0.000000
     4  H   -0.000000   0.000000  -0.000000  -0.000000   0.000000
     5  H    0.000000  -0.000000  -0.000000   0.000000  -0.000000
 Mulliken charges and spin densities:
               1          2
     1  C   -0.189668   0.000000
     2  S    0.509849  -0.000000
     3  O   -0.496374   0.000000
     4  H    0.079142  -0.000000
     5  H    0.097051  -0.000000
 Sum of Mulliken charges =  -0.00000   0.00000
 Mulliken charges and spin densities with hydrogens summed into heavy atoms:
               1          2
     1  C   -0.013475   0.000000
     2  S    0.509849  -0.000000
     3  O   -0.496374   0.000000
 Electronic spatial extent (au):  <R**2>=            826.4404
 Charge=             -0.0000 electrons
 Dipole moment (field-independent basis, Debye):
    X=             -2.0441    Y=              1.1060    Z=              1.9361  Tot=              3.0249
 Quadrupole moment (field-independent basis, Debye-Ang):
   XX=            -32.7197   YY=            -24.9922   ZZ=            -26.7289
   XY=              3.7385   XZ=              6.6801   YZ=             -1.3278
 Traceless Quadrupole moment (field-independent basis, Debye-Ang):
   XX=             -4.5728   YY=              3.1547   ZZ=              1.4181
   XY=              3.7385   XZ=              6.6801   YZ=             -1.3278
 Octapole moment (field-independent basis, Debye-Ang**2):
  XXX=           -193.5080  YYY=             13.4442  ZZZ=             32.3244  XYY=            -56.2692
  XXY=             16.5047  XXZ=             31.0548  XZZ=            -64.7719  YZZ=              7.3122
  YYZ=             10.6322  XYZ=             -6.7155
 Hexadecapole moment (field-independent basis, Debye-Ang**3):
 XXXX=           -975.1405 YYYY=            -43.7114 ZZZZ=            -93.9125 XXXY=             79.7377
 XXXZ=            152.3611 YYYX=             41.3174 YYYZ=            -17.9236 ZZZX=             95.8737
 ZZZY=            -20.3160 XXYY=           -158.2406 XXZZ=           -194.4333 YYZZ=            -23.6072
 XXYZ=            -28.4228 YYXZ=             31.3134 ZZXY=             22.8098
 N-N= 1.027536228800D+02 E-N=-1.419610191850D+03  KE= 5.106728951834D+02
 There are a total of      108918 grid points.
 ElSum from          density=       31.9999994601
 ElSum from atomic densities=       32.0000000648
 Hirshfeld populations at iteration   1 (CA, CB, DipXYZ):
               1          2          3          4          5
     1  C    3.048475   3.048475  -0.073112  -0.003752  -0.006598
     2  S    7.844684   7.844684   0.036503  -0.043745  -0.076521
     3  O    4.163426   4.163426  -0.065194   0.059450   0.104060
     4  H    0.473354   0.473354  -0.078320   0.075024   0.131249
     5  H    0.470061   0.470061  -0.099657  -0.070678  -0.123679
       Tot  16.000000  16.000000  -0.279780   0.016299   0.028512

 Dip from Atomic Chgs             -0.524434   0.418824   0.733222
         Total Dipole             -0.804214   0.435122   0.761734

 Hirshfeld charges, spin densities, dipoles, and CM5 charges using IRadAn=      5:
              Q-H        S-H        Dx         Dy         Dz        Q-CM5   
     1  C   -0.096949   0.000000  -0.073112  -0.003752  -0.006598  -0.172458
     2  S    0.310631   0.000000   0.036503  -0.043745  -0.076521   0.319210
     3  O   -0.326851   0.000000  -0.065194   0.059450   0.104060  -0.367834
     4  H    0.053291   0.000000  -0.078320   0.075024   0.131249   0.107118
     5  H    0.059878  -0.000000  -0.099657  -0.070678  -0.123679   0.113965
       Tot   0.000001   0.000000  -0.279780   0.016299   0.028512   0.000001
 Hirshfeld charges and spin densities with hydrogens summed into heavy atoms:
              Q-H        S-H       Q-CM5   
     1  C    0.016220   0.000000   0.048625
     2  S    0.310631   0.000000   0.319210
     3  O   -0.326851   0.000000  -0.367834
 
 EQQ= 0.831559689405E-30 EQD=-0.499854093360E-15 EDD= 0.470887421148E-03
 EQQ+QD+DD= 0.470887421147E-03
 
 GSVD:  LWork=        -884 too small for GESVD, short by        3770 words or        3770 for optimal perf.
          MBS Condensed to atoms (all electrons):
               1          2          3          4          5
     1  C    5.015469   0.464344  -0.014370   0.377614   0.372012
     2  S    0.464344  14.834603   0.441066  -0.020862  -0.015192
     3  O   -0.014370   0.441066   7.923616   0.000369  -0.000003
     4  H    0.377614  -0.020862   0.000369   0.528456  -0.015749
     5  H    0.372012  -0.015192  -0.000003  -0.015749   0.519398
          MBS Atomic-Atomic Spin Densities.
               1          2          3          4          5
     1  C    0.000000   0.000000   0.000000  -0.000000   0.000000
     2  S    0.000000   0.000000  -0.000000  -0.000000   0.000000
     3  O    0.000000  -0.000000   0.000000   0.000000  -0.000000
     4  H   -0.000000  -0.000000   0.000000  -0.000000   0.000000
     5  H    0.000000   0.000000  -0.000000   0.000000  -0.000000
 MBS Mulliken charges and spin densities:
               1          2
     1  C   -0.215069   0.000000
     2  S    0.296041   0.000000
     3  O   -0.350678   0.000000
     4  H    0.130172  -0.000000
     5  H    0.139534   0.000000
 Sum of MBS Mulliken charges =   0.00000   0.00000
 MBS Mulliken charges and spin densities with hydrogens summed into heavy atoms:
               1          2
     1  C    0.054637   0.000000
     2  S    0.296041   0.000000
     3  O   -0.350678   0.000000
 MBS Atomic Valencies and Mayer Atomic Bond Orders:
               1          2          3          4          5
     1  C    3.929648   1.750094   0.291292   0.944993   0.943268
     2  S    1.750094   3.688206   1.893374   0.017609   0.027130
     3  O    0.291292   1.893374   2.210408   0.018031   0.007711
     4  H    0.944993   0.017609   0.018031   0.983055   0.002421
     5  H    0.943268   0.027130   0.007711   0.002421   0.980530
 MBS Mayer-style numbers of lone pairs (16.000 valence pairs, 10.104 lone pairs):
               1
     1  C    1.142711
     2  S    6.007876
     3  O    3.070135
     4  H   -0.056614
     5  H   -0.060032
 BEBO parameters in MulMin, MxElBE=  0:
 ELP=  0.00000000000     EBEBO= 0.350770847288E-01 Sum= 0.350770847288E-01
 ELP=  0.00000000000     EBEBO= 0.350770847288E-01 EJK= 0.350770847288E-01  0.00000000000     Sum= 0.350770847288E-01
 0 EA= 0.175385423644E-01 EB= 0.175385423644E-01 ETot= 0.350770847288E-01
 1 EA= 0.175385423644E-01 EB= 0.175385423644E-01 ETot= 0.350770847288E-01
 2 EA= 0.175385423644E-01 EB= 0.175385423644E-01 ETot= 0.350770847288E-01
 3 EJ= 0.350770847288E-01 EK=  0.00000000000     ETot= 0.350770847288E-01
 4 EJ= 0.350770847288E-01 EK=  0.00000000000     ETot= 0.350770847288E-01
 5 EA= 0.175385423644E-01 EB= 0.175385423644E-01 ETot= 0.350770847288E-01
                          Isotropic Fermi Contact Couplings
        Atom                 a.u.       MegaHertz       Gauss      10(-4) cm-1
     1  C(13)              0.00000       0.00000       0.00000       0.00000
     2  S(33)              0.00000       0.00000       0.00000       0.00000
     3  O(17)              0.00000      -0.00000      -0.00000      -0.00000
     4  H(1)               0.00000       0.00000       0.00000       0.00000
     5  H(1)              -0.00000      -0.00000      -0.00000      -0.00000
 --------------------------------------------------------
       Center         ----  Spin Dipole Couplings  ----
                      3XX-RR        3YY-RR        3ZZ-RR
 --------------------------------------------------------
     1   Atom        0.000000      0.000000      0.000000
     2   Atom        0.000000      0.000000      0.000000
     3   Atom        0.000000      0.000000      0.000000
     4   Atom        0.000000      0.000000      0.000000
     5   Atom        0.000000      0.000000      0.000000
 --------------------------------------------------------
                        XY            XZ            YZ
 --------------------------------------------------------
     1   Atom        0.000000      0.000000      0.000000
     2   Atom        0.000000      0.000000      0.000000
     3   Atom        0.000000      0.000000      0.000000
     4   Atom        0.000000      0.000000      0.000000
     5   Atom        0.000000      0.000000      0.000000
 --------------------------------------------------------


 ---------------------------------------------------------------------------------
              Anisotropic Spin Dipole Couplings in Principal Axis System
 ---------------------------------------------------------------------------------

       Atom             a.u.   MegaHertz   Gauss  10(-4) cm-1        Axes

              Baa     0.0000     0.000     0.000     0.000  1.0000  0.0000  0.0000
     1 C(13)  Bbb     0.0000     0.000     0.000     0.000 -0.0000  1.0000  0.0000
              Bcc     0.0000     0.000     0.000     0.000  0.0000  0.0000  1.0000
 
              Baa     0.0000     0.000     0.000     0.000  1.0000  0.0000  0.0000
     2 S(33)  Bbb     0.0000     0.000     0.000     0.000 -0.0000  1.0000  0.0000
              Bcc     0.0000     0.000     0.000     0.000  0.0000  0.0000  1.0000
 
              Baa     0.0000    -0.000    -0.000    -0.000  1.0000  0.0000  0.0000
     3 O(17)  Bbb     0.0000    -0.000    -0.000    -0.000 -0.0000  1.0000  0.0000
              Bcc     0.0000    -0.000    -0.000    -0.000  0.0000  0.0000  1.0000
 
              Baa     0.0000     0.000     0.000     0.000  1.0000  0.0000  0.0000
     4 H(1)   Bbb     0.0000     0.000     0.000     0.000 -0.0000  1.0000  0.0000
              Bcc     0.0000     0.000     0.000     0.000  0.0000  0.0000  1.0000
 
              Baa     0.0000     0.000     0.000     0.000  1.0000  0.0000  0.0000
     5 H(1)   Bbb     0.0000     0.000     0.000     0.000 -0.0000  1.0000  0.0000
              Bcc     0.0000     0.000     0.000     0.000  0.0000  0.0000  1.0000
 

 ---------------------------------------------------------------------------------

 No NMR shielding tensors so no spin-rotation constants.
 Leave Link  601 at Tue Jan  3 09:07:21 2023, MaxMem=   536870912 cpu:               0.5 elap:               0.3
 (Enter /opt/software/gaussian/g16.c01/l602.exe)
 FitSet:  NAtFit=     5 NAtPot=     5 NAtFrz=     0 MDM=     9 TotChg=   0.00000
 Generate Potential Derived Charges using the Hu-Lu-Yang model:
 IRhTyp=1 IRadAn=         2 Sigma=    0.800 Ln(Rho0)=    -9.00 ThrGrd= 1.00D-08 Tiny= 1.00D-08
       5861 gridpoints compressed to      1421.

 **********************************************************************

            Electrostatic Properties Using The SCF Density.

 **********************************************************************

       Atomic Center    1 is at   0.977025 -0.019796 -0.100827
       Atomic Center    2 is at   2.588002 -0.034566 -0.126439
       Atomic Center    3 is at   3.171240 -0.714312 -1.316494
       Atomic Center    4 is at   0.518072  0.471588  0.758898
       Atomic Center    5 is at   0.370802 -0.470204 -0.889047
    1421 points will be used for fitting atomic charges
 Fitting point charges to electrostatic potential
 Charges from ESP fit, RMS=   0.00168 RRMS=   0.15959:
 ESP charges:
               1
     1  C   -0.269392
     2  S    0.324851
     3  O   -0.353750
     4  H    0.128500
     5  H    0.169790
 Sum of ESP charges =  -0.00000
 ESP charges with hydrogens summed into heavy atoms:
               1
     1  C    0.028898
     2  S    0.324851
     3  O   -0.353750
 Charge=  -0.00000 Dipole=    -1.9923     1.0930     1.9134 Tot=     2.9707
 -----------------------------------------------------------------

              Electrostatic Properties (Atomic Units)

 -----------------------------------------------------------------
    Center     Electric         -------- Electric Field --------
               Potential          X             Y             Z
 -----------------------------------------------------------------
    1 Atom    -14.679698
    2 Atom    -59.078209
    3 Atom    -22.336803
    4 Atom     -1.037821
    5 Atom     -1.041169
 -----------------------------------------------------------------
 Leave Link  602 at Tue Jan  3 09:07:21 2023, MaxMem=   536870912 cpu:               0.1 elap:               0.1
 (Enter /opt/software/gaussian/g16.c01/l607.exe)
 ******************************Gaussian NBO Version 3.1******************************
             N A T U R A L   A T O M I C   O R B I T A L   A N D
          N A T U R A L   B O N D   O R B I T A L   A N A L Y S I S
 ******************************Gaussian NBO Version 3.1******************************
       /RESON  / : Allow strongly delocalized NBO set

 Analyzing the SCF density

 Job title: 0005_q000_m01_k00_opt_uwb97xd_def2svpd/0005_q000_m01_k00_force_u

 Storage needed:      9716 in NPA ( 536870747 available)


 NATURAL POPULATIONS:  Natural atomic orbital occupancies 
                                                          
   NAO  Atom  No  lang   Type(AO)    Occupancy
 --------------------------------------------
     1    C    1  S      Cor( 1S)     1.99935
     2    C    1  S      Val( 2S)     1.18456
     3    C    1  S      Ryd( 3S)     0.00148
     4    C    1  px     Val( 2p)     1.10899
     5    C    1  px     Ryd( 3p)     0.00672
     6    C    1  py     Val( 2p)     1.17706
     7    C    1  py     Ryd( 3p)     0.00485
     8    C    1  pz     Val( 2p)     1.23107
     9    C    1  pz     Ryd( 3p)     0.00295
    10    C    1  dxy    Ryd( 3d)     0.00083
    11    C    1  dxz    Ryd( 3d)     0.00067
    12    C    1  dyz    Ryd( 3d)     0.00035
    13    C    1  dx2y2  Ryd( 3d)     0.00058
    14    C    1  dz2    Ryd( 3d)     0.00037
 
    15    S    2  S      Cor( 1S)     2.00000
    16    S    2  S      Cor( 2S)     1.99904
    17    S    2  S      Val( 3S)     1.55841
    18    S    2  S      Ryd( 4S)     0.03029
    19    S    2  px     Cor( 2p)     1.99976
    20    S    2  px     Val( 3p)     1.05291
    21    S    2  px     Ryd( 4p)     0.00559
    22    S    2  py     Cor( 2p)     1.99987
    23    S    2  py     Val( 3p)     1.12998
    24    S    2  py     Ryd( 4p)     0.00296
    25    S    2  pz     Cor( 2p)     1.99989
    26    S    2  pz     Val( 3p)     1.05132
    27    S    2  pz     Ryd( 4p)     0.00694
    28    S    2  dxy    Ryd( 3d)     0.01740
    29    S    2  dxz    Ryd( 3d)     0.01523
    30    S    2  dyz    Ryd( 3d)     0.00887
    31    S    2  dx2y2  Ryd( 3d)     0.02109
    32    S    2  dz2    Ryd( 3d)     0.01879
 
    33    O    3  S      Cor( 1S)     1.99984
    34    O    3  S      Val( 2S)     1.83285
    35    O    3  S      Ryd( 3S)     0.00229
    36    O    3  px     Val( 2p)     1.81050
    37    O    3  px     Ryd( 3p)     0.00176
    38    O    3  py     Val( 2p)     1.61342
    39    O    3  py     Ryd( 3p)     0.00097
    40    O    3  pz     Val( 2p)     1.56341
    41    O    3  pz     Ryd( 3p)     0.00054
    42    O    3  dxy    Ryd( 3d)     0.00057
    43    O    3  dxz    Ryd( 3d)     0.00122
    44    O    3  dyz    Ryd( 3d)     0.00121
    45    O    3  dx2y2  Ryd( 3d)     0.00058
    46    O    3  dz2    Ryd( 3d)     0.00145
 
    47    H    4  S      Val( 1S)     0.76392
    48    H    4  S      Ryd( 2S)     0.00194
    49    H    4  px     Ryd( 2p)     0.00027
    50    H    4  py     Ryd( 2p)     0.00035
    51    H    4  pz     Ryd( 2p)     0.00057
 
    52    H    5  S      Val( 1S)     0.76030
    53    H    5  S      Ryd( 2S)     0.00279
    54    H    5  px     Ryd( 2p)     0.00030
    55    H    5  py     Ryd( 2p)     0.00026
    56    H    5  pz     Ryd( 2p)     0.00050


 Summary of Natural Population Analysis:                  
                                                          
                                       Natural Population 
                Natural  -----------------------------------------------
    Atom  No    Charge         Core      Valence    Rydberg      Total
 -----------------------------------------------------------------------
      C    1   -0.71984      1.99935     4.70167    0.01881     6.71984
      S    2    1.08163      9.99857     4.79263    0.12717    14.91837
      O    3   -0.83060      1.99984     6.82017    0.01059     8.83060
      H    4    0.23294      0.00000     0.76392    0.00314     0.76706
      H    5    0.23585      0.00000     0.76030    0.00385     0.76415
 =======================================================================
   * Total *   -0.00000     13.99776    17.83869    0.16355    32.00000

                                 Natural Population      
 --------------------------------------------------------
   Core                      13.99776 ( 99.9840% of  14)
   Valence                   17.83869 ( 99.1038% of  18)
   Natural Minimal Basis     31.83645 ( 99.4889% of  32)
   Natural Rydberg Basis      0.16355 (  0.5111% of  32)
 --------------------------------------------------------

    Atom  No          Natural Electron Configuration
[...]
    30    S    2  dyz    Ryd( 3d)     0.00444       0.76309
    31    S    2  dx2y2  Ryd( 3d)     0.01055       0.85479
    32    S    2  dz2    Ryd( 3d)     0.00940       0.78705
 
    33    O    3  S      Cor( 1S)     0.99992     -18.92683
    34    O    3  S      Val( 2S)     0.91642      -0.94374
    35    O    3  S      Ryd( 3S)     0.00114       1.34084
    36    O    3  px     Val( 2p)     0.90525      -0.29045
    37    O    3  px     Ryd( 3p)     0.00088       1.03223
    38    O    3  py     Val( 2p)     0.80671      -0.28715
    39    O    3  py     Ryd( 3p)     0.00048       0.99354
    40    O    3  pz     Val( 2p)     0.78170      -0.30852
    41    O    3  pz     Ryd( 3p)     0.00027       0.99362
    42    O    3  dxy    Ryd( 3d)     0.00028       2.71621
    43    O    3  dxz    Ryd( 3d)     0.00061       2.84253
    44    O    3  dyz    Ryd( 3d)     0.00061       2.88212
    45    O    3  dx2y2  Ryd( 3d)     0.00029       2.68453
    46    O    3  dz2    Ryd( 3d)     0.00073       2.82837
 
    47    H    4  S      Val( 1S)     0.38196       0.03255
    48    H    4  S      Ryd( 2S)     0.00097       0.28761
    49    H    4  px     Ryd( 2p)     0.00014       1.84661
    50    H    4  py     Ryd( 2p)     0.00018       1.72993
    51    H    4  pz     Ryd( 2p)     0.00028       2.05897
 
    52    H    5  S      Val( 1S)     0.38015       0.04622
    53    H    5  S      Ryd( 2S)     0.00139       0.28971
    54    H    5  px     Ryd( 2p)     0.00015       1.93878
    55    H    5  py     Ryd( 2p)     0.00013       1.72006
    56    H    5  pz     Ryd( 2p)     0.00025       2.00778


 Summary of Natural Population Analysis:                  
                                                          
                                       Natural Population 
                Natural  -----------------------------------------------
    Atom  No    Charge         Core      Valence    Rydberg      Total
 -----------------------------------------------------------------------
      C    1   -0.35992      0.99968     2.35084    0.00940     3.35992
      S    2    0.54082      4.99928     2.39632    0.06358     7.45918
      O    3   -0.41530      0.99992     3.41008    0.00529     4.41530
      H    4    0.11647      0.00000     0.38196    0.00157     0.38353
      H    5    0.11793      0.00000     0.38015    0.00192     0.38207
 =======================================================================
   * Total *   -0.00000      6.99888     8.91935    0.08177    16.00000

                                 Natural Population      
 --------------------------------------------------------
   Core                       6.99888 ( 99.9840% of   7)
   Valence                    8.91935 ( 99.1038% of   9)
   Natural Minimal Basis     15.91823 ( 99.4889% of  16)
   Natural Rydberg Basis      0.08177 (  0.5111% of  16)
 --------------------------------------------------------

    Atom  No          Natural Electron Configuration
 ----------------------------------------------------------------------------
      C    1      [core]2S( 0.59)2p( 1.76)3p( 0.01)
      S    2      [core]3S( 0.78)3p( 1.62)4S( 0.02)3d( 0.04)4p( 0.01)
      O    3      [core]2S( 0.92)2p( 2.49)
      H    4            1S( 0.38)
      H    5            1S( 0.38)


 NBO analysis skipped by request.


 ***************************************************
 *******         Beta  spin orbitals         *******
 ***************************************************


 NATURAL POPULATIONS:  Natural atomic orbital occupancies 
                                                          
   NAO  Atom  No  lang   Type(AO)    Occupancy      Energy
 ----------------------------------------------------------
     1    C    1  S      Cor( 1S)     0.99968     -10.13734
     2    C    1  S      Val( 2S)     0.59228      -0.35345
     3    C    1  S      Ryd( 3S)     0.00074       0.48535
     4    C    1  px     Val( 2p)     0.55449      -0.17584
     5    C    1  px     Ryd( 3p)     0.00336       0.45487
     6    C    1  py     Val( 2p)     0.58853      -0.17090
     7    C    1  py     Ryd( 3p)     0.00242       0.52468
     8    C    1  pz     Val( 2p)     0.61554      -0.13076
     9    C    1  pz     Ryd( 3p)     0.00148       0.61717
    10    C    1  dxy    Ryd( 3d)     0.00042       1.98077
    11    C    1  dxz    Ryd( 3d)     0.00034       2.23878
    12    C    1  dyz    Ryd( 3d)     0.00017       2.13074
    13    C    1  dx2y2  Ryd( 3d)     0.00029       2.11881
    14    C    1  dz2    Ryd( 3d)     0.00019       2.06493
 
    15    S    2  S      Cor( 1S)     1.00000     -88.12900
    16    S    2  S      Cor( 2S)     0.99952      -8.63491
    17    S    2  S      Val( 3S)     0.77920      -0.69243
    18    S    2  S      Ryd( 4S)     0.01515       0.42351
    19    S    2  px     Cor( 2p)     0.99988      -6.00157
    20    S    2  px     Val( 3p)     0.52646      -0.17944
    21    S    2  px     Ryd( 4p)     0.00280       0.74378
    22    S    2  py     Cor( 2p)     0.99994      -6.00495
    23    S    2  py     Val( 3p)     0.56499      -0.24407
    24    S    2  py     Ryd( 4p)     0.00148       0.68843
    25    S    2  pz     Cor( 2p)     0.99995      -6.00262
    26    S    2  pz     Val( 3p)     0.52566      -0.20370
    27    S    2  pz     Ryd( 4p)     0.00347       0.70876
    28    S    2  dxy    Ryd( 3d)     0.00870       0.68991
    29    S    2  dxz    Ryd( 3d)     0.00762       0.79036
    30    S    2  dyz    Ryd( 3d)     0.00444       0.76309
    31    S    2  dx2y2  Ryd( 3d)     0.01055       0.85479
    32    S    2  dz2    Ryd( 3d)     0.00940       0.78705
 
    33    O    3  S      Cor( 1S)     0.99992     -18.92683
    34    O    3  S      Val( 2S)     0.91642      -0.94374
    35    O    3  S      Ryd( 3S)     0.00114       1.34084
    36    O    3  px     Val( 2p)     0.90525      -0.29045
    37    O    3  px     Ryd( 3p)     0.00088       1.03223
    38    O    3  py     Val( 2p)     0.80671      -0.28715
    39    O    3  py     Ryd( 3p)     0.00048       0.99354
    40    O    3  pz     Val( 2p)     0.78170      -0.30852
    41    O    3  pz     Ryd( 3p)     0.00027       0.99362
    42    O    3  dxy    Ryd( 3d)     0.00028       2.71621
    43    O    3  dxz    Ryd( 3d)     0.00061       2.84253
    44    O    3  dyz    Ryd( 3d)     0.00061       2.88212
    45    O    3  dx2y2  Ryd( 3d)     0.00029       2.68453
    46    O    3  dz2    Ryd( 3d)     0.00073       2.82837
 
    47    H    4  S      Val( 1S)     0.38196       0.03255
    48    H    4  S      Ryd( 2S)     0.00097       0.28761
    49    H    4  px     Ryd( 2p)     0.00014       1.84661
    50    H    4  py     Ryd( 2p)     0.00018       1.72993
    51    H    4  pz     Ryd( 2p)     0.00028       2.05897
 
    52    H    5  S      Val( 1S)     0.38015       0.04622
    53    H    5  S      Ryd( 2S)     0.00139       0.28971
    54    H    5  px     Ryd( 2p)     0.00015       1.93878
    55    H    5  py     Ryd( 2p)     0.00013       1.72006
    56    H    5  pz     Ryd( 2p)     0.00025       2.00778


 Summary of Natural Population Analysis:                  
                                                          
                                       Natural Population 
                Natural  -----------------------------------------------
    Atom  No    Charge         Core      Valence    Rydberg      Total
 -----------------------------------------------------------------------
      C    1   -0.35992      0.99968     2.35084    0.00940     3.35992
      S    2    0.54082      4.99928     2.39632    0.06358     7.45918
      O    3   -0.41530      0.99992     3.41008    0.00529     4.41530
      H    4    0.11647      0.00000     0.38196    0.00157     0.38353
      H    5    0.11793      0.00000     0.38015    0.00192     0.38207
 =======================================================================
   * Total *   -0.00000      6.99888     8.91935    0.08177    16.00000

                                 Natural Population      
 --------------------------------------------------------
   Core                       6.99888 ( 99.9840% of   7)
   Valence                    8.91935 ( 99.1038% of   9)
   Natural Minimal Basis     15.91823 ( 99.4889% of  16)
   Natural Rydberg Basis      0.08177 (  0.5111% of  16)
 --------------------------------------------------------

    Atom  No          Natural Electron Configuration
 ----------------------------------------------------------------------------
      C    1      [core]2S( 0.59)2p( 1.76)3p( 0.01)
      S    2      [core]3S( 0.78)3p( 1.62)4S( 0.02)3d( 0.04)4p( 0.01)
      O    3      [core]2S( 0.92)2p( 2.49)
      H    4            1S( 0.38)
      H    5            1S( 0.38)


 NBO analysis skipped by request.
 Leave Link  607 at Tue Jan  3 09:07:23 2023, MaxMem=   536870912 cpu:               3.5 elap:               1.8
 (Enter /opt/software/gaussian/g16.c01/l701.exe)
 ... and contract with generalized density number  0.
 Compute integral first derivatives.
 Leave Link  701 at Tue Jan  3 09:07:24 2023, MaxMem=   536870912 cpu:               0.3 elap:               0.1
 (Enter /opt/software/gaussian/g16.c01/l702.exe)
 L702 exits ... SP integral derivatives will be done elsewhere.
 Leave Link  702 at Tue Jan  3 09:07:24 2023, MaxMem=   536870912 cpu:               0.1 elap:               0.0
 (Enter /opt/software/gaussian/g16.c01/l703.exe)
 Integral derivatives from FoFJK, PRISM(SPDF).
 Compute integral first derivatives, UseDBF=F ICtDFT=           0.
 Calling FoFJK, ICntrl=      2127 FMM=F ISym2X=0 I1Cent= 0 IOpClX= 1 NMat=1 NMatS=1 NMatT=0.
 FoFJK:  IHMeth= 1 ICntrl=    2127 DoSepK=F KAlg= 0 I1Cent=           0 FoldK=F
 IRaf=         0 NMat=       1 IRICut=       1 DoRegI=T DoRafI=F ISym2E= 0 IDoP0=0 IntGTp=1.
 FoFCou: FMM=F IPFlag=           0 FMFlag=      100000 FMFlg1=         800
         NFxFlg=           0 DoJE=F BraDBF=F KetDBF=F FulRan=T
         wScrn=  0.000000 ICntrl=      2127 IOpCl=  1 I1Cent=           0 NGrid=           0
         NMat0=    1 NMatS0=      1 NMatT0=    0 NMatD0=    1 NMtDS0=    0 NMtDT0=    0
 Symmetry not used in FoFCou.
 Leave Link  703 at Tue Jan  3 09:07:25 2023, MaxMem=   536870912 cpu:               1.7 elap:               0.9
 (Enter /opt/software/gaussian/g16.c01/l716.exe)
 Dipole        =-8.04216126D-01 4.35122218D-01 7.61735349D-01
 -------------------------------------------------------------------
 Center     Atomic                   Forces (Hartrees/Bohr)
 Number     Number              X              Y              Z
 -------------------------------------------------------------------
      1        6          -0.007649816    0.001233379    0.002162190
      2       16           0.006311861    0.001396772    0.002422248
      3        8           0.003972611   -0.002525520   -0.004403934
      4        1          -0.001580605    0.000515128    0.000915754
      5        1          -0.001054051   -0.000619759   -0.001096259
 -------------------------------------------------------------------
 Cartesian Forces:  Max     0.007649816 RMS     0.003268308
 Z-matrix is all fixed cartesians, so copy forces.
 Force constants in Cartesian coordinates: 
                1             2             3             4             5 
      1  0.829676D+00
      2  0.511240D-02  0.243810D+00
      3  0.905768D-02  0.234956D+00  0.520669D+00
      4 -0.491409D+00 -0.959762D-02 -0.168745D-01  0.641682D+00
      5  0.287596D-02 -0.491361D-01 -0.278604D-01 -0.128355D+00  0.207963D+00
      6  0.496707D-02 -0.278624D-01 -0.819862D-01 -0.224638D+00  0.320470D+00
      7  0.492524D-03  0.133103D-01  0.233039D-01 -0.150309D+00  0.124519D+00
      8  0.104201D-03  0.602149D-02  0.308174D-02  0.137725D+00 -0.180658D+00
      9  0.181864D-03  0.308386D-02  0.966084D-02  0.241117D+00 -0.294338D+00
     10 -0.151987D+00  0.492920D-01  0.862296D-01  0.424157D-03  0.114682D-01
     11  0.447359D-01 -0.101753D+00 -0.113561D+00  0.975664D-04  0.365001D-02
     12  0.782568D-01 -0.113560D+00 -0.235538D+00  0.170666D-03  0.403592D-02
     13 -0.186773D+00 -0.581171D-01 -0.101717D+00 -0.388712D-03 -0.105080D-01
     14 -0.528284D-01 -0.989424D-01 -0.966159D-01  0.130067D-03  0.181809D-01
     15 -0.924634D-01 -0.966168D-01 -0.212806D+00  0.224637D-03 -0.230723D-02
                6             7             8             9            10 
      6  0.585965D+00
      7  0.217995D+00  0.149816D+00
      8 -0.294336D+00 -0.137829D+00  0.174946D+00
      9 -0.527847D+00 -0.241299D+00  0.291077D+00  0.518287D+00
     10  0.200660D-01  0.000000D+00  0.000000D+00  0.000000D+00  0.123189D+00
     11  0.403202D-02  0.000000D+00  0.453529D-02 -0.259031D-02 -0.513576D-01
     12  0.840740D-02  0.000000D+00 -0.259199D-02  0.148040D-02 -0.898457D-01
     13 -0.183902D-01  0.000000D+00  0.000000D+00  0.000000D+00  0.283742D-01
     14 -0.230345D-02  0.000000D+00 -0.484560D-02  0.276754D-02 -0.940299D-02
     15  0.154602D-01  0.000000D+00  0.276920D-02 -0.158162D-02 -0.164496D-01
               11            12            13            14            15 
     11  0.877574D-01
     12  0.120457D+00  0.229666D+00
     13  0.652373D-02  0.114185D-01  0.158787D+00
     14  0.581069D-02 -0.834082D-02  0.621018D-01  0.797964D-01
     15 -0.833779D-02 -0.401584D-02  0.108688D+00  0.104493D+00  0.202943D+00
 Leave Link  716 at Tue Jan  3 09:07:25 2023, MaxMem=   536870912 cpu:               0.1 elap:               0.0
 (Enter /opt/software/gaussian/g16.c01/l103.exe)

 GradGradGradGradGradGradGradGradGradGradGradGradGradGradGradGradGradGrad
 Berny optimization.
 Search for a local minimum.
 Step number   1 out of a maximum of    2
 All quantities printed in internal units (Hartrees-Bohrs-Radians)
 Second derivative matrix not updated -- first step.
 The second derivative matrix:
                          X1        Y1        Z1        X2        Y2
           X1           0.82968
           Y1           0.00511   0.24381
           Z1           0.00906   0.23496   0.52067
           X2          -0.49141  -0.00960  -0.01687   0.64168
           Y2           0.00288  -0.04914  -0.02786  -0.12836   0.20796
           Z2           0.00497  -0.02786  -0.08199  -0.22464   0.32047
           X3           0.00049   0.01331   0.02330  -0.15031   0.12452
           Y3           0.00010   0.00602   0.00308   0.13773  -0.18066
           Z3           0.00018   0.00308   0.00966   0.24112  -0.29434
           X4          -0.15199   0.04929   0.08623   0.00042   0.01147
           Y4           0.04474  -0.10175  -0.11356   0.00010   0.00365
           Z4           0.07826  -0.11356  -0.23554   0.00017   0.00404
           X5          -0.18677  -0.05812  -0.10172  -0.00039  -0.01051
           Y5          -0.05283  -0.09894  -0.09662   0.00013   0.01818
           Z5          -0.09246  -0.09662  -0.21281   0.00022  -0.00231
                          Z2        X3        Y3        Z3        X4
           Z2           0.58597
           X3           0.21800   0.14982
           Y3          -0.29434  -0.13783   0.17495
           Z3          -0.52785  -0.24130   0.29108   0.51829
           X4           0.02007   0.00000   0.00000  -0.00000   0.12319
           Y4           0.00403   0.00000   0.00454  -0.00259  -0.05136
           Z4           0.00841  -0.00000  -0.00259   0.00148  -0.08985
           X5          -0.01839  -0.00000  -0.00000   0.00000   0.02837
           Y5          -0.00230  -0.00000  -0.00485   0.00277  -0.00940
           Z5           0.01546   0.00000   0.00277  -0.00158  -0.01645
                          Y4        Z4        X5        Y5        Z5
           Y4           0.08776
           Z4           0.12046   0.22967
           X5           0.00652   0.01142   0.15879
           Y5           0.00581  -0.00834   0.06210   0.07980
           Z5          -0.00834  -0.00402   0.10869   0.10449   0.20294
 ITU=  0
     Eigenvalues ---    0.02243   0.03701   0.09811   0.12281   0.16471
     Eigenvalues ---    0.34496   0.86201   1.16715   1.68793
 Angle between quadratic step and forces=  59.89 degrees.
 Linear search not attempted -- first point.
 B after Tr=     0.006899   -0.003476   -0.006095
         Rot=    1.000000    0.000055    0.000259   -0.000170 Ang=   0.04 deg.
 Variable       Old X    -DE/DX   Delta X   Delta X   Delta X     New X
                                 (Linear)    (Quad)   (Total)
    X1        1.84631  -0.00765   0.00000  -0.01929  -0.01228   1.83402
    Y1       -0.03741   0.00123   0.00000   0.00621   0.00333  -0.03407
    Z1       -0.19054   0.00216   0.00000   0.01086   0.00572  -0.18482
    X2        4.89062   0.00631   0.00000   0.00131   0.00836   4.89898
    Y2       -0.06532   0.00140   0.00000  -0.00536  -0.00720  -0.07252
    Z2       -0.23894   0.00242   0.00000  -0.00976  -0.01331  -0.25224
    X3        5.99277   0.00397   0.00000   0.03316   0.04181   6.03459
    Y3       -1.34985  -0.00253   0.00000  -0.00315  -0.00485  -1.35471
    Z3       -2.48781  -0.00440   0.00000  -0.00511  -0.00794  -2.49575
    X4        0.97901  -0.00158   0.00000  -0.02148  -0.01564   0.96338
    Y4        0.89117   0.00052   0.00000   0.00783   0.00484   0.89601
    Z4        1.43411   0.00092   0.00000   0.01470   0.00900   1.44310
    X5        0.70071  -0.00105   0.00000  -0.03031  -0.02225   0.67846
    Y5       -0.88856  -0.00062   0.00000   0.00731   0.00388  -0.88468
    Z5       -1.68006  -0.00110   0.00000   0.01218   0.00653  -1.67352
         Item               Value     Threshold  Converged?
 Maximum Force            0.007650     0.000450     NO 
 RMS     Force            0.003268     0.000300     NO 
 Maximum Displacement     0.041812     0.001800     NO 
 RMS     Displacement     0.014675     0.001200     NO 
 Predicted change in Energy=-1.917826D-04
 GradGradGradGradGradGradGradGradGradGradGradGradGradGradGradGradGradGrad

 Leave Link  103 at Tue Jan  3 09:07:25 2023, MaxMem=   536870912 cpu:               0.0 elap:               0.0
 (Enter /opt/software/gaussian/g16.c01/l9999.exe)
 Unable to Open any file for archive entry.
 1\1\GINC-GRA1076\Force\UB3LYP\Gen\C1H2O1S1\BHAVUK\03-Jan-2023\0\\#p ub
 3lyp/chkbasis force guess=read geom=check scf=(maxcycle=900,verytightl
 ineq,xqc) integral=grid=ultrafine symmetry=None density=current pop=(c
 m5,hlygat,mbs,npa) output=wfx\\0005_q000_m01_k00_opt_uwb97xd_def2svpd/
 0005_q000_m01_k00_force_ub3lyp_def2svp stable-force\\0,1\C,0.977024504
 2,-0.0197961728,-0.1008273286\S,2.5880021429,-0.0345660623,-0.12643906
 8\O,3.1712397907,-0.7143116203,-1.3164938758\H,0.5180717789,0.47158801
 24,0.7588975415\H,0.3708017881,-0.4702041579,-0.8890472689\\Version=ES
 64L-G16RevC.01\HF=-512.4531516\S2=0.\S2-1=0.\S2A=0.\RMSD=1.435e-09\RMS
 F=3.268e-03\Dipole=-0.8042161,0.4351222,0.7617353\Quadrupole=-3.399767
 7,2.3454569,1.0543108,2.7794805,4.9664826,-0.9871909\PG=Unknown\\@
 The archive entry for this job was punched.

 Writing a WFNX file to "0005_q000_m01_k00_force_ub3lyp_def2svp.wfx"


 LORD, MAN... WERE YE BUT WHYLES WHERE I AM, 
 THE GENTILES YE WAD NE'ER ENVY 'EM.        
 IT'S TRUE, THEY NEEDNA STARVE OR SWEAT,     
 THRO' WINTER'S CAULD OR SIMMER'S HEAT...  
 THEY'VE NAE SAIR WARK TO CRAZE THEIR BANES, 
 AND FILL AULD AGE WITH GRIPS AN' GRANES...  
                                             
 BUT HUMAN BODIES ARE SIC FOOLS              
 FOR A' THEIR COLLEGES AND SCHOOLS,           
 THAT WHEN NAE REAL ILLS PERPLEX THEM,       
 THEY MAK ENOW THEMSELVES TO VEX THEM,       
 AN' AYE THE LESS THEY HAE TO STURT THEM,    
 IN LIKE PROPORTION LESS WILL HURT THEM....  
                                             
                (ROBERT BURNS 'THE TWA DOGS')
 Job cpu time:       0 days  0 hours  0 minutes  9.7 seconds.
 Elapsed time:       0 days  0 hours  0 minutes  4.7 seconds.
 File lengths (MBytes):  RWF=      6 Int=      0 D2E=      0 Chk=      2 Scr=      1
 Normal termination of Gaussian 16 at Tue Jan  3 09:07:25 2023.
