 Entering Gaussian System, Link 0=g16
 Input=0005_q000_m01_k00_force_uhf_def2tzvp.com
 Output=0005_q000_m01_k00_force_uhf_def2tzvp.log
 Initial command:
 /opt/software/gaussian/g16.c01/l1.exe "/localscratch/bhavuk.2151420.0/Gau-19864.inp" -scrdir="/localscratch/bhavuk.2151420.0/"
 Entering Link 1 = /opt/software/gaussian/g16.c01/l1.exe PID=     19865.
  
 Copyright (c) 1988-2019, Gaussian, Inc.  All Rights Reserved.
  
 This is part of the Gaussian(R) 16 program.  It is based on
 the Gaussian(R) 09 system (copyright 2009, Gaussian, Inc.),
 the Gaussian(R) 03 system (copyright 2003, Gaussian, Inc.),
 the Gaussian(R) 98 system (copyright 1998, Gaussian, Inc.),
 the Gaussian(R) 94 system (copyright 1995, Gaussian, Inc.),
 the Gaussian 92(TM) system (copyright 1992, Gaussian, Inc.),
 the Gaussian 90(TM) system (copyright 1990, Gaussian, Inc.),
 the Gaussian 88(TM) system (copyright 1988, Gaussian, Inc.),
 the Gaussian 86(TM) system (copyright 1986, Carnegie Mellon
 University), and the Gaussian 82(TM) system (copyright 1983,
 Carnegie Mellon University). Gaussian is a federally registered
 trademark of Gaussian, Inc.
  
 This software contains proprietary and confidential information,
 including trade secrets, belonging to Gaussian, Inc.
  
 This software is provided under written license and may be
 used, copied, transmitted, or stored only in accord with that
 written license.
  
 The following legend is applicable only to US Government
 contracts under FAR:
  
                    RESTRICTED RIGHTS LEGEND
  
 Use, reproduction and disclosure by the US Government is
 subject to restrictions as set forth in subparagraphs (a)
 and (c) of the Commercial Computer Software - Restricted
 Rights clause in FAR 52.227-19.
  
 Gaussian, Inc.
 340 Quinnipiac St., Bldg. 40, Wallingford CT 06492
  
  
 ---------------------------------------------------------------
 Warning -- This program may not be used in any manner that
 competes with the business of Gaussian, Inc. or will provide
 assistance to any competitor of Gaussian, Inc.  The licensee
 of this program is prohibited from giving any competitor of
 Gaussian, Inc. access to this program.  By using this program,
 the user acknowledges that Gaussian, Inc. is engaged in the
 business of creating and licensing software in the field of
 computational chemistry and represents and warrants to the
 licensee that it is not a competitor of Gaussian, Inc. and that
 it will not use this program in any manner prohibited above.
 ---------------------------------------------------------------
  

 Cite this work as:
 Gaussian 16, Revision C.01,
 M. J. Frisch, G. W. Trucks, H. B. Schlegel, G. E. Scuseria, 
 M. A. Robb, J. R. Cheeseman, G. Scalmani, V. Barone, 
 G. A. Petersson, H. Nakatsuji, X. Li, M. Caricato, A. V. Marenich, 
 J. Bloino, B. G. Janesko, R. Gomperts, B. Mennucci, H. P. Hratchian, 
 J. V. Ortiz, A. F. Izmaylov, J. L. Sonnenberg, D. Williams-Young, 
 F. Ding, F. Lipparini, F. Egidi, J. Goings, B. Peng, A. Petrone, 
 T. Henderson, D. Ranasinghe, V. G. Zakrzewski, J. Gao, N. Rega, 
 G. Zheng, W. Liang, M. Hada, M. Ehara, K. Toyota, R. Fukuda, 
 J. Hasegawa, M. Ishida, T. Nakajima, Y. Honda, O. Kitao, H. Nakai, 
 T. Vreven, K. Throssell, J. A. Montgomery, Jr., J. E. Peralta, 
 F. Ogliaro, M. J. Bearpark, J. J. Heyd, E. N. Brothers, K. N. Kudin, 
 V. N. Staroverov, T. A. Keith, R. Kobayashi, J. Normand, 
 K. Raghavachari, A. P. Rendell, J. C. Burant, S. S. Iyengar, 
 J. Tomasi, M. Cossi, J. M. Millam, M. Klene, C. Adamo, R. Cammi, 
 J. W. Ochterski, R. L. Martin, K. Morokuma, O. Farkas, 
 J. B. Foresman, and D. J. Fox, Gaussian, Inc., Wallingford CT, 2019.
 
 ******************************************
 Gaussian 16:  ES64L-G16RevC.01  3-Jul-2019
                 3-Jan-2023 
 ******************************************
 %chk=0005_q000_m01_k00_force_uhf_def2tzvp.chk
 %nprocshared=2
 Will use up to    2 processors via shared memory.
 %mem=4GB
 ----------------------------------------------------------------------
 #p uhf/gen stable=opt scf=(maxcycle=900,verytightlineq,xqc) integral=g
 rid=ultrafine symmetry=None density=current iop(99/18=-1) output=wfn
 ----------------------------------------------------------------------
 1/38=1,172=1/1;
 2/12=2,15=3,17=6,18=5,40=1/2;
 3/5=7,11=2,25=1,30=1,75=-5,116=2/1,2,3;
 4//1;
 5/5=2,7=900,8=3,13=1,17=3,38=5/2,8;
 6/7=2,8=2,9=2,10=2,22=-1,28=1/1;
 8/6=1,10=90,11=11/1;
 9/8=-3,42=1,46=1/14;
 5/5=2,7=900,8=3,17=43,38=5/8(-2);
 6/7=2,8=2,9=2,10=2,22=-1,28=1/1;
 99/5=1,6=100,9=1,18=-1/99;
 Leave Link    1 at Tue Jan  3 09:07:32 2023, MaxMem=   536870912 cpu:               0.1 elap:               0.1
 (Enter /opt/software/gaussian/g16.c01/l101.exe)
 ----------------------------------------------------------------------
 0005_q000_m01_k00_opt_uwb97xd_def2svpd/0005_q000_m01_k00_force_uhf_def
 2tzvp stable-force
 ----------------------------------------------------------------------
 Symbolic Z-matrix:
 Charge =  0 Multiplicity = 1
 C                     0.97702  -0.0198   -0.10083 
 S                     2.588    -0.03457  -0.12644 
 O                     3.17124  -0.71431  -1.31649 
 H                     0.51807   0.47159   0.7589 
 H                     0.3708   -0.4702   -0.88905 
 
 ITRead=  0  0  0  0  0
 MicOpt= -1 -1 -1 -1 -1
 NAtoms=      5 NQM=        5 NQMF=       0 NMMI=      0 NMMIF=      0
                NMic=       0 NMicF=      0.
                    Isotopes and Nuclear Properties:
 (Nuclear quadrupole moments (NQMom) in fm**2, nuclear magnetic moments (NMagM)
  in nuclear magnetons)

  Atom         1           2           3           4           5
 IAtWgt=          12          32          16           1           1
 AtmWgt=  12.0000000  31.9720718  15.9949146   1.0078250   1.0078250
 NucSpn=           0           0           0           1           1
 AtZEff=  -0.0000000  -0.0000000  -0.0000000  -0.0000000  -0.0000000
 NQMom=    0.0000000   0.0000000   0.0000000   0.0000000   0.0000000
 NMagM=    0.0000000   0.0000000   0.0000000   2.7928460   2.7928460
 AtZNuc=   6.0000000  16.0000000   8.0000000   1.0000000   1.0000000
 Leave Link  101 at Tue Jan  3 09:07:32 2023, MaxMem=   536870912 cpu:               0.4 elap:               0.2
 (Enter /opt/software/gaussian/g16.c01/l202.exe)
                          Input orientation:                          
 ---------------------------------------------------------------------
 Center     Atomic      Atomic             Coordinates (Angstroms)
 Number     Number       Type             X           Y           Z
 ---------------------------------------------------------------------
      1          6           0        0.977025   -0.019796   -0.100827
      2         16           0        2.588002   -0.034566   -0.126439
      3          8           0        3.171240   -0.714312   -1.316494
      4          1           0        0.518072    0.471588    0.758898
      5          1           0        0.370802   -0.470204   -0.889047
 ---------------------------------------------------------------------
                    Distance matrix (angstroms):
                    1          2          3          4          5
     1  C    0.000000
     2  S    1.611249   0.000000
     3  O    2.602840   1.489446   0.000000
     4  H    1.091432   2.307515   3.571121   0.000000
     5  H    1.091634   2.384812   2.843370   1.903781   0.000000
 Symmetry turned off by external request.
 Stoichiometry    CH2OS
 Rotational constants (GHZ):          39.0370487           9.3459813           7.5406507
 Leave Link  202 at Tue Jan  3 09:07:32 2023, MaxMem=   536870912 cpu:               0.0 elap:               0.0
 (Enter /opt/software/gaussian/g16.c01/l301.exe)
 General basis read from cards:  (5D, 7F)
 Centers:       4      5
 S 3 1.00
     Exponent=  3.4061341000D+01 Coefficients=  6.0251978000D-03
     Exponent=  5.1235746000D+00 Coefficients=  4.5021094000D-02
     Exponent=  1.1646626000D+00 Coefficients=  2.0189726000D-01
 S 1 1.00
     Exponent=  3.2723041000D-01 Coefficients=  1.0000000000D+00
 S 1 1.00
     Exponent=  1.0307241000D-01 Coefficients=  1.0000000000D+00
 P 1 1.00
     Exponent=  8.0000000000D-01 Coefficients=  1.0000000000D+00
 ****
 Centers:       1
 S 6 1.00
     Exponent=  1.3575349682D+04 Coefficients=  2.2245814352D-04
     Exponent=  2.0352333680D+03 Coefficients=  1.7232738252D-03
     Exponent=  4.6322562359D+02 Coefficients=  8.9255715314D-03
     Exponent=  1.3120019598D+02 Coefficients=  3.5727984502D-02
     Exponent=  4.2853015891D+01 Coefficients=  1.1076259931D-01
     Exponent=  1.5584185766D+01 Coefficients=  2.4295627626D-01
 S 2 1.00
     Exponent=  6.2067138508D+00 Coefficients=  4.1440263448D-01
     Exponent=  2.5764896527D+00 Coefficients=  2.3744968655D-01
 S 1 1.00
     Exponent=  5.7696339419D-01 Coefficients=  1.0000000000D+00
 S 1 1.00
     Exponent=  2.2972831358D-01 Coefficients=  1.0000000000D+00
 S 1 1.00
     Exponent=  9.5164440028D-02 Coefficients=  1.0000000000D+00
 P 4 1.00
     Exponent=  3.4697232244D+01 Coefficients=  5.3333657805D-03
     Exponent=  7.9582622826D+00 Coefficients=  3.5864109092D-02
     Exponent=  2.3780826883D+00 Coefficients=  1.4215873329D-01
     Exponent=  8.1433208183D-01 Coefficients=  3.4270471845D-01
 P 1 1.00
     Exponent=  2.8887547253D-01 Coefficients=  4.6445822433D-01
 P 1 1.00
     Exponent=  1.0056823671D-01 Coefficients=  2.4955789874D-01
 D 1 1.00
     Exponent=  1.0970000000D+00 Coefficients=  1.0000000000D+00
 D 1 1.00
     Exponent=  3.1800000000D-01 Coefficients=  1.0000000000D+00
 F 1 1.00
     Exponent=  7.6100000000D-01 Coefficients=  1.0000000000D+00
 ****
 Centers:       3
 S 6 1.00
     Exponent=  2.7032382631D+04 Coefficients=  2.1726302465D-04
     Exponent=  4.0523871392D+03 Coefficients=  1.6838662199D-03
     Exponent=  9.2232722710D+02 Coefficients=  8.7395616265D-03
     Exponent=  2.6124070989D+02 Coefficients=  3.5239968808D-02
     Exponent=  8.5354641351D+01 Coefficients=  1.1153519115D-01
     Exponent=  3.1035035245D+01 Coefficients=  2.5588953961D-01
 S 2 1.00
     Exponent=  1.2260860728D+01 Coefficients=  3.9768730901D-01
     Exponent=  4.9987076005D+00 Coefficients=  2.4627849430D-01
 S 1 1.00
     Exponent=  1.1703108158D+00 Coefficients=  1.0000000000D+00
 S 1 1.00
     Exponent=  4.6474740994D-01 Coefficients=  1.0000000000D+00
 S 1 1.00
     Exponent=  1.8504536357D-01 Coefficients=  1.0000000000D+00
 P 4 1.00
     Exponent=  6.3274954801D+01 Coefficients=  6.0685103418D-03
     Exponent=  1.4627049379D+01 Coefficients=  4.1912575824D-02
     Exponent=  4.4501223456D+00 Coefficients=  1.6153841088D-01
     Exponent=  1.5275799647D+00 Coefficients=  3.5706951311D-01
 P 1 1.00
     Exponent=  5.2935117943D-01 Coefficients=  4.4794207502D-01
 P 1 1.00
     Exponent=  1.7478421270D-01 Coefficients=  2.4446069663D-01
 D 1 1.00
     Exponent=  2.3140000000D+00 Coefficients=  1.0000000000D+00
 D 1 1.00
     Exponent=  6.4500000000D-01 Coefficients=  1.0000000000D+00
 F 1 1.00
     Exponent=  1.4280000000D+00 Coefficients=  1.0000000000D+00
 ****
 Centers:       2
 S 7 1.00
     Exponent=  6.0700928104D+04 Coefficients=  5.4695944225D-04
     Exponent=  9.1026106854D+03 Coefficients=  4.2297224557D-03
     Exponent=  2.0714166009D+03 Coefficients=  2.1747824159D-02
     Exponent=  5.8602476821D+02 Coefficients=  8.5100053589D-02
     Exponent=  1.9055395021D+02 Coefficients=  2.4799128459D-01
     Exponent=  6.7630384260D+01 Coefficients=  4.6703640406D-01
     Exponent=  2.5127306905D+01 Coefficients=  3.6434587550D-01
 S 3 1.00
     Exponent=  1.1257463010D+02 Coefficients=  2.1670040240D-02
     Exponent=  3.4795554217D+01 Coefficients=  9.3602301760D-02
     Exponent=  6.5115556215D+00 Coefficients= -2.6068001422D-01
 S 2 1.00
     Exponent=  3.2399032261D+00 Coefficients=  1.2842089435D+00
     Exponent=  1.5477160881D+00 Coefficients=  6.6036416584D-01
 S 1 1.00
     Exponent=  4.0541030112D-01 Coefficients=  1.0000000000D+00
 S 1 1.00
     Exponent=  1.4550651059D-01 Coefficients=  1.0000000000D+00
 P 5 1.00
     Exponent=  5.6436716027D+02 Coefficients=  2.4796796317D-03
     Exponent=  1.3342624379D+02 Coefficients=  1.9677930250D-02
     Exponent=  4.2468271189D+01 Coefficients=  8.9980008258D-02
     Exponent=  1.5616527580D+01 Coefficients=  2.5705880575D-01
     Exponent=  6.1093988469D+00 Coefficients=  4.3515167292D-01
 P 1 1.00
     Exponent=  2.4404160198D+00 Coefficients=  3.4883240595D-01
 P 1 1.00
     Exponent=  8.3882201296D-01 Coefficients=  1.0000000000D+00
 P 1 1.00
     Exponent=  3.1288746900D-01 Coefficients=  1.0000000000D+00
 P 1 1.00
     Exponent=  1.0770109004D-01 Coefficients=  1.0000000000D+00
 D 2 1.00
     Exponent=  3.7560000000D+00 Coefficients=  2.0000000000D-01
     Exponent=  8.1200000000D-01 Coefficients=  1.0000000000D+00
 D 1 1.00
     Exponent=  2.7300000000D-01 Coefficients=  1.0000000000D+00
 F 1 1.00
     Exponent=  5.5700000000D-01 Coefficients=  1.0000000000D+00
 ****
 Ernie: Thresh=  0.10000D-02 Tol=  0.10000D-05 Strict=F.
   111 basis functions,   187 primitive gaussians,   126 cartesian basis functions
    16 alpha electrons       16 beta electrons
       nuclear repulsion energy       102.7536228800 Hartrees.
 IExCor=    0 DFT=F Ex=HF Corr=None ExCW=0 ScaHFX=  1.000000
 ScaDFX=  1.000000  1.000000  1.000000  1.000000 ScalE2=  1.000000  1.000000
 IRadAn=      5 IRanWt=     -1 IRanGd=            0 ICorTp=0 IEmpDi=  4
 NAtoms=    5 NActive=    5 NUniq=    5 SFac= 1.00D+00 NAtFMM=   60 NAOKFM=F Big=F
 Integral buffers will be    131072 words long.
 Raffenetti 2 integral format.
 Two-electron integral symmetry is turned off.
 Leave Link  301 at Tue Jan  3 09:07:32 2023, MaxMem=   536870912 cpu:               0.2 elap:               0.1
 (Enter /opt/software/gaussian/g16.c01/l302.exe)
 NPDir=0 NMtPBC=     1 NCelOv=     1 NCel=       1 NClECP=     1 NCelD=      1
         NCelK=      1 NCelE2=     1 NClLst=     1 CellRange=     0.0.
 One-electron integrals computed using PRISM.
 NBasis=   111 RedAO= T EigKep=  1.23D-03  NBF=   111
 NBsUse=   111 1.00D-06 EigRej= -1.00D+00 NBFU=   111
 Leave Link  302 at Tue Jan  3 09:07:32 2023, MaxMem=   536870912 cpu:               0.3 elap:               0.1
 (Enter /opt/software/gaussian/g16.c01/l303.exe)
 DipDrv:  MaxL=1.
 Leave Link  303 at Tue Jan  3 09:07:32 2023, MaxMem=   536870912 cpu:               0.1 elap:               0.0
 (Enter /opt/software/gaussian/g16.c01/l401.exe)
 ExpMin= 9.52D-02 ExpMax= 6.07D+04 ExpMxC= 2.07D+03 IAcc=3 IRadAn=         5 AccDes= 0.00D+00
 Harris functional with IExCor=  205 and IRadAn=       5 diagonalized for initial guess.
 HarFok:  IExCor=  205 AccDes= 0.00D+00 IRadAn=         5 IDoV= 1 UseB2=F ITyADJ=14
 ICtDFT=  3500011 ScaDFX=  1.000000  1.000000  1.000000  1.000000
 FoFCou: FMM=F IPFlag=           0 FMFlag=      100000 FMFlg1=           0
         NFxFlg=           0 DoJE=T BraDBF=F KetDBF=T FulRan=T
         wScrn=  0.000000 ICntrl=       500 IOpCl=  0 I1Cent=   200000004 NGrid=           0
         NMat0=    1 NMatS0=      1 NMatT0=    0 NMatD0=    1 NMtDS0=    0 NMtDT0=    0
 Symmetry not used in FoFCou.
 Harris En= -511.196119362999    
 JPrj=0 DoOrth=F DoCkMO=F.
 Initial guess <Sx>= 0.0000 <Sy>= 0.0000 <Sz>= 0.0000 <S**2>=-0.0000 S=-0.0000
 Leave Link  401 at Tue Jan  3 09:07:33 2023, MaxMem=   536870912 cpu:               0.7 elap:               0.4
 (Enter /opt/software/gaussian/g16.c01/l502.exe)
 Keep R1 and R2 ints in memory in canonical form, NReq=40642598.
 FoFCou: FMM=F IPFlag=           0 FMFlag=           0 FMFlg1=           0
         NFxFlg=           0 DoJE=F BraDBF=F KetDBF=F FulRan=T
         wScrn=  0.000000 ICntrl=       600 IOpCl=  0 I1Cent=           0 NGrid=           0
         NMat0=    1 NMatS0=   6216 NMatT0=    0 NMatD0=    1 NMtDS0=    0 NMtDT0=    0
 Symmetry not used in FoFCou.
 Two-electron integral symmetry not used.
 UHF open shell SCF:
 Using DIIS extrapolation, IDIIS=  1040.
 NGot=   536870912 LenX=   498192476 LenY=   498176159
 Requested convergence on RMS density matrix=1.00D-08 within 128 cycles.
 Requested convergence on MAX density matrix=1.00D-06.
 Requested convergence on             energy=1.00D-06.
 No special actions if energy rises.

 Cycle   1  Pass 1  IDiag  1:
 E= -511.196969895015    
 DIIS: error= 6.56D-02 at cycle   1 NSaved=   1.
 NSaved= 1 IEnMin= 1 EnMin= -511.196969895015     IErMin= 1 ErrMin= 6.56D-02
 ErrMax= 6.56D-02  0.00D+00 EMaxC= 1.00D-01 BMatC= 1.94D+00 BMatP= 1.94D+00
 IDIUse=3 WtCom= 3.44D-01 WtEn= 6.56D-01
 Coeff-Com:  0.100D+01
 Coeff-En:   0.100D+01
 Coeff:      0.100D+01
 Gap=     0.481 Goal=   None    Shift=    0.000
 Gap=     0.481 Goal=   None    Shift=    0.000
 GapD=    0.481 DampG=2.000 DampE=0.500 DampFc=1.0000 IDamp=-1.
 RMSDP=3.85D-03 MaxDP=8.03D-02              OVMax= 1.97D-01

 Cycle   2  Pass 1  IDiag  1:
 E= -511.326999299771     Delta-E=       -0.130029404756 Rises=F Damp=F
 DIIS: error= 2.63D-02 at cycle   2 NSaved=   2.
 NSaved= 2 IEnMin= 2 EnMin= -511.326999299771     IErMin= 2 ErrMin= 2.63D-02
 ErrMax= 2.63D-02  0.00D+00 EMaxC= 1.00D-01 BMatC= 4.78D-01 BMatP= 1.94D+00
 IDIUse=3 WtCom= 7.37D-01 WtEn= 2.63D-01
 Coeff-Com:  0.292D+00 0.708D+00
 Coeff-En:   0.177D+00 0.823D+00
 Coeff:      0.262D+00 0.738D+00
 Gap=     0.448 Goal=   None    Shift=    0.000
 Gap=     0.448 Goal=   None    Shift=    0.000
 RMSDP=2.18D-03 MaxDP=8.12D-02 DE=-1.30D-01 OVMax= 1.05D-01

 Cycle   3  Pass 1  IDiag  1:
 E= -511.407971761137     Delta-E=       -0.080972461366 Rises=F Damp=F
 DIIS: error= 9.69D-03 at cycle   3 NSaved=   3.
 NSaved= 3 IEnMin= 3 EnMin= -511.407971761137     IErMin= 3 ErrMin= 9.69D-03
 ErrMax= 9.69D-03  0.00D+00 EMaxC= 1.00D-01 BMatC= 4.63D-02 BMatP= 4.78D-01
 IDIUse=3 WtCom= 9.03D-01 WtEn= 9.69D-02
 Coeff-Com: -0.168D-01 0.213D+00 0.804D+00
 Coeff-En:   0.000D+00 0.000D+00 0.100D+01
 Coeff:     -0.152D-01 0.192D+00 0.823D+00
 Gap=     0.428 Goal=   None    Shift=    0.000
 Gap=     0.428 Goal=   None    Shift=    0.000
 RMSDP=5.79D-04 MaxDP=1.48D-02 DE=-8.10D-02 OVMax= 2.89D-02

 Cycle   4  Pass 1  IDiag  1:
 E= -511.416042572198     Delta-E=       -0.008070811061 Rises=F Damp=F
 DIIS: error= 2.93D-03 at cycle   4 NSaved=   4.
 NSaved= 4 IEnMin= 4 EnMin= -511.416042572198     IErMin= 4 ErrMin= 2.93D-03
 ErrMax= 2.93D-03  0.00D+00 EMaxC= 1.00D-01 BMatC= 2.63D-03 BMatP= 4.63D-02
 IDIUse=3 WtCom= 9.71D-01 WtEn= 2.93D-02
 Coeff-Com: -0.123D-01 0.387D-01 0.281D+00 0.692D+00
 Coeff-En:   0.000D+00 0.000D+00 0.000D+00 0.100D+01
 Coeff:     -0.120D-01 0.376D-01 0.273D+00 0.701D+00
 Gap=     0.427 Goal=   None    Shift=    0.000
 Gap=     0.427 Goal=   None    Shift=    0.000
 RMSDP=1.72D-04 MaxDP=3.10D-03 DE=-8.07D-03 OVMax= 1.58D-02

 Cycle   5  Pass 1  IDiag  1:
 E= -511.416709301867     Delta-E=       -0.000666729669 Rises=F Damp=F
 DIIS: error= 6.27D-04 at cycle   5 NSaved=   5.
 NSaved= 5 IEnMin= 5 EnMin= -511.416709301867     IErMin= 5 ErrMin= 6.27D-04
 ErrMax= 6.27D-04  0.00D+00 EMaxC= 1.00D-01 BMatC= 3.25D-04 BMatP= 2.63D-03
 IDIUse=3 WtCom= 9.94D-01 WtEn= 6.27D-03
 Coeff-Com:  0.297D-02-0.348D-01-0.117D+00 0.133D+00 0.102D+01
 Coeff-En:   0.000D+00 0.000D+00 0.000D+00 0.000D+00 0.100D+01
 Coeff:      0.295D-02-0.345D-01-0.116D+00 0.132D+00 0.102D+01
 Gap=     0.428 Goal=   None    Shift=    0.000
 Gap=     0.428 Goal=   None    Shift=    0.000
 RMSDP=9.10D-05 MaxDP=2.57D-03 DE=-6.67D-04 OVMax= 4.64D-03

 Cycle   6  Pass 1  IDiag  1:
 E= -511.416855113378     Delta-E=       -0.000145811511 Rises=F Damp=F
 DIIS: error= 3.52D-04 at cycle   6 NSaved=   6.
 NSaved= 6 IEnMin= 6 EnMin= -511.416855113378     IErMin= 6 ErrMin= 3.52D-04
 ErrMax= 3.52D-04  0.00D+00 EMaxC= 1.00D-01 BMatC= 3.08D-05 BMatP= 3.25D-04
 IDIUse=3 WtCom= 9.96D-01 WtEn= 3.52D-03
 Coeff-Com:  0.947D-03-0.389D-02-0.194D-01-0.382D-01-0.208D+00 0.127D+01
 Coeff-En:   0.000D+00 0.000D+00 0.000D+00 0.000D+00 0.000D+00 0.100D+01
 Coeff:      0.943D-03-0.387D-02-0.194D-01-0.381D-01-0.208D+00 0.127D+01
 Gap=     0.428 Goal=   None    Shift=    0.000
 Gap=     0.428 Goal=   None    Shift=    0.000
 RMSDP=5.19D-05 MaxDP=8.86D-04 DE=-1.46D-04 OVMax= 4.64D-03

 Cycle   7  Pass 1  IDiag  1:
 E= -511.416889670722     Delta-E=       -0.000034557344 Rises=F Damp=F
 DIIS: error= 1.57D-04 at cycle   7 NSaved=   7.
 NSaved= 7 IEnMin= 7 EnMin= -511.416889670722     IErMin= 7 ErrMin= 1.57D-04
 ErrMax= 1.57D-04  0.00D+00 EMaxC= 1.00D-01 BMatC= 7.90D-06 BMatP= 3.08D-05
 IDIUse=3 WtCom= 9.98D-01 WtEn= 1.57D-03
 Coeff-Com: -0.540D-03 0.606D-02 0.254D-01 0.129D-02-0.224D+00-0.987D-01
 Coeff-Com:  0.129D+01
 Coeff-En:   0.000D+00 0.000D+00 0.000D+00 0.000D+00 0.000D+00 0.000D+00
 Coeff-En:   0.100D+01
 Coeff:     -0.539D-03 0.605D-02 0.254D-01 0.129D-02-0.224D+00-0.986D-01
 Coeff:      0.129D+01
 Gap=     0.428 Goal=   None    Shift=    0.000
 Gap=     0.428 Goal=   None    Shift=    0.000
 RMSDP=3.17D-05 MaxDP=5.56D-04 DE=-3.46D-05 OVMax= 2.70D-03

 Cycle   8  Pass 1  IDiag  1:
 E= -511.416898864657     Delta-E=       -0.000009193935 Rises=F Damp=F
 DIIS: error= 6.60D-05 at cycle   8 NSaved=   8.
 NSaved= 8 IEnMin= 8 EnMin= -511.416898864657     IErMin= 8 ErrMin= 6.60D-05
 ErrMax= 6.60D-05  0.00D+00 EMaxC= 1.00D-01 BMatC= 1.08D-06 BMatP= 7.90D-06
 IDIUse=1 WtCom= 1.00D+00 WtEn= 0.00D+00
 Coeff-Com: -0.214D-03-0.128D-04 0.212D-02 0.154D-01 0.468D-01-0.166D+00
 Coeff-Com: -0.374D+00 0.148D+01
 Coeff:     -0.214D-03-0.128D-04 0.212D-02 0.154D-01 0.468D-01-0.166D+00
 Coeff:     -0.374D+00 0.148D+01
 Gap=     0.428 Goal=   None    Shift=    0.000
 Gap=     0.428 Goal=   None    Shift=    0.000
 RMSDP=1.57D-05 MaxDP=2.56D-04 DE=-9.19D-06 OVMax= 1.28D-03

 Cycle   9  Pass 1  IDiag  1:
 E= -511.416900307585     Delta-E=       -0.000001442927 Rises=F Damp=F
 DIIS: error= 1.07D-05 at cycle   9 NSaved=   9.
 NSaved= 9 IEnMin= 9 EnMin= -511.416900307585     IErMin= 9 ErrMin= 1.07D-05
 ErrMax= 1.07D-05  0.00D+00 EMaxC= 1.00D-01 BMatC= 4.42D-08 BMatP= 1.08D-06
 IDIUse=1 WtCom= 1.00D+00 WtEn= 0.00D+00
 Coeff-Com:  0.907D-04-0.432D-03-0.256D-02-0.329D-02 0.575D-02 0.465D-01
 Coeff-Com: -0.924D-02-0.329D+00 0.129D+01
 Coeff:      0.907D-04-0.432D-03-0.256D-02-0.329D-02 0.575D-02 0.465D-01
 Coeff:     -0.924D-02-0.329D+00 0.129D+01
 Gap=     0.428 Goal=   None    Shift=    0.000
 Gap=     0.428 Goal=   None    Shift=    0.000
 RMSDP=2.18D-06 MaxDP=4.11D-05 DE=-1.44D-06 OVMax= 1.53D-04

 Cycle  10  Pass 1  IDiag  1:
 E= -511.416900351496     Delta-E=       -0.000000043911 Rises=F Damp=F
 DIIS: error= 3.08D-06 at cycle  10 NSaved=  10.
 NSaved=10 IEnMin=10 EnMin= -511.416900351496     IErMin=10 ErrMin= 3.08D-06
 ErrMax= 3.08D-06  0.00D+00 EMaxC= 1.00D-01 BMatC= 3.33D-09 BMatP= 4.42D-08
 IDIUse=1 WtCom= 1.00D+00 WtEn= 0.00D+00
 Coeff-Com: -0.120D-04 0.153D-03 0.667D-03-0.282D-03-0.648D-02-0.705D-04
 Coeff-Com:  0.459D-01-0.526D-01-0.331D+00 0.134D+01
 Coeff:     -0.120D-04 0.153D-03 0.667D-03-0.282D-03-0.648D-02-0.705D-04
 Coeff:      0.459D-01-0.526D-01-0.331D+00 0.134D+01
 Gap=     0.428 Goal=   None    Shift=    0.000
 Gap=     0.428 Goal=   None    Shift=    0.000
 RMSDP=5.56D-07 MaxDP=1.06D-05 DE=-4.39D-08 OVMax= 3.73D-05

 Cycle  11  Pass 1  IDiag  1:
 E= -511.416900354402     Delta-E=       -0.000000002906 Rises=F Damp=F
 DIIS: error= 5.96D-07 at cycle  11 NSaved=  11.
 NSaved=11 IEnMin=11 EnMin= -511.416900354402     IErMin=11 ErrMin= 5.96D-07
 ErrMax= 5.96D-07  0.00D+00 EMaxC= 1.00D-01 BMatC= 1.81D-10 BMatP= 3.33D-09
 IDIUse=1 WtCom= 1.00D+00 WtEn= 0.00D+00
 Coeff-Com: -0.930D-06-0.211D-04-0.679D-04 0.327D-03 0.133D-02-0.190D-02
 Coeff-Com: -0.137D-01 0.313D-01 0.345D-01-0.394D+00 0.134D+01
 Coeff:     -0.930D-06-0.211D-04-0.679D-04 0.327D-03 0.133D-02-0.190D-02
 Coeff:     -0.137D-01 0.313D-01 0.345D-01-0.394D+00 0.134D+01
 Gap=     0.428 Goal=   None    Shift=    0.000
 Gap=     0.428 Goal=   None    Shift=    0.000
 RMSDP=1.35D-07 MaxDP=2.50D-06 DE=-2.91D-09 OVMax= 7.62D-06

 Cycle  12  Pass 1  IDiag  1:
 E= -511.416900354536     Delta-E=       -0.000000000134 Rises=F Damp=F
 DIIS: error= 1.25D-07 at cycle  12 NSaved=  12.
 NSaved=12 IEnMin=12 EnMin= -511.416900354536     IErMin=12 ErrMin= 1.25D-07
 ErrMax= 1.25D-07  0.00D+00 EMaxC= 1.00D-01 BMatC= 8.69D-12 BMatP= 1.81D-10
 IDIUse=1 WtCom= 1.00D+00 WtEn= 0.00D+00
 Coeff-Com:  0.938D-06-0.545D-05-0.274D-04-0.477D-04 0.118D-03 0.503D-03
 Coeff-Com: -0.346D-03-0.293D-02 0.172D-01-0.255D-01-0.173D+00 0.118D+01
 Coeff:      0.938D-06-0.545D-05-0.274D-04-0.477D-04 0.118D-03 0.503D-03
 Coeff:     -0.346D-03-0.293D-02 0.172D-01-0.255D-01-0.173D+00 0.118D+01
 Gap=     0.428 Goal=   None    Shift=    0.000
 Gap=     0.428 Goal=   None    Shift=    0.000
 RMSDP=2.42D-08 MaxDP=3.52D-07 DE=-1.34D-10 OVMax= 1.52D-06

 Cycle  13  Pass 1  IDiag  1:
 E= -511.416900354544     Delta-E=       -0.000000000008 Rises=F Damp=F
 DIIS: error= 5.36D-08 at cycle  13 NSaved=  13.
 NSaved=13 IEnMin=13 EnMin= -511.416900354544     IErMin=13 ErrMin= 5.36D-08
 ErrMax= 5.36D-08  0.00D+00 EMaxC= 1.00D-01 BMatC= 1.15D-12 BMatP= 8.69D-12
 IDIUse=1 WtCom= 1.00D+00 WtEn= 0.00D+00
 Coeff-Com: -0.143D-06 0.228D-05 0.110D-04-0.159D-04-0.143D-03 0.130D-03
 Coeff-Com:  0.102D-02-0.213D-02-0.419D-02 0.323D-01-0.666D-01-0.292D+00
 Coeff-Com:  0.133D+01
 Coeff:     -0.143D-06 0.228D-05 0.110D-04-0.159D-04-0.143D-03 0.130D-03
 Coeff:      0.102D-02-0.213D-02-0.419D-02 0.323D-01-0.666D-01-0.292D+00
 Coeff:      0.133D+01
 Gap=     0.428 Goal=   None    Shift=    0.000
 Gap=     0.428 Goal=   None    Shift=    0.000
 RMSDP=1.01D-08 MaxDP=1.27D-07 DE=-7.84D-12 OVMax= 6.72D-07

 Cycle  14  Pass 1  IDiag  1:
 E= -511.416900354545     Delta-E=       -0.000000000001 Rises=F Damp=F
 DIIS: error= 2.32D-08 at cycle  14 NSaved=  14.
 NSaved=14 IEnMin=14 EnMin= -511.416900354545     IErMin=14 ErrMin= 2.32D-08
 ErrMax= 2.32D-08  0.00D+00 EMaxC= 1.00D-01 BMatC= 9.81D-14 BMatP= 1.15D-12
 IDIUse=1 WtCom= 1.00D+00 WtEn= 0.00D+00
 Coeff-Com:  0.308D-08-0.399D-06-0.189D-05 0.859D-05 0.327D-04-0.551D-04
 Coeff-Com: -0.314D-03 0.822D-03 0.415D-03-0.935D-02 0.382D-01-0.175D-01
 Coeff-Com: -0.427D+00 0.141D+01
 Coeff:      0.308D-08-0.399D-06-0.189D-05 0.859D-05 0.327D-04-0.551D-04
 Coeff:     -0.314D-03 0.822D-03 0.415D-03-0.935D-02 0.382D-01-0.175D-01
 Coeff:     -0.427D+00 0.141D+01
 Gap=     0.428 Goal=   None    Shift=    0.000
 Gap=     0.428 Goal=   None    Shift=    0.000
 RMSDP=4.27D-09 MaxDP=5.70D-08 DE=-1.36D-12 OVMax= 2.71D-07

 SCF Done:  E(UHF) =  -511.416900355     A.U. after   14 cycles
            NFock= 14  Conv=0.43D-08     -V/T= 2.0007
 <Sx>= 0.0000 <Sy>= 0.0000 <Sz>= 0.0000 <S**2>=-0.0000 S=-0.0000
 <L.S>=  0.00000000000    
 KE= 5.110768798213D+02 PE=-1.419975076084D+03 EE= 2.947276730285D+02
 Annihilation of the first spin contaminant:
 S**2 before annihilation    -0.0000,   after    -0.0000
 Leave Link  502 at Tue Jan  3 09:07:34 2023, MaxMem=   536870912 cpu:               2.8 elap:               1.6
 (Enter /opt/software/gaussian/g16.c01/l508.exe)
 QCSCF skips out because SCF is already converged.
 Leave Link  508 at Tue Jan  3 09:07:34 2023, MaxMem=   536870912 cpu:               0.0 elap:               0.0
 (Enter /opt/software/gaussian/g16.c01/l601.exe)
 Copying SCF densities to generalized density rwf, IOpCl= 1 IROHF=0.

 **********************************************************************

            Population analysis using the SCF Density.

 **********************************************************************

 Alpha  occ. eigenvalues --  -92.08116 -20.54204 -11.29993  -9.07205  -6.75340
 Alpha  occ. eigenvalues --   -6.75331  -6.75237  -1.36275  -1.06661  -0.81315
 Alpha  occ. eigenvalues --   -0.66375  -0.63247  -0.56784  -0.54503  -0.43373
 Alpha  occ. eigenvalues --   -0.38185
 Alpha virt. eigenvalues --    0.04595   0.15585   0.16830   0.19830   0.21554
 Alpha virt. eigenvalues --    0.27491   0.31870   0.32524   0.43036   0.43167
 Alpha virt. eigenvalues --    0.43433   0.47714   0.54422   0.56359   0.58167
 Alpha virt. eigenvalues --    0.59401   0.61971   0.69216   0.71293   0.75177
 Alpha virt. eigenvalues --    0.80329   0.83503   0.88004   0.99039   1.02461
 Alpha virt. eigenvalues --    1.11930   1.13498   1.19041   1.22614   1.54536
 Alpha virt. eigenvalues --    1.60605   1.67810   1.69342   1.72879   1.72924
 Alpha virt. eigenvalues --    1.74107   1.79780   1.82671   1.83858   1.87082
 Alpha virt. eigenvalues --    1.90228   1.93938   1.99334   2.00557   2.01152
 Alpha virt. eigenvalues --    2.04613   2.08680   2.17807   2.30827   2.37568
 Alpha virt. eigenvalues --    2.38936   2.45242   2.50909   2.59933   2.61487
 Alpha virt. eigenvalues --    2.67654   2.74319   2.80988   2.85813   2.96028
 Alpha virt. eigenvalues --    3.05851   3.16986   3.27981   3.28935   3.31271
 Alpha virt. eigenvalues --    3.40878   3.44164   3.49921   3.56171   3.65448
 Alpha virt. eigenvalues --    3.74837   3.76494   3.94705   4.00370   4.25622
 Alpha virt. eigenvalues --    4.44659   4.73342   5.61235   5.61285   5.68329
 Alpha virt. eigenvalues --    5.70536   5.83364   5.93985   6.00364   6.82081
 Alpha virt. eigenvalues --    6.83972   7.16239   7.22210   7.40060   9.46269
 Alpha virt. eigenvalues --    9.78303  10.15535  21.41877  22.96931  44.95360
  Beta  occ. eigenvalues --  -92.08116 -20.54204 -11.29993  -9.07205  -6.75340
  Beta  occ. eigenvalues --   -6.75331  -6.75237  -1.36275  -1.06661  -0.81315
  Beta  occ. eigenvalues --   -0.66375  -0.63247  -0.56784  -0.54503  -0.43373
  Beta  occ. eigenvalues --   -0.38185
  Beta virt. eigenvalues --    0.04595   0.15585   0.16830   0.19830   0.21554
  Beta virt. eigenvalues --    0.27491   0.31870   0.32524   0.43036   0.43167
  Beta virt. eigenvalues --    0.43433   0.47714   0.54422   0.56359   0.58167
  Beta virt. eigenvalues --    0.59401   0.61971   0.69216   0.71293   0.75177
  Beta virt. eigenvalues --    0.80329   0.83503   0.88004   0.99039   1.02461
  Beta virt. eigenvalues --    1.11930   1.13498   1.19041   1.22614   1.54536
  Beta virt. eigenvalues --    1.60605   1.67810   1.69342   1.72879   1.72924
  Beta virt. eigenvalues --    1.74107   1.79780   1.82671   1.83858   1.87082
  Beta virt. eigenvalues --    1.90228   1.93938   1.99334   2.00557   2.01152
  Beta virt. eigenvalues --    2.04613   2.08680   2.17807   2.30827   2.37568
  Beta virt. eigenvalues --    2.38936   2.45242   2.50909   2.59933   2.61487
  Beta virt. eigenvalues --    2.67654   2.74319   2.80988   2.85813   2.96028
  Beta virt. eigenvalues --    3.05851   3.16986   3.27981   3.28935   3.31271
  Beta virt. eigenvalues --    3.40878   3.44164   3.49921   3.56171   3.65448
  Beta virt. eigenvalues --    3.74837   3.76494   3.94705   4.00370   4.25622
  Beta virt. eigenvalues --    4.44659   4.73342   5.61235   5.61285   5.68329
  Beta virt. eigenvalues --    5.70536   5.83364   5.93985   6.00364   6.82081
  Beta virt. eigenvalues --    6.83972   7.16239   7.22210   7.40060   9.46269
  Beta virt. eigenvalues --    9.78303  10.15535  21.41877  22.96931  44.95360
          Condensed to atoms (all electrons):
               1          2          3          4          5
     1  C    5.023005   0.589296  -0.058196   0.382144   0.415844
     2  S    0.589296  14.474988   0.374838  -0.018745  -0.033617
     3  O   -0.058196   0.374838   8.290124   0.003168   0.002208
     4  H    0.382144  -0.018745   0.003168   0.485420  -0.016694
     5  H    0.415844  -0.033617   0.002208  -0.016694   0.445969
          Atomic-Atomic Spin Densities.
               1          2          3          4          5
     1  C    0.000000   0.000000   0.000000   0.000000   0.000000
     2  S    0.000000   0.000000   0.000000   0.000000   0.000000
     3  O    0.000000   0.000000   0.000000   0.000000   0.000000
     4  H    0.000000   0.000000   0.000000   0.000000   0.000000
     5  H    0.000000   0.000000   0.000000   0.000000   0.000000
 Mulliken charges and spin densities:
               1          2
     1  C   -0.352094   0.000000
     2  S    0.613239   0.000000
     3  O   -0.612142   0.000000
     4  H    0.164707   0.000000
     5  H    0.186290   0.000000
 Sum of Mulliken charges =  -0.00000   0.00000
 Mulliken charges and spin densities with hydrogens summed into heavy atoms:
               1          2
     1  C   -0.001097   0.000000
     2  S    0.613239   0.000000
     3  O   -0.612142   0.000000
 Electronic spatial extent (au):  <R**2>=            830.0614
 Charge=             -0.0000 electrons
 Dipole moment (field-independent basis, Debye):
    X=             -2.8571    Y=              1.3292    Z=              2.3268  Tot=              3.9171
 Quadrupole moment (field-independent basis, Debye-Ang):
   XX=            -35.7141   YY=            -25.7701   ZZ=            -27.8270
   XY=              4.5289   XZ=              8.1176   YZ=             -1.5702
 Traceless Quadrupole moment (field-independent basis, Debye-Ang):
   XX=             -5.9437   YY=              4.0003   ZZ=              1.9434
   XY=              4.5289   XZ=              8.1176   YZ=             -1.5702
 Octapole moment (field-independent basis, Debye-Ang**2):
  XXX=           -205.0234  YYY=             14.2718  ZZZ=             34.2968  XYY=            -58.5744
  XXY=             19.2661  XXZ=             36.0872  XZZ=            -68.5719  YZZ=              7.8544
  YYZ=             11.2671  XYZ=             -7.8772
 Hexadecapole moment (field-independent basis, Debye-Ang**3):
 XXXX=          -1023.0136 YYYY=            -47.9045 ZZZZ=           -100.1801 XXXY=             89.9670
 XXXZ=            171.0313 YYYX=             44.1871 YYYZ=            -18.8464 ZZZX=            102.1075
 ZZZY=            -20.8930 XXYY=           -165.3906 XXZZ=           -206.7561 YYZZ=            -25.2031
 XXYZ=            -32.4389 YYXZ=             33.2942 ZZXY=             24.2762
 N-N= 1.027536228800D+02 E-N=-1.419975076104D+03  KE= 5.110768798213D+02
                          Isotropic Fermi Contact Couplings
        Atom                 a.u.       MegaHertz       Gauss      10(-4) cm-1
     1  C(13)              0.00000       0.00000       0.00000       0.00000
     2  S(33)              0.00000       0.00000       0.00000       0.00000
     3  O(17)              0.00000      -0.00000      -0.00000      -0.00000
     4  H(1)               0.00000       0.00000       0.00000       0.00000
     5  H(1)               0.00000       0.00000       0.00000       0.00000
 --------------------------------------------------------
       Center         ----  Spin Dipole Couplings  ----
                      3XX-RR        3YY-RR        3ZZ-RR
 --------------------------------------------------------
     1   Atom        0.000000      0.000000      0.000000
     2   Atom        0.000000      0.000000      0.000000
     3   Atom        0.000000      0.000000      0.000000
     4   Atom        0.000000      0.000000      0.000000
     5   Atom        0.000000      0.000000      0.000000
 --------------------------------------------------------
                        XY            XZ            YZ
 --------------------------------------------------------
     1   Atom        0.000000      0.000000      0.000000
     2   Atom        0.000000      0.000000      0.000000
     3   Atom        0.000000      0.000000      0.000000
     4   Atom        0.000000      0.000000      0.000000
     5   Atom        0.000000      0.000000      0.000000
 --------------------------------------------------------


 ---------------------------------------------------------------------------------
              Anisotropic Spin Dipole Couplings in Principal Axis System
 ---------------------------------------------------------------------------------

       Atom             a.u.   MegaHertz   Gauss  10(-4) cm-1        Axes

              Baa     0.0000     0.000     0.000     0.000  1.0000  0.0000  0.0000
     1 C(13)  Bbb     0.0000     0.000     0.000     0.000 -0.0000  1.0000  0.0000
              Bcc     0.0000     0.000     0.000     0.000  0.0000  0.0000  1.0000
 
              Baa     0.0000     0.000     0.000     0.000  1.0000  0.0000  0.0000
     2 S(33)  Bbb     0.0000     0.000     0.000     0.000 -0.0000  1.0000  0.0000
              Bcc     0.0000     0.000     0.000     0.000  0.0000  0.0000  1.0000
 
              Baa     0.0000    -0.000    -0.000    -0.000  1.0000  0.0000  0.0000
     3 O(17)  Bbb     0.0000    -0.000    -0.000    -0.000 -0.0000  1.0000  0.0000
              Bcc     0.0000    -0.000    -0.000    -0.000  0.0000  0.0000  1.0000
 
              Baa     0.0000     0.000     0.000     0.000  1.0000  0.0000  0.0000
     4 H(1)   Bbb     0.0000     0.000     0.000     0.000 -0.0000  1.0000  0.0000
              Bcc     0.0000     0.000     0.000     0.000  0.0000  0.0000  1.0000
 
              Baa     0.0000     0.000     0.000     0.000  1.0000  0.0000  0.0000
     5 H(1)   Bbb     0.0000     0.000     0.000     0.000 -0.0000  1.0000  0.0000
              Bcc     0.0000     0.000     0.000     0.000  0.0000  0.0000  1.0000
 

 ---------------------------------------------------------------------------------

 No NMR shielding tensors so no spin-rotation constants.
 Leave Link  601 at Tue Jan  3 09:07:34 2023, MaxMem=   536870912 cpu:               0.3 elap:               0.2
 (Enter /opt/software/gaussian/g16.c01/l801.exe)
 Range of M.O.s used for correlation:     1   111
 NBasis=   111 NAE=    16 NBE=    16 NFC=     0 NFV=     0
 NROrb=    111 NOA=    16 NOB=    16 NVA=    95 NVB=    95
 Leave Link  801 at Tue Jan  3 09:07:34 2023, MaxMem=   536870912 cpu:               0.1 elap:               0.0
 (Enter /opt/software/gaussian/g16.c01/l914.exe)
 UHF ground state
 Doing stability rather than CIS.
 Keep R1 and R2 ints in memory in canonical form, NReq=40642938.
 FoFCou: FMM=F IPFlag=           0 FMFlag=           0 FMFlg1=           0
         NFxFlg=           0 DoJE=F BraDBF=F KetDBF=F FulRan=T
         wScrn=  0.000000 ICntrl=       600 IOpCl=  0 I1Cent=           0 NGrid=           0
         NMat0=    1 NMatS0=   6216 NMatT0=    0 NMatD0=    1 NMtDS0=    0 NMtDT0=    0
 Symmetry not used in FoFCou.
 Two-electron integral symmetry not used.
 MDV=   536870912 DFT=F DoStab=T Mixed=F DoRPA=F DoScal=F NonHer=F
 Making orbital integer symmetry assigments:
    12 initial guesses have been made.
 Convergence on wavefunction:    0.001000000000000
 Davidson Disk Diagonalization:  ConvIn= 1.00D-03 SkipCon=T Conv= 1.00D-03.
 Max sub-space:  2000 roots to seek:    12 dimension of matrix:         3040
 Iteration     1 Dimension    12 NMult     0 NNew     12
 CISAX will form    12 AO SS matrices at one time.
 NMat=    12 NSing=    12 JSym2X= 0.
 New state      1 was old state      2
 Excitation Energies [eV] at current iteration:
 Root      1 :    -0.120545073123666
 Root      2 :     3.856201465733151
 Root      3 :     5.904381106613912
 Root      4 :     6.242516114067514
 Root      5 :     6.354193771555174
 Root      6 :     7.002872958801903
 Root      7 :     7.317098872912835
 Root      8 :     8.005373722650031
 Root      9 :     8.334499727615936
 Root     10 :     9.262245242500416
 Root     11 :    10.483207739950895
 Root     12 :    13.345525437893453
 Iteration     2 Dimension    24 NMult    12 NNew     12
 CISAX will form    12 AO SS matrices at one time.
 NMat=    12 NSing=    12 JSym2X= 0.
 Root      1 not converged, maximum delta is    0.074115639313908
 Excitation Energies [eV] at current iteration:
 Root      1 :    -1.203922542484158   Change is   -1.083377469360492
 Root      2 :     2.490116539282068   Change is   -1.366084926451083
 Root      3 :     4.698893694315252   Change is   -1.543622419752261
 Root      4 :     4.987968368946470   Change is   -0.916412737667442
 Root      5 :     5.141620706458653   Change is   -1.212573065096521
 Root      6 :     5.382155598127048   Change is   -1.620717360674855
 Root      7 :     5.466794492021741   Change is   -5.016413247929155
 Root      8 :     6.609710972858675   Change is   -0.707387900054160
 Root      9 :     6.956906485828636   Change is   -1.048467236821395
 Root     10 :     8.093382983215538   Change is   -0.241116744400398
 Root     11 :     8.705882132367696   Change is   -0.556363110132719
 Root     12 :     9.721183782833691   Change is   -3.624341655059762
 Iteration     3 Dimension    27 NMult    24 NNew      3
 CISAX will form     3 AO SS matrices at one time.
 NMat=     3 NSing=     3 JSym2X= 0.
 Root      1 not converged, maximum delta is    0.011679193321471
 Excitation Energies [eV] at current iteration:
 Root      1 :    -1.249323251605915   Change is   -0.045400709121757
 Root      2 :     2.359228799693356   Change is   -0.130887739588713
 Root      3 :     4.570063780041861   Change is   -0.128829914273392
 Iteration     4 Dimension    30 NMult    27 NNew      3
 CISAX will form     3 AO SS matrices at one time.
 NMat=     3 NSing=     3 JSym2X= 0.
 Root      1 not converged, maximum delta is    0.002862079648935
 Excitation Energies [eV] at current iteration:
 Root      1 :    -1.253637820823153   Change is   -0.004314569217238
 Root      2 :     2.334985059271641   Change is   -0.024243740421714
 Root      3 :     4.549104119802660   Change is   -0.020959660239201
 Iteration     5 Dimension    33 NMult    30 NNew      3
 CISAX will form     3 AO SS matrices at one time.
 NMat=     3 NSing=     3 JSym2X= 0.
 Root      1 has converged.
 Excitation Energies [eV] at current iteration:
 Root      1 :    -1.253991154029554   Change is   -0.000353333206401
 Root      2 :     2.331815125250915   Change is   -0.003169934020727
 Root      3 :     4.541289864448450   Change is   -0.007814255354210
 Convergence achieved on expansion vectors.
 ***********************************************************************
 Stability analysis using <AA,BB:AA,BB> singles matrix:
 ***********************************************************************
 1PDM for each excited state written to RWF  633
 Ground to excited state transition densities written to RWF  633

 Eigenvectors of the stability matrix:
 
 Excited state symmetry could not be determined.
 Eigenvector   1:  3.000-?Sym  Eigenvalue=-0.0460833  <S**2>=2.000
     13A -> 17A       -0.11885
     16A -> 17A        0.66032
     16A -> 26A       -0.13055
     13B -> 17B        0.11885
     16B -> 17B       -0.66032
     16B -> 26B        0.13055
 The wavefunction has an internal instability.
 Leave Link  914 at Tue Jan  3 09:07:37 2023, MaxMem=   536870912 cpu:               4.2 elap:               2.1
 (Enter /opt/software/gaussian/g16.c01/l508.exe)
 Keep R1 and R2 ints in memory in canonical form, NReq=40642998.
 FoFCou: FMM=F IPFlag=           0 FMFlag=           0 FMFlg1=           0
         NFxFlg=           0 DoJE=F BraDBF=F KetDBF=F FulRan=T
         wScrn=  0.000000 ICntrl=       600 IOpCl=  0 I1Cent=           0 NGrid=           0
         NMat0=    1 NMatS0=   6216 NMatT0=    0 NMatD0=    1 NMtDS0=    0 NMtDT0=    0
 Symmetry not used in FoFCou.
 Two-electron integral symmetry not used.
 Very tight linear equation convergence will be used.
 UHF wavefunction.
 Quadratic Convergence SCF Method.
 Line search only if initial step raises energy.
 Perform preliminary linear searches along instability eigenvector.
     ILin= 1 X=0.000D+00 Y=-5.114169003545D+02 DE= 0.00D+00
     ILin= 2 X=1.000D-01 Y=-5.114173485751D+02 DE=-4.48D-04
     ILin= 3 X=1.414D-01 Y=-5.114177718749D+02 DE=-8.72D-04
     ILin= 4 X=2.000D-01 Y=-5.114185445609D+02 DE=-1.64D-03
     ILin= 5 X=2.828D-01 Y=-5.114198001423D+02 DE=-2.90D-03
     ILin= 6 X=4.000D-01 Y=-5.114211980940D+02 DE=-4.30D-03
     ILin= 7 X=5.657D-01 Y=-5.114198936105D+02 DE=-2.99D-03
     An  expanding polynomial of degree  7 produced  0.4468
 Iteration F X= 4.468D-01 EE=-5.114213659773427D+02
     ILin= 1 X=0.000D+00 Y=-5.114169003545D+02 DE= 0.00D+00
     ILin= 2 X=1.000D-01 Y=-5.114173485742D+02 DE=-4.48D-04
     ILin= 3 X=1.414D-01 Y=-5.114177718724D+02 DE=-8.72D-04
 The two search directions are symmetric.
 Iteration B X= 4.468D-01 EE=-5.114213659773427D+02
 Take forward step, X= 4.468D-01 Step= 4.468D-01
 Iteration   1 EE= -511.421366079985                                    Grad=2.674D-02 Max rot=    0.4635 deg.
 Gradient too large for Newton-Raphson -- use scaled steepest descent instead.
 Alpha Gap=     0.475 HL deriv= 4.07D-04
  Beta Gap=     0.472 HL deriv= 1.97D-03
     ILin= 1 X=0.000D+00 Y=-5.114213660800D+02 DE= 0.00D+00 F= -1.14D-03
     ILin= 2 X=3.000D-01 Y=-5.114216724544D+02 DE=-3.06D-04 F= -9.01D-04 OKLS=F
     ILin= 3 X=6.000D-01 Y=-5.114219068948D+02 DE=-5.41D-04 F= -6.62D-04
     ILin= 4 X=1.200D+00 Y=-5.114221604772D+02 DE=-7.94D-04 F= -1.84D-04
     ILin= 5 X=2.400D+00 Y=-5.114218100952D+02 DE=-4.44D-04 F=  7.67D-04
     An  expanding polynomial of degree  5 produced  1.4314
 Iteration   2 EE= -511.422181743671     Delta-E=       -0.000815663686 Grad=1.231D-02 Max rot=    0.2235 deg.
 Gradient too large for Newton-Raphson -- use scaled steepest descent instead.
 Alpha Gap=     0.472 HL deriv= 3.51D-03
  Beta Gap=     0.470 HL deriv= 6.75D-03
     ILin= 1 X=0.000D+00 Y=-5.114221817437D+02 DE= 0.00D+00 F= -2.33D-04
     ILin= 2 X=7.000D-01 Y=-5.114222859516D+02 DE=-1.04D-04 F= -6.44D-05 OKLS=T
     Reject lnstep IMin12=  1  2 Big=T Turn=F Min= 1.138D+00 FVal=-5.114223152640D+02 Lims=  0.00D+00  7.00D-01
     ILin= 3 X=1.300D+00 Y=-5.114222810825D+02 DE=-9.93D-05 F=  8.07D-05
     An  expanding polynomial of degree  3 produced  0.9664
 Iteration   3 EE= -511.422294532303     Delta-E=       -0.000112788631 Grad=8.921D-03 Max rot=    0.1153 deg.
 QCNR:  CnvC1=5.51D-10 CnvC2=5.51D-09
 LinEq1:  Iter=  0 NonCon=     1 RMS=1.54D-04 Max=4.79D-03 NDo=     1
 AX will form     1 AO Fock derivatives at one time.
 LinEq1:  Iter=  1 NonCon=     1 RMS=1.34D-04 Max=4.31D-03 NDo=     1
 LinEq1:  Iter=  2 NonCon=     1 RMS=2.64D-05 Max=5.72D-04 NDo=     1
 LinEq1:  Iter=  3 NonCon=     1 RMS=1.37D-05 Max=3.96D-04 NDo=     1
 LinEq1:  Iter=  4 NonCon=     1 RMS=3.17D-06 Max=7.75D-05 NDo=     1
 LinEq1:  Iter=  5 NonCon=     1 RMS=1.39D-06 Max=2.77D-05 NDo=     1
 LinEq1:  Iter=  6 NonCon=     1 RMS=4.29D-07 Max=8.34D-06 NDo=     1
 LinEq1:  Iter=  7 NonCon=     1 RMS=8.14D-08 Max=1.09D-06 NDo=     1
 LinEq1:  Iter=  8 NonCon=     1 RMS=2.31D-08 Max=2.58D-07 NDo=     1
 LinEq1:  Iter=  9 NonCon=     1 RMS=6.18D-09 Max=8.82D-08 NDo=     1
 LinEq1:  Iter= 10 NonCon=     1 RMS=1.04D-09 Max=1.06D-08 NDo=     1
 LinEq1:  Iter= 11 NonCon=     0 RMS=2.38D-10 Max=2.94D-09 NDo=     1
 Linear equations converged to 5.514D-10 5.514D-09 after    11 iterations.
 Angle between quadratic step and gradient=  60.02 degrees.
     ILin= 1 X=0.000D+00 Y=-5.114222945323D+02 DE= 0.00D+00 F= -6.08D-04
     ILin= 2 X=1.000D+00 Y=-5.114225847059D+02 DE=-2.90D-04 F=  4.27D-05 OKLS=T
     Accept linear search using points  1 and  2.
     An  expanding polynomial of degree  2 produced  0.9385
     Minimum is close to point  2 DX= -6.15D-02 DF= -1.31D-06 DXR=  6.56D-02 DFR=  4.52D-03 which will be used.
 Iteration   4 EE= -511.422584705872     Delta-E=       -0.000290173569 Grad=1.046D-03 Max rot=    0.0278 deg.
 QCNR:  CnvC1=5.51D-10 CnvC2=5.51D-09
 LinEq1:  Iter=  0 NonCon=     1 RMS=2.59D-05 Max=8.89D-04 NDo=     1
 LinEq1:  Iter=  1 NonCon=     1 RMS=7.70D-06 Max=1.44D-04 NDo=     1
 LinEq1:  Iter=  2 NonCon=     1 RMS=5.42D-06 Max=1.50D-04 NDo=     1
 LinEq1:  Iter=  3 NonCon=     1 RMS=1.34D-06 Max=2.76D-05 NDo=     1
 LinEq1:  Iter=  4 NonCon=     1 RMS=6.67D-07 Max=1.98D-05 NDo=     1
 LinEq1:  Iter=  5 NonCon=     1 RMS=2.07D-07 Max=3.70D-06 NDo=     1
 LinEq1:  Iter=  6 NonCon=     1 RMS=7.59D-08 Max=1.37D-06 NDo=     1
 LinEq1:  Iter=  7 NonCon=     1 RMS=2.45D-08 Max=3.33D-07 NDo=     1
 LinEq1:  Iter=  8 NonCon=     1 RMS=5.40D-09 Max=5.67D-08 NDo=     1
 LinEq1:  Iter=  9 NonCon=     1 RMS=1.45D-09 Max=1.73D-08 NDo=     1
 LinEq1:  Iter= 10 NonCon=     0 RMS=3.99D-10 Max=4.57D-09 NDo=     1
 Linear equations converged to 5.514D-10 5.514D-09 after    10 iterations.
 Angle between quadratic step and gradient=  43.80 degrees.
     ILin= 1 X=0.000D+00 Y=-5.114225847059D+02 DE= 0.00D+00 F= -9.27D-06
     ILin= 2 X=1.000D+00 Y=-5.114225893755D+02 DE=-4.67D-06 F= -1.04D-07 OKLS=T
     Reject lnstep IMin12=  1  2 Big=T Turn=F Min= 1.011D+00 FVal=-5.114225893761D+02 Lims=  0.00D+00  1.00D+00
     ILin= 3 X=2.000D+00 Y=-5.114225849824D+02 DE=-2.77D-07 F=  8.86D-06
     An  expanding polynomial of degree  3 produced  1.0153
     Minimum is close to point  2 DX=  1.53D-02 DF= -1.05D-09 DXR=  1.50D-02 DFR=  2.26D-04 which will be used.
 Iteration   5 EE= -511.422589375470     Delta-E=       -0.000004669598 Grad=1.140D-05 Max rot=    0.0003 deg.
 QCNR:  CnvC1=1.14D-10 CnvC2=1.14D-09
 LinEq1:  Iter=  0 NonCon=     1 RMS=3.15D-07 Max=1.12D-05 NDo=     1
 LinEq1:  Iter=  1 NonCon=     1 RMS=5.87D-08 Max=8.21D-07 NDo=     1
 LinEq1:  Iter=  2 NonCon=     1 RMS=3.26D-08 Max=7.54D-07 NDo=     1
 LinEq1:  Iter=  3 NonCon=     1 RMS=1.40D-08 Max=1.77D-07 NDo=     1
 LinEq1:  Iter=  4 NonCon=     1 RMS=7.02D-09 Max=1.80D-07 NDo=     1
 LinEq1:  Iter=  5 NonCon=     1 RMS=1.76D-09 Max=2.65D-08 NDo=     1
 LinEq1:  Iter=  6 NonCon=     1 RMS=5.82D-10 Max=1.00D-08 NDo=     1
 LinEq1:  Iter=  7 NonCon=     1 RMS=2.07D-10 Max=2.46D-09 NDo=     1
 LinEq1:  Iter=  8 NonCon=     0 RMS=7.43D-11 Max=9.64D-10 NDo=     1
 Linear equations converged to 1.140D-10 1.140D-09 after     8 iterations.
 Angle between quadratic step and gradient=  41.21 degrees.
     ILin= 1 X=0.000D+00 Y=-5.114225893755D+02 DE= 0.00D+00 F= -1.89D-09
     ILin= 2 X=1.000D+00 Y=-5.114225893764D+02 DE=-9.48D-10
 Iteration   6 EE= -511.422589376418     Delta-E=       -0.000000000948 Grad=3.190D-07 Max rot=    0.0000 deg.
 Rotation gradient small -- convergence achieved.
 SCF Done:  E(UHF) =  -511.422589376     a.u. after    6 cycles
            Convg  =    0.3190D-06                    50 Fock formations.
              S**2 =  0.4380                  -V/T =  2.0004
 <Sx>= 0.0000 <Sy>= 0.0000 <Sz>= 0.0000 <S**2>= 0.4380 S= 0.3294
 <L.S>=  0.00000000000    
 Annihilation of the first spin contaminant:
 S**2 before annihilation     0.4380,   after     0.0427
 Leave Link  508 at Tue Jan  3 09:07:41 2023, MaxMem=   536870912 cpu:               5.5 elap:               4.4
 (Enter /opt/software/gaussian/g16.c01/l801.exe)
 Range of M.O.s used for correlation:     1   111
 NBasis=   111 NAE=    16 NBE=    16 NFC=     0 NFV=     0
 NROrb=    111 NOA=    16 NOB=    16 NVA=    95 NVB=    95
 Leave Link  801 at Tue Jan  3 09:07:41 2023, MaxMem=   536870912 cpu:               0.1 elap:               0.1
 (Enter /opt/software/gaussian/g16.c01/l914.exe)
 UHF ground state
 Doing stability rather than CIS.
 Keep R1 and R2 ints in memory in canonical form, NReq=40642938.
 FoFCou: FMM=F IPFlag=           0 FMFlag=           0 FMFlg1=           0
         NFxFlg=           0 DoJE=F BraDBF=F KetDBF=F FulRan=T
         wScrn=  0.000000 ICntrl=       600 IOpCl=  0 I1Cent=           0 NGrid=           0
         NMat0=    1 NMatS0=   6216 NMatT0=    0 NMatD0=    1 NMtDS0=    0 NMtDT0=    0
 Symmetry not used in FoFCou.
 Two-electron integral symmetry not used.
 MDV=   536870912 DFT=F DoStab=T Mixed=F DoRPA=F DoScal=F NonHer=F
 Making orbital integer symmetry assigments:
    12 initial guesses have been made.
 Convergence on wavefunction:    0.001000000000000
 Davidson Disk Diagonalization:  ConvIn= 1.00D-03 SkipCon=T Conv= 1.00D-03.
 Max sub-space:  2000 roots to seek:    12 dimension of matrix:         3040
 Iteration     1 Dimension    12 NMult     0 NNew     12
 CISAX will form    12 AO SS matrices at one time.
 NMat=    12 NSing=    12 JSym2X= 0.
 Excitation Energies [eV] at current iteration:
 Root      1 :     3.400457625680175
 Root      2 :     3.895402909565675
 Root      3 :     6.493459795475123
 Root      4 :     6.586084833487097
 Root      5 :     7.003377720255489
 Root      6 :     7.271550735245901
 Root      7 :     7.355698711551458
 Root      8 :     8.879538995589176
 Root      9 :     9.949052992749248
 Root     10 :    10.141697500445860
 Root     11 :    10.270053981921546
 Root     12 :    10.294541163317582
 Iteration     2 Dimension    24 NMult    12 NNew     12
 CISAX will form    12 AO SS matrices at one time.
 NMat=    12 NSing=    12 JSym2X= 0.
 Root      1 not converged, maximum delta is    0.174619479055442
 Excitation Energies [eV] at current iteration:
 Root      1 :     2.142406826789749   Change is   -1.258050798890425
 Root      2 :     2.702034533603268   Change is   -1.193368375962407
 Root      3 :     4.025206996338561   Change is   -2.560877837148535
 Root      4 :     5.149877073688675   Change is   -1.343582721786448
 Root      5 :     5.513982378291043   Change is   -1.841716333260415
 Root      6 :     5.837063188046953   Change is   -1.166314532208536
 Root      7 :     6.251594569157215   Change is   -1.019956166088685
 Root      8 :     7.534999753666392   Change is   -2.759541409651191
 Root      9 :     7.803470014017898   Change is   -1.076068981571278
 Root     10 :     8.341787854300204   Change is   -1.607265138449043
 Root     11 :     9.054551991036641   Change is   -1.215501990884904
 Root     12 :     9.173134882367068   Change is   -0.968562618078793
 Iteration     3 Dimension    27 NMult    24 NNew      3
 CISAX will form     3 AO SS matrices at one time.
 NMat=     3 NSing=     3 JSym2X= 0.
 Root      1 not converged, maximum delta is    0.084309841867366
 Excitation Energies [eV] at current iteration:
 Root      1 :     1.909084805500329   Change is   -0.233322021289420
 Root      2 :     2.646608754824071   Change is   -0.055425778779196
 Root      3 :     3.529893961808798   Change is   -0.495313034529763
 Iteration     4 Dimension    30 NMult    27 NNew      3
 CISAX will form     3 AO SS matrices at one time.
 NMat=     3 NSing=     3 JSym2X= 0.
 Root      1 not converged, maximum delta is    0.013782611514100
 Excitation Energies [eV] at current iteration:
 Root      1 :     1.871352213615347   Change is   -0.037732591884983
 Root      2 :     2.642997304206848   Change is   -0.003611450617224
 Root      3 :     3.474745890226226   Change is   -0.055148071582573
 Iteration     5 Dimension    33 NMult    30 NNew      3
 CISAX will form     3 AO SS matrices at one time.
 NMat=     3 NSing=     3 JSym2X= 0.
 Root      1 not converged, maximum delta is    0.005826901777957
 Excitation Energies [eV] at current iteration:
 Root      1 :     1.863861510692290   Change is   -0.007490702923057
 Root      2 :     2.642481708022551   Change is   -0.000515596184296
 Root      3 :     3.466841614350677   Change is   -0.007904275875549
 Iteration     6 Dimension    36 NMult    33 NNew      3
 CISAX will form     3 AO SS matrices at one time.
 NMat=     3 NSing=     3 JSym2X= 0.
 Root      1 not converged, maximum delta is    0.002561326301487
 Excitation Energies [eV] at current iteration:
 Root      1 :     1.862400607506030   Change is   -0.001460903186260
 Root      2 :     2.642418360869039   Change is   -0.000063347153512
 Root      3 :     3.465076782537310   Change is   -0.001764831813366
 Iteration     7 Dimension    39 NMult    36 NNew      3
 CISAX will form     3 AO SS matrices at one time.
 NMat=     3 NSing=     3 JSym2X= 0.
 Root      1 not converged, maximum delta is    0.001098894715235
 Excitation Energies [eV] at current iteration:
 Root      1 :     1.862183772355474   Change is   -0.000216835150555
 Root      2 :     2.642409227436201   Change is   -0.000009133432838
 Root      3 :     3.464608969550384   Change is   -0.000467812986926
 Iteration     8 Dimension    42 NMult    39 NNew      3
 CISAX will form     3 AO SS matrices at one time.
 NMat=     3 NSing=     3 JSym2X= 0.
 Root      1 has converged.
 Excitation Energies [eV] at current iteration:
 Root      1 :     1.862150365086197   Change is   -0.000033407269278
 Root      2 :     2.642408126613268   Change is   -0.000001100822933
 Root      3 :     3.464504657827429   Change is   -0.000104311722955
 Convergence achieved on expansion vectors.
 ***********************************************************************
 Stability analysis using <AA,BB:AA,BB> singles matrix:
 ***********************************************************************
 1PDM for each excited state written to RWF  633
 Ground to excited state transition densities written to RWF  633

 Eigenvectors of the stability matrix:
 
 Excited state symmetry could not be determined.
 Eigenvector   1:  2.349-?Sym  Eigenvalue= 0.0684328  <S**2>=1.129
     16A -> 17A        0.43192
     14B -> 17B       -0.13812
     14B -> 32B       -0.11814
     16B -> 17B        0.81675
     16B -> 26B       -0.11088
 The wavefunction is stable under the perturbations considered.
 Leave Link  914 at Tue Jan  3 09:07:44 2023, MaxMem=   536870912 cpu:               5.4 elap:               2.7
 (Enter /opt/software/gaussian/g16.c01/l508.exe)
 The wavefunction is already stable.
 Leave Link  508 at Tue Jan  3 09:07:44 2023, MaxMem=   536870912 cpu:               0.0 elap:               0.0
 (Enter /opt/software/gaussian/g16.c01/l601.exe)
 Copying SCF densities to generalized density rwf, IOpCl= 1 IROHF=0.

 **********************************************************************

            Population analysis using the SCF Density.

 **********************************************************************

 Alpha  occ. eigenvalues --  -92.06878 -20.56165 -11.27785  -9.06227  -6.75000
 Alpha  occ. eigenvalues --   -6.74321  -6.74110  -1.38471  -1.05922  -0.80960
 Alpha  occ. eigenvalues --   -0.65815  -0.63506  -0.61125  -0.55360  -0.44373
 Alpha  occ. eigenvalues --   -0.40548
 Alpha virt. eigenvalues --    0.07214   0.15841   0.16917   0.19870   0.21685
 Alpha virt. eigenvalues --    0.27519   0.32084   0.33957   0.43211   0.43584
 Alpha virt. eigenvalues --    0.44074   0.47954   0.53717   0.55972   0.58858
 Alpha virt. eigenvalues --    0.59575   0.62543   0.67766   0.71161   0.75128
 Alpha virt. eigenvalues --    0.80394   0.84823   0.88189   0.99027   1.02597
 Alpha virt. eigenvalues --    1.13409   1.14556   1.19571   1.22716   1.55363
 Alpha virt. eigenvalues --    1.60240   1.67274   1.69212   1.72937   1.73838
 Alpha virt. eigenvalues --    1.76054   1.80110   1.83299   1.84435   1.86345
 Alpha virt. eigenvalues --    1.90397   1.94272   1.99493   2.00344   2.01838
 Alpha virt. eigenvalues --    2.04174   2.08374   2.17763   2.31150   2.37649
 Alpha virt. eigenvalues --    2.39136   2.44554   2.51422   2.58240   2.61562
 Alpha virt. eigenvalues --    2.67958   2.74872   2.81400   2.86147   2.97125
 Alpha virt. eigenvalues --    3.06176   3.15226   3.27425   3.29723   3.30571
 Alpha virt. eigenvalues --    3.43311   3.45559   3.51205   3.57323   3.66826
 Alpha virt. eigenvalues --    3.76147   3.77274   3.95430   4.01083   4.25388
 Alpha virt. eigenvalues --    4.45163   4.74180   5.59142   5.59192   5.66740
 Alpha virt. eigenvalues --    5.68897   5.81614   5.93058   5.99260   6.79096
 Alpha virt. eigenvalues --    6.80985   7.13569   7.20907   7.38465   9.46616
 Alpha virt. eigenvalues --    9.79168  10.16249  21.42640  22.98782  44.93752
  Beta  occ. eigenvalues --  -92.06428 -20.54560 -11.29411  -9.05781  -6.74027
  Beta  occ. eigenvalues --   -6.73920  -6.73221  -1.35071  -1.07373  -0.80789
  Beta  occ. eigenvalues --   -0.66382  -0.63169  -0.54147  -0.53900  -0.43030
  Beta  occ. eigenvalues --   -0.39713
  Beta virt. eigenvalues --    0.06697   0.15506   0.16972   0.20040   0.21770
  Beta virt. eigenvalues --    0.27963   0.31237   0.32129   0.43043   0.43308
  Beta virt. eigenvalues --    0.43491   0.47793   0.55214   0.56683   0.57767
  Beta virt. eigenvalues --    0.60473   0.61899   0.70246   0.71172   0.75346
  Beta virt. eigenvalues --    0.80292   0.82801   0.87954   0.99198   1.02652
  Beta virt. eigenvalues --    1.11092   1.12848   1.19079   1.23074   1.54531
  Beta virt. eigenvalues --    1.60812   1.68321   1.70096   1.71103   1.73225
  Beta virt. eigenvalues --    1.75096   1.80873   1.82770   1.84321   1.88285
  Beta virt. eigenvalues --    1.90414   1.94479   1.99792   2.00795   2.01760
  Beta virt. eigenvalues --    2.06003   2.09396   2.18331   2.31415   2.37891
  Beta virt. eigenvalues --    2.39134   2.45250   2.50710   2.60905   2.61382
  Beta virt. eigenvalues --    2.67802   2.74322   2.81293   2.86092   2.95673
  Beta virt. eigenvalues --    3.05959   3.17375   3.27232   3.28705   3.30998
  Beta virt. eigenvalues --    3.39460   3.43436   3.49497   3.55752   3.64848
  Beta virt. eigenvalues --    3.74503   3.76394   3.94681   4.00356   4.25556
  Beta virt. eigenvalues --    4.44681   4.73428   5.61031   5.61080   5.68029
  Beta virt. eigenvalues --    5.70267   5.83324   5.93567   6.00166   6.82703
  Beta virt. eigenvalues --    6.84599   7.16724   7.21734   7.39872   9.48253
  Beta virt. eigenvalues --    9.79365  10.16515  21.43195  22.97661  44.94698
          Condensed to atoms (all electrons):
               1          2          3          4          5
     1  C    5.097926   0.493633  -0.051409   0.384680   0.416206
     2  S    0.493633  14.622853   0.366276  -0.019455  -0.034531
     3  O   -0.051409   0.366276   8.250538   0.003015   0.002328
     4  H    0.384680  -0.019455   0.003015   0.487810  -0.016086
     5  H    0.416206  -0.034531   0.002328  -0.016086   0.451560
          Atomic-Atomic Spin Densities.
               1          2          3          4          5
     1  C   -0.847778   0.036708   0.006689   0.006091   0.006599
     2  S    0.036708   0.503300  -0.131874  -0.002713  -0.001429
     3  O    0.006689  -0.131874   0.415289  -0.000056  -0.000418
     4  H    0.006091  -0.002713  -0.000056   0.046423  -0.001693
     5  H    0.006599  -0.001429  -0.000418  -0.001693   0.046957
 Mulliken charges and spin densities:
               1          2
     1  C   -0.341035  -0.791691
     2  S    0.571224   0.403992
     3  O   -0.570748   0.289631
     4  H    0.160036   0.048052
     5  H    0.180523   0.050016
 Sum of Mulliken charges =   0.00000   0.00000
 Mulliken charges and spin densities with hydrogens summed into heavy atoms:
               1          2
     1  C   -0.000476  -0.693622
     2  S    0.571224   0.403992
     3  O   -0.570748   0.289631
 Electronic spatial extent (au):  <R**2>=            829.6731
 Charge=              0.0000 electrons
 Dipole moment (field-independent basis, Debye):
    X=             -2.8095    Y=              1.2191    Z=              2.1341  Tot=              3.7328
 Quadrupole moment (field-independent basis, Debye-Ang):
   XX=            -35.7499   YY=            -25.5788   ZZ=            -27.4603
   XY=              4.1189   XZ=              7.3964   YZ=             -1.4359
 Traceless Quadrupole moment (field-independent basis, Debye-Ang):
   XX=             -6.1536   YY=              4.0175   ZZ=              2.1360
   XY=              4.1189   XZ=              7.3964   YZ=             -1.4359
 Octapole moment (field-independent basis, Debye-Ang**2):
  XXX=           -205.2245  YYY=             14.0246  ZZZ=             33.7019  XYY=            -58.3240
  XXY=             17.8474  XXZ=             33.6050  XZZ=            -67.4918  YZZ=              7.6853
  YYZ=             11.0804  XYZ=             -7.2273
 Hexadecapole moment (field-independent basis, Debye-Ang**3):
 XXXX=          -1022.6145 YYYY=            -47.0570 ZZZZ=            -98.8638 XXXY=             85.0191
 XXXZ=            162.3804 YYYX=             43.2802 YYYZ=            -18.6229 ZZZX=            100.0908
 ZZZY=            -20.7963 XXYY=           -165.1445 XXZZ=           -203.5029 YYZZ=            -24.8957
 XXYZ=            -30.0734 YYXZ=             32.6756 ZZXY=             23.7203
 N-N= 1.027536228800D+02 E-N=-1.420216951013D+03  KE= 5.112394174201D+02
                          Isotropic Fermi Contact Couplings
        Atom                 a.u.       MegaHertz       Gauss      10(-4) cm-1
     1  C(13)             -0.10992     -61.78318     -22.04578     -20.60865
     2  S(33)              0.15247      26.18502       9.34347       8.73438
     3  O(17)              0.10958     -33.21279     -11.85115     -11.07859
     4  H(1)               0.01602      35.81068      12.77814      11.94516
     5  H(1)               0.01713      38.27823      13.65862      12.76824
 --------------------------------------------------------
       Center         ----  Spin Dipole Couplings  ----
                      3XX-RR        3YY-RR        3ZZ-RR
 --------------------------------------------------------
     1   Atom        0.376012     -0.468824      0.092812
     2   Atom       -0.753630      1.127827     -0.374197
     3   Atom       -0.650197      0.841997     -0.191800
     4   Atom        0.039810     -0.010189     -0.029621
     5   Atom        0.025474     -0.006481     -0.018992
 --------------------------------------------------------
                        XY            XZ            YZ
 --------------------------------------------------------
     1   Atom        0.001305      0.002423      0.476641
     2   Atom        0.006860      0.011503     -1.273428
     3   Atom        0.010879      0.018626     -0.876427
     4   Atom        0.017380      0.030416     -0.016494
     5   Atom       -0.022797     -0.039889     -0.010609
 --------------------------------------------------------


 ---------------------------------------------------------------------------------
              Anisotropic Spin Dipole Couplings in Principal Axis System
 ---------------------------------------------------------------------------------

       Atom             a.u.   MegaHertz   Gauss  10(-4) cm-1        Axes

              Baa    -0.7412   -99.465   -35.491   -33.178  0.0001  0.8682 -0.4962
     1 C(13)  Bbb     0.3645    48.919    17.455    16.318 -0.2333  0.4825  0.8442
              Bcc     0.3767    50.546    18.036    16.860  0.9724  0.1157  0.2026
 
              Baa    -1.1021   -45.185   -16.123   -15.072 -0.0384  0.4956  0.8677
     2 S(33)  Bbb    -0.7531   -30.877   -11.018   -10.299  0.9993  0.0190  0.0334
              Bcc     1.8552    76.062    27.141    25.371  0.0001  0.8683 -0.4960
 
              Baa    -0.7015    50.758    18.112    16.931 -0.3877  0.4572  0.8004
     3 O(17)  Bbb    -0.6411    46.391    16.554    15.474  0.9218  0.1922  0.3367
              Bcc     1.3426   -97.150   -34.665   -32.406  0.0001  0.8683 -0.4960
 
              Baa    -0.0524   -27.938    -9.969    -9.319 -0.3553  0.4638  0.8116
     4 H(1)   Bbb    -0.0008    -0.407    -0.145    -0.136  0.0000  0.8682 -0.4962
              Bcc     0.0531    28.345    10.114     9.455  0.9348  0.1762  0.3085
 
              Baa    -0.0522   -27.863    -9.942    -9.294  0.5090  0.4270  0.7474
     5 H(1)   Bbb    -0.0004    -0.225    -0.080    -0.075  0.0001  0.8682 -0.4962
              Bcc     0.0526    28.088    10.022     9.369  0.8608 -0.2526 -0.4419
 

 ---------------------------------------------------------------------------------

 No NMR shielding tensors so no spin-rotation constants.
 Leave Link  601 at Tue Jan  3 09:07:44 2023, MaxMem=   536870912 cpu:               0.5 elap:               0.2
 (Enter /opt/software/gaussian/g16.c01/l9999.exe)

 Test job not archived.
 1\1\GINC-GRA607\Stability\UHF\Gen\C1H2O1S1\BHAVUK\03-Jan-2023\0\\#p uh
 f/gen stable=opt scf=(maxcycle=900,verytightlineq,xqc) integral=grid=u
 ltrafine symmetry=None density=current iop(99/18=-1) output=wfn\\0005_
 q000_m01_k00_opt_uwb97xd_def2svpd/0005_q000_m01_k00_force_uhf_def2tzvp
  stable-force\\0,1\C,0,0.9770245042,-0.0197961728,-0.1008273286\S,0,2.
 5880021429,-0.0345660623,-0.126439068\O,0,3.1712397907,-0.7143116203,-
 1.3164938758\H,0,0.5180717789,0.4715880124,0.7588975415\H,0,0.37080178
 81,-0.4702041579,-0.8890472689\\Version=ES64L-G16RevC.01\HF=-511.42258
 94\S2=0.437977\S2-1=0.\S2A=0.042668\RMSD=5.785e-09\Dipole=-1.1053362,0
 .4796447,0.8396188\Quadrupole=-4.5750138,2.9869329,1.5880809,3.0623095
 ,5.4990576,-1.0675744\PG=Unknown\\@

 Writing a WFN file to "0005_q000_m01_k00_force_uhf_def2tzvp.wfn"


 AN AIRPLANE IS A COLLECTION OF SPARE PARTS
 FLYING IN CLOSE FORMATION.
 Job cpu time:       0 days  0 hours  0 minutes 21.2 seconds.
 Elapsed time:       0 days  0 hours  0 minutes 12.3 seconds.
 File lengths (MBytes):  RWF=     93 Int=      0 D2E=      0 Chk=      3 Scr=      1
 Normal termination of Gaussian 16 at Tue Jan  3 09:07:44 2023.
 Initial command:
 /opt/software/gaussian/g16.c01/l1.exe "/localscratch/bhavuk.2151420.0/Gau-19864.inp" -scrdir="/localscratch/bhavuk.2151420.0/"
 Entering Link 1 = /opt/software/gaussian/g16.c01/l1.exe PID=     20164.
  
 Copyright (c) 1988-2019, Gaussian, Inc.  All Rights Reserved.
  
 This is part of the Gaussian(R) 16 program.  It is based on
 the Gaussian(R) 09 system (copyright 2009, Gaussian, Inc.),
 the Gaussian(R) 03 system (copyright 2003, Gaussian, Inc.),
 the Gaussian(R) 98 system (copyright 1998, Gaussian, Inc.),
 the Gaussian(R) 94 system (copyright 1995, Gaussian, Inc.),
 the Gaussian 92(TM) system (copyright 1992, Gaussian, Inc.),
 the Gaussian 90(TM) system (copyright 1990, Gaussian, Inc.),
 the Gaussian 88(TM) system (copyright 1988, Gaussian, Inc.),
 the Gaussian 86(TM) system (copyright 1986, Carnegie Mellon
 University), and the Gaussian 82(TM) system (copyright 1983,
 Carnegie Mellon University). Gaussian is a federally registered
 trademark of Gaussian, Inc.
  
 This software contains proprietary and confidential information,
 including trade secrets, belonging to Gaussian, Inc.
  
 This software is provided under written license and may be
 used, copied, transmitted, or stored only in accord with that
 written license.
  
 The following legend is applicable only to US Government
 contracts under FAR:
  
                    RESTRICTED RIGHTS LEGEND
  
 Use, reproduction and disclosure by the US Government is
 subject to restrictions as set forth in subparagraphs (a)
 and (c) of the Commercial Computer Software - Restricted
 Rights clause in FAR 52.227-19.
  
 Gaussian, Inc.
 340 Quinnipiac St., Bldg. 40, Wallingford CT 06492
  
  
 ---------------------------------------------------------------
 Warning -- This program may not be used in any manner that
 competes with the business of Gaussian, Inc. or will provide
 assistance to any competitor of Gaussian, Inc.  The licensee
 of this program is prohibited from giving any competitor of
 Gaussian, Inc. access to this program.  By using this program,
 the user acknowledges that Gaussian, Inc. is engaged in the
 business of creating and licensing software in the field of
 computational chemistry and represents and warrants to the
 licensee that it is not a competitor of Gaussian, Inc. and that
 it will not use this program in any manner prohibited above.
 ---------------------------------------------------------------
  

 Cite this work as:
 Gaussian 16, Revision C.01,
 M. J. Frisch, G. W. Trucks, H. B. Schlegel, G. E. Scuseria, 
 M. A. Robb, J. R. Cheeseman, G. Scalmani, V. Barone, 
 G. A. Petersson, H. Nakatsuji, X. Li, M. Caricato, A. V. Marenich, 
 J. Bloino, B. G. Janesko, R. Gomperts, B. Mennucci, H. P. Hratchian, 
 J. V. Ortiz, A. F. Izmaylov, J. L. Sonnenberg, D. Williams-Young, 
 F. Ding, F. Lipparini, F. Egidi, J. Goings, B. Peng, A. Petrone, 
 T. Henderson, D. Ranasinghe, V. G. Zakrzewski, J. Gao, N. Rega, 
 G. Zheng, W. Liang, M. Hada, M. Ehara, K. Toyota, R. Fukuda, 
 J. Hasegawa, M. Ishida, T. Nakajima, Y. Honda, O. Kitao, H. Nakai, 
 T. Vreven, K. Throssell, J. A. Montgomery, Jr., J. E. Peralta, 
 F. Ogliaro, M. J. Bearpark, J. J. Heyd, E. N. Brothers, K. N. Kudin, 
 V. N. Staroverov, T. A. Keith, R. Kobayashi, J. Normand, 
 K. Raghavachari, A. P. Rendell, J. C. Burant, S. S. Iyengar, 
 J. Tomasi, M. Cossi, J. M. Millam, M. Klene, C. Adamo, R. Cammi, 
 J. W. Ochterski, R. L. Martin, K. Morokuma, O. Farkas, 
 J. B. Foresman, and D. J. Fox, Gaussian, Inc., Wallingford CT, 2019.
 
 ******************************************
 Gaussian 16:  ES64L-G16RevC.01  3-Jul-2019
                 3-Jan-2023 
 ******************************************
 %chk=0005_q000_m01_k00_force_uhf_def2tzvp.chk
 %nprocshared=2
 Will use up to    2 processors via shared memory.
 %mem=4GB
 ----------------------------------------------------------------------
 #p uhf/chkbasis force guess=read geom=check scf=(maxcycle=900,verytigh
 tlineq,xqc) integral=grid=ultrafine symmetry=None density=current pop=
 (cm5,hlygat,mbs,npa) output=wfx
 ----------------------------------------------------------------------
 1/10=7,29=2,30=1,38=1/1,3;
 2/12=2,15=3,40=1/2;
 3/5=7,6=2,11=2,14=-4,25=1,30=1,67=1,71=1,75=-5,116=2/1,2,3;
 4/5=1/1;
 5/5=2,7=900,8=3,13=1,17=3,38=6/2,8;
 6/7=2,8=2,9=2,10=2,15=8,20=15,22=-1,27=100,28=1,40=-1,79=1/1,2,7;
 7/29=1,30=1/1,2,3,16;
 1/10=7,30=1/3;
 99/6=200/99;
 Leave Link    1 at Tue Jan  3 09:07:44 2023, MaxMem=   536870912 cpu:               0.2 elap:               0.1
 (Enter /opt/software/gaussian/g16.c01/l101.exe)
 ----------------------------------------------------------------------
 0005_q000_m01_k00_opt_uwb97xd_def2svpd/0005_q000_m01_k00_force_uhf_def
 2tzvp stable-force
 ----------------------------------------------------------------------
 Structure from the checkpoint file:  "0005_q000_m01_k00_force_uhf_def2tzvp.chk"
 Charge =  0 Multiplicity = 1
 Z-Matrix found in chk file.
 C,0,0.9770245042,-0.0197961728,-0.1008273286
 S,0,2.5880021429,-0.0345660623,-0.126439068
 O,0,3.1712397907,-0.7143116203,-1.3164938758
 H,0,0.5180717789,0.4715880124,0.7588975415
 H,0,0.3708017881,-0.4702041579,-0.8890472689
 Recover connectivity data from disk.
 ITRead=  0  0  0  0  0
 MicOpt= -1 -1 -1 -1 -1
 NAtoms=      5 NQM=        5 NQMF=       0 NMMI=      0 NMMIF=      0
                NMic=       0 NMicF=      0.
                    Isotopes and Nuclear Properties:
 (Nuclear quadrupole moments (NQMom) in fm**2, nuclear magnetic moments (NMagM)
  in nuclear magnetons)

  Atom         1           2           3           4           5
 IAtWgt=          12          32          16           1           1
 AtmWgt=  12.0000000  31.9720718  15.9949146   1.0078250   1.0078250
 NucSpn=           0           0           0           1           1
 AtZEff=   3.6000000  13.6000000   5.6000000   1.0000000   1.0000000
 NQMom=    0.0000000   0.0000000   0.0000000   0.0000000   0.0000000
 NMagM=    0.0000000   0.0000000   0.0000000   2.7928460   2.7928460
 AtZNuc=   6.0000000  16.0000000   8.0000000   1.0000000   1.0000000
 Leave Link  101 at Tue Jan  3 09:07:45 2023, MaxMem=   536870912 cpu:               0.4 elap:               0.2
 (Enter /opt/software/gaussian/g16.c01/l103.exe)

 GradGradGradGradGradGradGradGradGradGradGradGradGradGradGradGradGradGrad
 Berny optimization.
 Initialization pass.
 Trust Radius=3.00D-01 FncErr=1.00D-07 GrdErr=1.00D-07 EigMax=2.50D+02 EigMin=1.00D-04
 Number of steps in this run=      2 maximum allowed number of steps=      2.
 GradGradGradGradGradGradGradGradGradGradGradGradGradGradGradGradGradGrad

 Leave Link  103 at Tue Jan  3 09:07:45 2023, MaxMem=   536870912 cpu:               0.0 elap:               0.0
 (Enter /opt/software/gaussian/g16.c01/l202.exe)
                          Input orientation:                          
 ---------------------------------------------------------------------
 Center     Atomic      Atomic             Coordinates (Angstroms)
 Number     Number       Type             X           Y           Z
 ---------------------------------------------------------------------
      1          6           0        0.977025   -0.019796   -0.100827
      2         16           0        2.588002   -0.034566   -0.126439
      3          8           0        3.171240   -0.714312   -1.316494
      4          1           0        0.518072    0.471588    0.758898
      5          1           0        0.370802   -0.470204   -0.889047
 ---------------------------------------------------------------------
                    Distance matrix (angstroms):
                    1          2          3          4          5
     1  C    0.000000
     2  S    1.611249   0.000000
     3  O    2.602840   1.489446   0.000000
     4  H    1.091432   2.307515   3.571121   0.000000
     5  H    1.091634   2.384812   2.843370   1.903781   0.000000
 Symmetry turned off by external request.
 Stoichiometry    CH2OS
 Rotational constants (GHZ):          39.0370487           9.3459813           7.5406507
 Leave Link  202 at Tue Jan  3 09:07:45 2023, MaxMem=   536870912 cpu:               0.0 elap:               0.0
 (Enter /opt/software/gaussian/g16.c01/l301.exe)
 Basis read from chk: "0005_q000_m01_k00_force_uhf_def2tzvp.chk" (5D, 7F)
 No pseudopotential information found on chk file.
   111 basis functions,   187 primitive gaussians,   126 cartesian basis functions
    16 alpha electrons       16 beta electrons
       nuclear repulsion energy       102.7536228800 Hartrees.
 IExCor=    0 DFT=F Ex=HF Corr=None ExCW=0 ScaHFX=  1.000000
 ScaDFX=  1.000000  1.000000  1.000000  1.000000 ScalE2=  1.000000  1.000000
 IRadAn=      5 IRanWt=     -1 IRanGd=            0 ICorTp=0 IEmpDi=  4
 NAtoms=    5 NActive=    5 NUniq=    5 SFac= 1.00D+00 NAtFMM=   60 NAOKFM=F Big=F
 Integral buffers will be    131072 words long.
 Raffenetti 2 integral format.
 Two-electron integral symmetry is turned off.
 No density basis found on file  20724.
 Leave Link  301 at Tue Jan  3 09:07:45 2023, MaxMem=   536870912 cpu:               0.1 elap:               0.1
 (Enter /opt/software/gaussian/g16.c01/l302.exe)
 NPDir=0 NMtPBC=     1 NCelOv=     1 NCel=       1 NClECP=     1 NCelD=      1
         NCelK=      1 NCelE2=     1 NClLst=     1 CellRange=     0.0.
 One-electron integrals computed using PRISM.
 NBasis=   111 RedAO= T EigKep=  1.23D-03  NBF=   111
 NBsUse=   111 1.00D-06 EigRej= -1.00D+00 NBFU=   111
 Leave Link  302 at Tue Jan  3 09:07:45 2023, MaxMem=   536870912 cpu:               0.3 elap:               0.1
 (Enter /opt/software/gaussian/g16.c01/l303.exe)
 DipDrv:  MaxL=1.
 Leave Link  303 at Tue Jan  3 09:07:45 2023, MaxMem=   536870912 cpu:               0.1 elap:               0.0
 (Enter /opt/software/gaussian/g16.c01/l401.exe)
 Initial guess from the checkpoint file:  "0005_q000_m01_k00_force_uhf_def2tzvp.chk"
 B after Tr=     0.000000    0.000000    0.000000
         Rot=    1.000000    0.000000    0.000000    0.000000 Ang=   0.00 deg.
 Guess basis will be translated and rotated to current coordinates.
 JPrj=2 DoOrth=T DoCkMO=T.
 Initial guess <Sx>= 0.0000 <Sy>= 0.0000 <Sz>= 0.0000 <S**2>= 0.4380 S= 0.3294
 Leave Link  401 at Tue Jan  3 09:07:45 2023, MaxMem=   536870912 cpu:               0.2 elap:               0.1
 (Enter /opt/software/gaussian/g16.c01/l502.exe)
 Keep R1 and R2 ints in memory in canonical form, NReq=40642598.
 FoFCou: FMM=F IPFlag=           0 FMFlag=           0 FMFlg1=           0
         NFxFlg=           0 DoJE=F BraDBF=F KetDBF=F FulRan=T
         wScrn=  0.000000 ICntrl=       600 IOpCl=  0 I1Cent=           0 NGrid=           0
         NMat0=    1 NMatS0=   6216 NMatT0=    0 NMatD0=    1 NMtDS0=    0 NMtDT0=    0
 Symmetry not used in FoFCou.
 Two-electron integral symmetry not used.
 UHF open shell SCF:
 Using DIIS extrapolation, IDIIS=  1040.
 NGot=   536870912 LenX=   498192476 LenY=   498176159
 Requested convergence on RMS density matrix=1.00D-08 within 128 cycles.
 Requested convergence on MAX density matrix=1.00D-06.
 Requested convergence on             energy=1.00D-06.
 No special actions if energy rises.

 Cycle   1  Pass 1  IDiag  1:
 E= -511.422589376811    
 DIIS: error= 2.06D-08 at cycle   1 NSaved=   1.
 NSaved= 1 IEnMin= 1 EnMin= -511.422589376811     IErMin= 1 ErrMin= 2.06D-08
 ErrMax= 2.06D-08  0.00D+00 EMaxC= 1.00D-01 BMatC= 2.03D-13 BMatP= 2.03D-13
 IDIUse=1 WtCom= 1.00D+00 WtEn= 0.00D+00
 Coeff-Com:  0.100D+01
 Coeff:      0.100D+01
[...]
   Natural Minimal Basis     15.88221 ( 99.2638% of  16)
   Natural Rydberg Basis      0.11779 (  0.7362% of  16)
 --------------------------------------------------------

    Atom  No          Natural Electron Configuration
 ----------------------------------------------------------------------------
      C    1      [core]2S( 0.58)2p( 1.37)3p( 0.01)3d( 0.01)
      S    2      [core]3S( 0.78)3p( 1.77)4S( 0.02)3d( 0.05)4p( 0.01)
      O    3      [core]2S( 0.92)2p( 2.66)3d( 0.02)
      H    4            1S( 0.41)
      H    5            1S( 0.41)


 NBO analysis skipped by request.


 ***************************************************
 *******         Beta  spin orbitals         *******
 ***************************************************


 NATURAL POPULATIONS:  Natural atomic orbital occupancies 
                                                          
   NAO  Atom  No  lang   Type(AO)    Occupancy      Energy
 ----------------------------------------------------------
     1    C    1  S      Cor( 1S)     0.99980     -11.17369
     2    C    1  S      Val( 2S)     0.63279      -0.55627
     3    C    1  S      Ryd( 3S)     0.00107       0.73310
     4    C    1  S      Ryd( 4S)     0.00009       2.08678
     5    C    1  S      Ryd( 5S)     0.00000      22.12495
     6    C    1  px     Val( 2p)     0.57260      -0.22614
     7    C    1  px     Ryd( 3p)     0.00212       0.64213
     8    C    1  px     Ryd( 4p)     0.00013       2.63055
     9    C    1  py     Val( 2p)     0.79043      -0.30846
    10    C    1  py     Ryd( 3p)     0.00237       0.56409
    11    C    1  py     Ryd( 4p)     0.00002       1.70899
    12    C    1  pz     Val( 2p)     0.67829      -0.21819
    13    C    1  pz     Ryd( 3p)     0.00133       0.76338
    14    C    1  pz     Ryd( 4p)     0.00002       1.92437
    15    C    1  dxy    Ryd( 3d)     0.00204       1.34380
    16    C    1  dxy    Ryd( 4d)     0.00003       3.16655
    17    C    1  dxz    Ryd( 3d)     0.00172       1.51843
    18    C    1  dxz    Ryd( 4d)     0.00004       3.27000
    19    C    1  dyz    Ryd( 3d)     0.00110       1.28230
    20    C    1  dyz    Ryd( 4d)     0.00001       3.21271
    21    C    1  dx2y2  Ryd( 3d)     0.00332       1.58029
    22    C    1  dx2y2  Ryd( 4d)     0.00002       3.23112
    23    C    1  dz2    Ryd( 3d)     0.00247       1.29157
    24    C    1  dz2    Ryd( 4d)     0.00001       3.12806
    25    C    1  f(0)   Ryd( 4f)     0.00001       3.36928
    26    C    1  f(C1)  Ryd( 4f)     0.00011       3.81520
    27    C    1  f(S1)  Ryd( 4f)     0.00010       3.49984
    28    C    1  f(C2)  Ryd( 4f)     0.00009       3.48171
    29    C    1  f(S2)  Ryd( 4f)     0.00013       3.64978
    30    C    1  f(C3)  Ryd( 4f)     0.00008       3.71130
    31    C    1  f(S3)  Ryd( 4f)     0.00011       3.51649
 
    32    S    2  S      Cor( 1S)     1.00000     -90.65057
    33    S    2  S      Cor( 2S)     0.99961     -10.24756
    34    S    2  S      Val( 3S)     0.75476      -0.75056
    35    S    2  S      Ryd( 4S)     0.01636       0.91725
    36    S    2  S      Ryd( 5S)     0.00001      19.91138
    37    S    2  px     Cor( 2p)     0.99987      -6.72833
    38    S    2  px     Val( 3p)     0.47503      -0.14173
    39    S    2  px     Ryd( 4p)     0.00275       1.10058
    40    S    2  px     Ryd( 5p)     0.00011       1.93508
    41    S    2  px     Ryd( 6p)     0.00000       8.94498
    42    S    2  py     Cor( 2p)     0.99985      -6.72763
    43    S    2  py     Val( 3p)     0.43064      -0.15838
    44    S    2  py     Ryd( 4p)     0.00117       0.88665
    45    S    2  py     Ryd( 5p)     0.00007       1.93501
    46    S    2  py     Ryd( 6p)     0.00000       9.23888
    47    S    2  pz     Cor( 2p)     0.99991      -6.72977
    48    S    2  pz     Val( 3p)     0.49336      -0.16657
    49    S    2  pz     Ryd( 4p)     0.00289       1.07491
    50    S    2  pz     Ryd( 5p)     0.00018       1.92105
    51    S    2  pz     Ryd( 6p)     0.00001       9.29659
    52    S    2  dxy    Ryd( 3d)     0.01015       0.91672
    53    S    2  dxy    Ryd( 4d)     0.00005       1.81987
    54    S    2  dxz    Ryd( 3d)     0.00874       1.03169
    55    S    2  dxz    Ryd( 4d)     0.00009       1.98636
    56    S    2  dyz    Ryd( 3d)     0.00631       0.94348
    57    S    2  dyz    Ryd( 4d)     0.00022       2.00661
    58    S    2  dx2y2  Ryd( 3d)     0.01146       1.12423
    59    S    2  dx2y2  Ryd( 4d)     0.00010       2.09992
    60    S    2  dz2    Ryd( 3d)     0.01324       1.01032
    61    S    2  dz2    Ryd( 4d)     0.00014       1.98550
    62    S    2  f(0)   Ryd( 4f)     0.00021       2.59593
    63    S    2  f(C1)  Ryd( 4f)     0.00023       2.62380
    64    S    2  f(S1)  Ryd( 4f)     0.00011       2.40997
    65    S    2  f(C2)  Ryd( 4f)     0.00021       2.63724
    66    S    2  f(S2)  Ryd( 4f)     0.00009       2.46854
    67    S    2  f(C3)  Ryd( 4f)     0.00025       2.53676
    68    S    2  f(S3)  Ryd( 4f)     0.00013       2.51466
 
    69    O    3  S      Cor( 1S)     0.99994     -20.35295
    70    O    3  S      Val( 2S)     0.90848      -1.20669
    71    O    3  S      Ryd( 3S)     0.00036       1.64132
    72    O    3  S      Ryd( 4S)     0.00002       3.26540
    73    O    3  S      Ryd( 5S)     0.00000      44.34135
    74    O    3  px     Val( 2p)     0.90809      -0.43278
    75    O    3  px     Ryd( 3p)     0.00097       0.87309
    76    O    3  px     Ryd( 4p)     0.00003       3.30036
    77    O    3  py     Val( 2p)     0.73162      -0.30993
    78    O    3  py     Ryd( 3p)     0.00144       0.83665
    79    O    3  py     Ryd( 4p)     0.00002       3.27235
    80    O    3  pz     Val( 2p)     0.75832      -0.37088
    81    O    3  pz     Ryd( 3p)     0.00073       0.91446
    82    O    3  pz     Ryd( 4p)     0.00007       3.69688
    83    O    3  dxy    Ryd( 3d)     0.00179       1.85261
    84    O    3  dxy    Ryd( 4d)     0.00000       6.85561
    85    O    3  dxz    Ryd( 3d)     0.00409       1.95717
    86    O    3  dxz    Ryd( 4d)     0.00001       6.94256
    87    O    3  dyz    Ryd( 3d)     0.00455       2.00291
    88    O    3  dyz    Ryd( 4d)     0.00001       6.96376
    89    O    3  dx2y2  Ryd( 3d)     0.00178       1.84518
    90    O    3  dx2y2  Ryd( 4d)     0.00001       6.85570
    91    O    3  dz2    Ryd( 3d)     0.00500       1.99163
    92    O    3  dz2    Ryd( 4d)     0.00001       6.96402
    93    O    3  f(0)   Ryd( 4f)     0.00007       5.77754
    94    O    3  f(C1)  Ryd( 4f)     0.00007       5.83615
    95    O    3  f(S1)  Ryd( 4f)     0.00008       5.87674
    96    O    3  f(C2)  Ryd( 4f)     0.00006       5.75357
    97    O    3  f(S2)  Ryd( 4f)     0.00007       5.83559
    98    O    3  f(C3)  Ryd( 4f)     0.00001       5.65421
    99    O    3  f(S3)  Ryd( 4f)     0.00001       5.65110
 
   100    H    4  S      Val( 1S)     0.37781       0.03496
   101    H    4  S      Ryd( 2S)     0.00021       1.12588
   102    H    4  S      Ryd( 3S)     0.00006       1.58195
   103    H    4  px     Ryd( 2p)     0.00006       2.68565
   104    H    4  py     Ryd( 2p)     0.00010       2.46385
   105    H    4  pz     Ryd( 2p)     0.00013       2.85515
 
   106    H    5  S      Val( 1S)     0.37229       0.05315
   107    H    5  S      Ryd( 2S)     0.00049       1.18257
   108    H    5  S      Ryd( 3S)     0.00005       1.50785
   109    H    5  px     Ryd( 2p)     0.00008       2.78567
   110    H    5  py     Ryd( 2p)     0.00011       2.45162
   111    H    5  pz     Ryd( 2p)     0.00014       2.79745


 Summary of Natural Population Analysis:                  
                                                          
                                       Natural Population 
                Natural  -----------------------------------------------
    Atom  No    Charge         Core      Valence    Rydberg      Total
 -----------------------------------------------------------------------
      C    1   -0.69245      0.99980     2.67411    0.01854     3.69245
      S    2    0.77169      4.99924     2.15379    0.07528     7.22831
      O    3   -0.32772      0.99994     3.30651    0.02126     4.32772
      H    4    0.12164      0.00000     0.37781    0.00055     0.37836
      H    5    0.12683      0.00000     0.37229    0.00088     0.37317
 =======================================================================
   * Total *   -0.00000      6.99898     8.88451    0.11651    16.00000

                                 Natural Population      
 --------------------------------------------------------
   Core                       6.99898 ( 99.9854% of   7)
   Valence                    8.88451 ( 98.7168% of   9)
   Natural Minimal Basis     15.88349 ( 99.2718% of  16)
   Natural Rydberg Basis      0.11651 (  0.7282% of  16)
 --------------------------------------------------------

    Atom  No          Natural Electron Configuration
 ----------------------------------------------------------------------------
      C    1      [core]2S( 0.63)2p( 2.04)3p( 0.01)3d( 0.01)
      S    2      [core]3S( 0.75)3p( 1.40)4S( 0.02)3d( 0.05)4p( 0.01)
      O    3      [core]2S( 0.91)2p( 2.40)3d( 0.02)
      H    4            1S( 0.38)
      H    5            1S( 0.37)


 NBO analysis skipped by request.
 Leave Link  607 at Tue Jan  3 09:07:49 2023, MaxMem=   536870912 cpu:               3.7 elap:               1.9
 (Enter /opt/software/gaussian/g16.c01/l701.exe)
 ... and contract with generalized density number  0.
 Compute integral first derivatives.
 Leave Link  701 at Tue Jan  3 09:07:50 2023, MaxMem=   536870912 cpu:               0.3 elap:               0.2
 (Enter /opt/software/gaussian/g16.c01/l702.exe)
 L702 exits ... SP integral derivatives will be done elsewhere.
 Leave Link  702 at Tue Jan  3 09:07:50 2023, MaxMem=   536870912 cpu:               0.1 elap:               0.0
 (Enter /opt/software/gaussian/g16.c01/l703.exe)
 Integral derivatives from FoFJK, PRISM(SPDF).
 Compute integral first derivatives, UseDBF=F ICtDFT=           0.
 Calling FoFJK, ICntrl=      2127 FMM=F ISym2X=0 I1Cent= 0 IOpClX= 1 NMat=1 NMatS=1 NMatT=0.
 FoFJK:  IHMeth= 1 ICntrl=    2127 DoSepK=F KAlg= 0 I1Cent=           0 FoldK=F
 IRaf=         0 NMat=       1 IRICut=       1 DoRegI=T DoRafI=F ISym2E= 0 IDoP0=0 IntGTp=1.
 FoFCou: FMM=F IPFlag=           0 FMFlag=      100000 FMFlg1=         800
         NFxFlg=           0 DoJE=F BraDBF=F KetDBF=F FulRan=T
         wScrn=  0.000000 ICntrl=      2127 IOpCl=  1 I1Cent=           0 NGrid=           0
         NMat0=    1 NMatS0=      1 NMatT0=    0 NMatD0=    1 NMtDS0=    0 NMtDT0=    0
 Symmetry not used in FoFCou.
 Leave Link  703 at Tue Jan  3 09:07:52 2023, MaxMem=   536870912 cpu:               4.9 elap:               2.5
 (Enter /opt/software/gaussian/g16.c01/l716.exe)
 Dipole        =-1.10533591D+00 4.79644830D-01 8.39619066D-01
 -------------------------------------------------------------------
 Center     Atomic                   Forces (Hartrees/Bohr)
 Number     Number              X              Y              Z
 -------------------------------------------------------------------
      1        6          -0.022164782   -0.001788947   -0.003133535
      2       16           0.035329854   -0.020803233   -0.036440122
      3        8          -0.024371877    0.022808695    0.039947253
      4        1           0.004688452   -0.006057976   -0.010586212
      5        1           0.006518353    0.005841462    0.010212617
 -------------------------------------------------------------------
 Cartesian Forces:  Max     0.039947253 RMS     0.020936122
 Z-matrix is all fixed cartesians, so copy forces.
 Force constants in Cartesian coordinates: 
                1             2             3             4             5 
      1  0.829676D+00
      2  0.511240D-02  0.243810D+00
      3  0.905768D-02  0.234956D+00  0.520669D+00
      4 -0.491409D+00 -0.959762D-02 -0.168745D-01  0.641682D+00
      5  0.287596D-02 -0.491361D-01 -0.278604D-01 -0.128355D+00  0.207963D+00
      6  0.496707D-02 -0.278624D-01 -0.819862D-01 -0.224638D+00  0.320470D+00
      7  0.492524D-03  0.133103D-01  0.233039D-01 -0.150309D+00  0.124519D+00
      8  0.104201D-03  0.602149D-02  0.308174D-02  0.137725D+00 -0.180658D+00
      9  0.181864D-03  0.308386D-02  0.966084D-02  0.241117D+00 -0.294338D+00
     10 -0.151987D+00  0.492920D-01  0.862296D-01  0.424157D-03  0.114682D-01
     11  0.447359D-01 -0.101753D+00 -0.113561D+00  0.975664D-04  0.365001D-02
     12  0.782568D-01 -0.113560D+00 -0.235538D+00  0.170666D-03  0.403592D-02
     13 -0.186773D+00 -0.581171D-01 -0.101717D+00 -0.388712D-03 -0.105080D-01
     14 -0.528284D-01 -0.989424D-01 -0.966159D-01  0.130067D-03  0.181809D-01
     15 -0.924634D-01 -0.966168D-01 -0.212806D+00  0.224637D-03 -0.230723D-02
                6             7             8             9            10 
      6  0.585965D+00
      7  0.217995D+00  0.149816D+00
      8 -0.294336D+00 -0.137829D+00  0.174946D+00
      9 -0.527847D+00 -0.241299D+00  0.291077D+00  0.518287D+00
     10  0.200660D-01  0.000000D+00  0.000000D+00  0.000000D+00  0.123189D+00
     11  0.403202D-02  0.000000D+00  0.453529D-02 -0.259031D-02 -0.513576D-01
     12  0.840740D-02  0.000000D+00 -0.259199D-02  0.148040D-02 -0.898457D-01
     13 -0.183902D-01  0.000000D+00  0.000000D+00  0.000000D+00  0.283742D-01
     14 -0.230345D-02  0.000000D+00 -0.484560D-02  0.276754D-02 -0.940299D-02
     15  0.154602D-01  0.000000D+00  0.276920D-02 -0.158162D-02 -0.164496D-01
               11            12            13            14            15 
     11  0.877574D-01
     12  0.120457D+00  0.229666D+00
     13  0.652373D-02  0.114185D-01  0.158787D+00
     14  0.581069D-02 -0.834082D-02  0.621018D-01  0.797964D-01
     15 -0.833779D-02 -0.401584D-02  0.108688D+00  0.104493D+00  0.202943D+00
 Leave Link  716 at Tue Jan  3 09:07:52 2023, MaxMem=   536870912 cpu:               0.1 elap:               0.0
 (Enter /opt/software/gaussian/g16.c01/l103.exe)

 GradGradGradGradGradGradGradGradGradGradGradGradGradGradGradGradGradGrad
 Berny optimization.
 Search for a local minimum.
 Step number   1 out of a maximum of    2
 All quantities printed in internal units (Hartrees-Bohrs-Radians)
 Second derivative matrix not updated -- first step.
 The second derivative matrix:
                          X1        Y1        Z1        X2        Y2
           X1           0.82968
           Y1           0.00511   0.24381
           Z1           0.00906   0.23496   0.52067
           X2          -0.49141  -0.00960  -0.01687   0.64168
           Y2           0.00288  -0.04914  -0.02786  -0.12836   0.20796
           Z2           0.00497  -0.02786  -0.08199  -0.22464   0.32047
           X3           0.00049   0.01331   0.02330  -0.15031   0.12452
           Y3           0.00010   0.00602   0.00308   0.13773  -0.18066
           Z3           0.00018   0.00308   0.00966   0.24112  -0.29434
           X4          -0.15199   0.04929   0.08623   0.00042   0.01147
           Y4           0.04474  -0.10175  -0.11356   0.00010   0.00365
           Z4           0.07826  -0.11356  -0.23554   0.00017   0.00404
           X5          -0.18677  -0.05812  -0.10172  -0.00039  -0.01051
           Y5          -0.05283  -0.09894  -0.09662   0.00013   0.01818
           Z5          -0.09246  -0.09662  -0.21281   0.00022  -0.00231
                          Z2        X3        Y3        Z3        X4
           Z2           0.58597
           X3           0.21800   0.14982
           Y3          -0.29434  -0.13783   0.17495
           Z3          -0.52785  -0.24130   0.29108   0.51829
           X4           0.02007   0.00000   0.00000  -0.00000   0.12319
           Y4           0.00403   0.00000   0.00454  -0.00259  -0.05136
           Z4           0.00841  -0.00000  -0.00259   0.00148  -0.08985
           X5          -0.01839  -0.00000  -0.00000   0.00000   0.02837
           Y5          -0.00230  -0.00000  -0.00485   0.00277  -0.00940
           Z5           0.01546   0.00000   0.00277  -0.00158  -0.01645
                          Y4        Z4        X5        Y5        Z5
           Y4           0.08776
           Z4           0.12046   0.22967
           X5           0.00652   0.01142   0.15879
           Y5           0.00581  -0.00834   0.06210   0.07980
           Z5          -0.00834  -0.00402   0.10869   0.10449   0.20294
 ITU=  0
     Eigenvalues ---    0.02243   0.03701   0.09811   0.12281   0.16471
     Eigenvalues ---    0.34496   0.86201   1.16715   1.68793
 Angle between quadratic step and forces=  61.08 degrees.
 Linear search not attempted -- first point.
 B after Tr=    -0.001400    0.010229    0.017891
         Rot=    0.999999    0.000049   -0.001487    0.000830 Ang=   0.20 deg.
 Variable       Old X    -DE/DX   Delta X   Delta X   Delta X     New X
                                 (Linear)    (Quad)   (Total)
    X1        1.84631  -0.02216   0.00000   0.01518   0.01306   1.85937
    Y1       -0.03741  -0.00179   0.00000  -0.01213  -0.00501  -0.04242
    Z1       -0.19054  -0.00313   0.00000  -0.02124  -0.00888  -0.19942
    X2        4.89062   0.03533   0.00000   0.03801   0.03580   4.92642
    Y2       -0.06532  -0.02080   0.00000   0.00595   0.00797  -0.05735
    Z2       -0.23894  -0.03644   0.00000   0.01009   0.01333  -0.22561
    X3        5.99277  -0.02437   0.00000  -0.08484  -0.09582   5.89696
    Y3       -1.34985   0.02281   0.00000   0.01456   0.01474  -1.33511
    Z3       -2.48781   0.03995   0.00000   0.02583   0.02629  -2.46152
    X4        0.97901   0.00469   0.00000   0.00340   0.00749   0.98651
    Y4        0.89117  -0.00606   0.00000  -0.03580  -0.02707   0.86410
    Z4        1.43411  -0.01059   0.00000  -0.06178  -0.04690   1.38721
    X5        0.70071   0.00652   0.00000   0.04734   0.03946   0.74018
    Y5       -0.88856   0.00584   0.00000   0.00055   0.00937  -0.87918
    Z5       -1.68006   0.01021   0.00000   0.00040   0.01616  -1.66390
         Item               Value     Threshold  Converged?
 Maximum Force            0.039947     0.000450     NO 
 RMS     Force            0.020936     0.000300     NO 
 Maximum Displacement     0.095815     0.001800     NO 
 RMS     Displacement     0.033448     0.001200     NO 
 Predicted change in Energy=-2.618665D-03
 GradGradGradGradGradGradGradGradGradGradGradGradGradGradGradGradGradGrad

 Leave Link  103 at Tue Jan  3 09:07:52 2023, MaxMem=   536870912 cpu:               0.0 elap:               0.0
 (Enter /opt/software/gaussian/g16.c01/l9999.exe)
 Unable to Open any file for archive entry.
 1\1\GINC-GRA607\Force\UHF\Gen\C1H2O1S1\BHAVUK\03-Jan-2023\0\\#p uhf/ch
 kbasis force guess=read geom=check scf=(maxcycle=900,verytightlineq,xq
 c) integral=grid=ultrafine symmetry=None density=current pop=(cm5,hlyg
 at,mbs,npa) output=wfx\\0005_q000_m01_k00_opt_uwb97xd_def2svpd/0005_q0
 00_m01_k00_force_uhf_def2tzvp stable-force\\0,1\C,0.9770245042,-0.0197
 961728,-0.1008273286\S,2.5880021429,-0.0345660623,-0.126439068\O,3.171
 2397907,-0.7143116203,-1.3164938758\H,0.5180717789,0.4715880124,0.7588
 975415\H,0.3708017881,-0.4702041579,-0.8890472689\\Version=ES64L-G16Re
 vC.01\HF=-511.4225894\S2=0.437977\S2-1=0.\S2A=0.042668\RMSD=1.662e-09\
 RMSF=2.094e-02\Dipole=-1.1053359,0.4796448,0.8396191\Quadrupole=-4.575
 012,2.9869319,1.5880801,3.0623099,5.4990583,-1.0675743\PG=Unknown\\@
 The archive entry for this job was punched.

 Writing a WFNX file to "0005_q000_m01_k00_force_uhf_def2tzvp.wfx"


 ... IT IS NO ONE DREAME THAT
     CAN PLEASE THESE ALL ...

                -- BEN JONSON
 Job cpu time:       0 days  0 hours  0 minutes 15.6 seconds.
 Elapsed time:       0 days  0 hours  0 minutes  7.8 seconds.
 File lengths (MBytes):  RWF=     10 Int=      0 D2E=      0 Chk=      3 Scr=      1
 Normal termination of Gaussian 16 at Tue Jan  3 09:07:53 2023.
