 Entering Gaussian System, Link 0=g16
 Input=0005_q000_m01_k00_force_uwb97xd_def2tzvp.com
 Output=0005_q000_m01_k00_force_uwb97xd_def2tzvp.log
 Initial command:
 /opt/software/gaussian/g16.c01/l1.exe "/localscratch/bhavuk.2151426.0/Gau-23411.inp" -scrdir="/localscratch/bhavuk.2151426.0/"
 Entering Link 1 = /opt/software/gaussian/g16.c01/l1.exe PID=     23414.
  
 Copyright (c) 1988-2019, Gaussian, Inc.  All Rights Reserved.
  
 This is part of the Gaussian(R) 16 program.  It is based on
 the Gaussian(R) 09 system (copyright 2009, Gaussian, Inc.),
 the Gaussian(R) 03 system (copyright 2003, Gaussian, Inc.),
 the Gaussian(R) 98 system (copyright 1998, Gaussian, Inc.),
 the Gaussian(R) 94 system (copyright 1995, Gaussian, Inc.),
 the Gaussian 92(TM) system (copyright 1992, Gaussian, Inc.),
 the Gaussian 90(TM) system (copyright 1990, Gaussian, Inc.),
 the Gaussian 88(TM) system (copyright 1988, Gaussian, Inc.),
 the Gaussian 86(TM) system (copyright 1986, Carnegie Mellon
 University), and the Gaussian 82(TM) system (copyright 1983,
 Carnegie Mellon University). Gaussian is a federally registered
 trademark of Gaussian, Inc.
  
 This software contains proprietary and confidential information,
 including trade secrets, belonging to Gaussian, Inc.
  
 This software is provided under written license and may be
 used, copied, transmitted, or stored only in accord with that
 written license.
  
 The following legend is applicable only to US Government
 contracts under FAR:
  
                    RESTRICTED RIGHTS LEGEND
  
 Use, reproduction and disclosure by the US Government is
 subject to restrictions as set forth in subparagraphs (a)
 and (c) of the Commercial Computer Software - Restricted
 Rights clause in FAR 52.227-19.
  
 Gaussian, Inc.
 340 Quinnipiac St., Bldg. 40, Wallingford CT 06492
  
  
 ---------------------------------------------------------------
 Warning -- This program may not be used in any manner that
 competes with the business of Gaussian, Inc. or will provide
 assistance to any competitor of Gaussian, Inc.  The licensee
 of this program is prohibited from giving any competitor of
 Gaussian, Inc. access to this program.  By using this program,
 the user acknowledges that Gaussian, Inc. is engaged in the
 business of creating and licensing software in the field of
 computational chemistry and represents and warrants to the
 licensee that it is not a competitor of Gaussian, Inc. and that
 it will not use this program in any manner prohibited above.
 ---------------------------------------------------------------
  

 Cite this work as:
 Gaussian 16, Revision C.01,
 M. J. Frisch, G. W. Trucks, H. B. Schlegel, G. E. Scuseria, 
 M. A. Robb, J. R. Cheeseman, G. Scalmani, V. Barone, 
 G. A. Petersson, H. Nakatsuji, X. Li, M. Caricato, A. V. Marenich, 
 J. Bloino, B. G. Janesko, R. Gomperts, B. Mennucci, H. P. Hratchian, 
 J. V. Ortiz, A. F. Izmaylov, J. L. Sonnenberg, D. Williams-Young, 
 F. Ding, F. Lipparini, F. Egidi, J. Goings, B. Peng, A. Petrone, 
 T. Henderson, D. Ranasinghe, V. G. Zakrzewski, J. Gao, N. Rega, 
 G. Zheng, W. Liang, M. Hada, M. Ehara, K. Toyota, R. Fukuda, 
 J. Hasegawa, M. Ishida, T. Nakajima, Y. Honda, O. Kitao, H. Nakai, 
 T. Vreven, K. Throssell, J. A. Montgomery, Jr., J. E. Peralta, 
 F. Ogliaro, M. J. Bearpark, J. J. Heyd, E. N. Brothers, K. N. Kudin, 
 V. N. Staroverov, T. A. Keith, R. Kobayashi, J. Normand, 
 K. Raghavachari, A. P. Rendell, J. C. Burant, S. S. Iyengar, 
 J. Tomasi, M. Cossi, J. M. Millam, M. Klene, C. Adamo, R. Cammi, 
 J. W. Ochterski, R. L. Martin, K. Morokuma, O. Farkas, 
 J. B. Foresman, and D. J. Fox, Gaussian, Inc., Wallingford CT, 2019.
 
 ******************************************
 Gaussian 16:  ES64L-G16RevC.01  3-Jul-2019
                 3-Jan-2023 
 ******************************************
 %chk=0005_q000_m01_k00_force_uwb97xd_def2tzvp.chk
 %nprocshared=2
 Will use up to    2 processors via shared memory.
 %mem=4GB
 ----------------------------------------------------------------------
 #p uwb97xd/gen stable=opt scf=(maxcycle=900,verytightlineq,xqc) integr
 al=grid=ultrafine symmetry=None density=current iop(99/18=-1) output=w
 fn
 ----------------------------------------------------------------------
 1/38=1,172=1/1;
 2/12=2,15=3,17=6,18=5,40=1/2;
 3/5=7,11=2,25=1,30=1,74=-58,75=-5,116=2/1,2,3;
 4//1;
 5/5=2,7=900,8=3,13=1,17=3,38=5/2,8;
 6/7=2,8=2,9=2,10=2,22=-1,28=1/1;
 8/6=1,10=90,11=11/1;
 9/8=-3,42=1,46=1/14;
 5/5=2,7=900,8=3,17=43,38=5/8(-2);
 6/7=2,8=2,9=2,10=2,22=-1,28=1/1;
 99/5=1,6=100,9=1,18=-1/99;
 Leave Link    1 at Tue Jan  3 09:07:50 2023, MaxMem=   536870912 cpu:               0.1 elap:               0.1
 (Enter /opt/software/gaussian/g16.c01/l101.exe)
 ----------------------------------------------------------------------
 0005_q000_m01_k00_opt_uwb97xd_def2svpd/0005_q000_m01_k00_force_uwb97xd
 _def2tzvp stable-force
 ----------------------------------------------------------------------
 Symbolic Z-matrix:
 Charge =  0 Multiplicity = 1
 C                     0.97702  -0.0198   -0.10083 
 S                     2.588    -0.03457  -0.12644 
 O                     3.17124  -0.71431  -1.31649 
 H                     0.51807   0.47159   0.7589 
 H                     0.3708   -0.4702   -0.88905 
 
 ITRead=  0  0  0  0  0
 MicOpt= -1 -1 -1 -1 -1
 NAtoms=      5 NQM=        5 NQMF=       0 NMMI=      0 NMMIF=      0
                NMic=       0 NMicF=      0.
                    Isotopes and Nuclear Properties:
 (Nuclear quadrupole moments (NQMom) in fm**2, nuclear magnetic moments (NMagM)
  in nuclear magnetons)

  Atom         1           2           3           4           5
 IAtWgt=          12          32          16           1           1
 AtmWgt=  12.0000000  31.9720718  15.9949146   1.0078250   1.0078250
 NucSpn=           0           0           0           1           1
 AtZEff=  -0.0000000  -0.0000000  -0.0000000  -0.0000000  -0.0000000
 NQMom=    0.0000000   0.0000000   0.0000000   0.0000000   0.0000000
 NMagM=    0.0000000   0.0000000   0.0000000   2.7928460   2.7928460
 AtZNuc=   6.0000000  16.0000000   8.0000000   1.0000000   1.0000000
 Leave Link  101 at Tue Jan  3 09:07:50 2023, MaxMem=   536870912 cpu:               0.5 elap:               0.3
 (Enter /opt/software/gaussian/g16.c01/l202.exe)
                          Input orientation:                          
 ---------------------------------------------------------------------
 Center     Atomic      Atomic             Coordinates (Angstroms)
 Number     Number       Type             X           Y           Z
 ---------------------------------------------------------------------
      1          6           0        0.977025   -0.019796   -0.100827
      2         16           0        2.588002   -0.034566   -0.126439
      3          8           0        3.171240   -0.714312   -1.316494
      4          1           0        0.518072    0.471588    0.758898
      5          1           0        0.370802   -0.470204   -0.889047
 ---------------------------------------------------------------------
                    Distance matrix (angstroms):
                    1          2          3          4          5
     1  C    0.000000
     2  S    1.611249   0.000000
     3  O    2.602840   1.489446   0.000000
     4  H    1.091432   2.307515   3.571121   0.000000
     5  H    1.091634   2.384812   2.843370   1.903781   0.000000
 Symmetry turned off by external request.
 Stoichiometry    CH2OS
 Rotational constants (GHZ):          39.0370487           9.3459813           7.5406507
 Leave Link  202 at Tue Jan  3 09:07:50 2023, MaxMem=   536870912 cpu:               0.0 elap:               0.0
 (Enter /opt/software/gaussian/g16.c01/l301.exe)
 General basis read from cards:  (5D, 7F)
 Centers:       4      5
 S 3 1.00
     Exponent=  3.4061341000D+01 Coefficients=  6.0251978000D-03
     Exponent=  5.1235746000D+00 Coefficients=  4.5021094000D-02
     Exponent=  1.1646626000D+00 Coefficients=  2.0189726000D-01
 S 1 1.00
     Exponent=  3.2723041000D-01 Coefficients=  1.0000000000D+00
 S 1 1.00
     Exponent=  1.0307241000D-01 Coefficients=  1.0000000000D+00
 P 1 1.00
     Exponent=  8.0000000000D-01 Coefficients=  1.0000000000D+00
 ****
 Centers:       1
 S 6 1.00
     Exponent=  1.3575349682D+04 Coefficients=  2.2245814352D-04
     Exponent=  2.0352333680D+03 Coefficients=  1.7232738252D-03
     Exponent=  4.6322562359D+02 Coefficients=  8.9255715314D-03
     Exponent=  1.3120019598D+02 Coefficients=  3.5727984502D-02
     Exponent=  4.2853015891D+01 Coefficients=  1.1076259931D-01
     Exponent=  1.5584185766D+01 Coefficients=  2.4295627626D-01
 S 2 1.00
     Exponent=  6.2067138508D+00 Coefficients=  4.1440263448D-01
     Exponent=  2.5764896527D+00 Coefficients=  2.3744968655D-01
 S 1 1.00
     Exponent=  5.7696339419D-01 Coefficients=  1.0000000000D+00
 S 1 1.00
     Exponent=  2.2972831358D-01 Coefficients=  1.0000000000D+00
 S 1 1.00
     Exponent=  9.5164440028D-02 Coefficients=  1.0000000000D+00
 P 4 1.00
     Exponent=  3.4697232244D+01 Coefficients=  5.3333657805D-03
     Exponent=  7.9582622826D+00 Coefficients=  3.5864109092D-02
     Exponent=  2.3780826883D+00 Coefficients=  1.4215873329D-01
     Exponent=  8.1433208183D-01 Coefficients=  3.4270471845D-01
 P 1 1.00
     Exponent=  2.8887547253D-01 Coefficients=  4.6445822433D-01
 P 1 1.00
     Exponent=  1.0056823671D-01 Coefficients=  2.4955789874D-01
 D 1 1.00
     Exponent=  1.0970000000D+00 Coefficients=  1.0000000000D+00
 D 1 1.00
     Exponent=  3.1800000000D-01 Coefficients=  1.0000000000D+00
 F 1 1.00
     Exponent=  7.6100000000D-01 Coefficients=  1.0000000000D+00
 ****
 Centers:       3
 S 6 1.00
     Exponent=  2.7032382631D+04 Coefficients=  2.1726302465D-04
     Exponent=  4.0523871392D+03 Coefficients=  1.6838662199D-03
     Exponent=  9.2232722710D+02 Coefficients=  8.7395616265D-03
     Exponent=  2.6124070989D+02 Coefficients=  3.5239968808D-02
     Exponent=  8.5354641351D+01 Coefficients=  1.1153519115D-01
     Exponent=  3.1035035245D+01 Coefficients=  2.5588953961D-01
 S 2 1.00
     Exponent=  1.2260860728D+01 Coefficients=  3.9768730901D-01
     Exponent=  4.9987076005D+00 Coefficients=  2.4627849430D-01
 S 1 1.00
     Exponent=  1.1703108158D+00 Coefficients=  1.0000000000D+00
 S 1 1.00
     Exponent=  4.6474740994D-01 Coefficients=  1.0000000000D+00
 S 1 1.00
     Exponent=  1.8504536357D-01 Coefficients=  1.0000000000D+00
 P 4 1.00
     Exponent=  6.3274954801D+01 Coefficients=  6.0685103418D-03
     Exponent=  1.4627049379D+01 Coefficients=  4.1912575824D-02
     Exponent=  4.4501223456D+00 Coefficients=  1.6153841088D-01
     Exponent=  1.5275799647D+00 Coefficients=  3.5706951311D-01
 P 1 1.00
     Exponent=  5.2935117943D-01 Coefficients=  4.4794207502D-01
 P 1 1.00
     Exponent=  1.7478421270D-01 Coefficients=  2.4446069663D-01
 D 1 1.00
     Exponent=  2.3140000000D+00 Coefficients=  1.0000000000D+00
 D 1 1.00
     Exponent=  6.4500000000D-01 Coefficients=  1.0000000000D+00
 F 1 1.00
     Exponent=  1.4280000000D+00 Coefficients=  1.0000000000D+00
 ****
 Centers:       2
 S 7 1.00
     Exponent=  6.0700928104D+04 Coefficients=  5.4695944225D-04
     Exponent=  9.1026106854D+03 Coefficients=  4.2297224557D-03
     Exponent=  2.0714166009D+03 Coefficients=  2.1747824159D-02
     Exponent=  5.8602476821D+02 Coefficients=  8.5100053589D-02
     Exponent=  1.9055395021D+02 Coefficients=  2.4799128459D-01
     Exponent=  6.7630384260D+01 Coefficients=  4.6703640406D-01
     Exponent=  2.5127306905D+01 Coefficients=  3.6434587550D-01
 S 3 1.00
     Exponent=  1.1257463010D+02 Coefficients=  2.1670040240D-02
     Exponent=  3.4795554217D+01 Coefficients=  9.3602301760D-02
     Exponent=  6.5115556215D+00 Coefficients= -2.6068001422D-01
 S 2 1.00
     Exponent=  3.2399032261D+00 Coefficients=  1.2842089435D+00
     Exponent=  1.5477160881D+00 Coefficients=  6.6036416584D-01
 S 1 1.00
     Exponent=  4.0541030112D-01 Coefficients=  1.0000000000D+00
 S 1 1.00
     Exponent=  1.4550651059D-01 Coefficients=  1.0000000000D+00
 P 5 1.00
     Exponent=  5.6436716027D+02 Coefficients=  2.4796796317D-03
     Exponent=  1.3342624379D+02 Coefficients=  1.9677930250D-02
     Exponent=  4.2468271189D+01 Coefficients=  8.9980008258D-02
     Exponent=  1.5616527580D+01 Coefficients=  2.5705880575D-01
     Exponent=  6.1093988469D+00 Coefficients=  4.3515167292D-01
 P 1 1.00
     Exponent=  2.4404160198D+00 Coefficients=  3.4883240595D-01
 P 1 1.00
     Exponent=  8.3882201296D-01 Coefficients=  1.0000000000D+00
 P 1 1.00
     Exponent=  3.1288746900D-01 Coefficients=  1.0000000000D+00
 P 1 1.00
     Exponent=  1.0770109004D-01 Coefficients=  1.0000000000D+00
 D 2 1.00
     Exponent=  3.7560000000D+00 Coefficients=  2.0000000000D-01
     Exponent=  8.1200000000D-01 Coefficients=  1.0000000000D+00
 D 1 1.00
     Exponent=  2.7300000000D-01 Coefficients=  1.0000000000D+00
 F 1 1.00
     Exponent=  5.5700000000D-01 Coefficients=  1.0000000000D+00
 ****
 Ernie: Thresh=  0.10000D-02 Tol=  0.10000D-05 Strict=F.
   111 basis functions,   187 primitive gaussians,   126 cartesian basis functions
    16 alpha electrons       16 beta electrons
       nuclear repulsion energy       102.7536228800 Hartrees.
 IExCor= 4639 DFT=T Ex+Corr=wB97XD ExCW=0 ScaHFX=  1.000000
 ScaDFX=  1.000000  1.000000  1.000000  1.000000 ScalE2=  1.000000  1.000000
 IRadAn=      5 IRanWt=     -1 IRanGd=            0 ICorTp=0 IEmpDi=121
 HFx  wShort=  0.000000 wLong=  0.200000 cFull=  0.222036 cShort=  0.000000 cLong=  0.777964
 DFx  wShort=  0.000000 wLong=  0.200000 cFull=  0.000000 cShort=  0.000000 cLong=  1.000000
 NAtoms=    5 NActive=    5 NUniq=    5 SFac= 1.00D+00 NAtFMM=   60 NAOKFM=F Big=F
 Integral buffers will be    131072 words long.
 Raffenetti 2 integral format.
 Two-electron integral symmetry is turned off.
 R6Disp:  Grimme-D2 Dispersion energy=       -0.0005194017 Hartrees.
 Nuclear repulsion after empirical dispersion term =      102.7531034782 Hartrees.
 Leave Link  301 at Tue Jan  3 09:07:50 2023, MaxMem=   536870912 cpu:               0.2 elap:               0.1
 (Enter /opt/software/gaussian/g16.c01/l302.exe)
 NPDir=0 NMtPBC=     1 NCelOv=     1 NCel=       1 NClECP=     1 NCelD=      1
         NCelK=      1 NCelE2=     1 NClLst=     1 CellRange=     0.0.
 One-electron integrals computed using PRISM.
 NBasis=   111 RedAO= T EigKep=  1.23D-03  NBF=   111
 NBsUse=   111 1.00D-06 EigRej= -1.00D+00 NBFU=   111
 Precomputing XC quadrature grid using
 IXCGrd= 4 IRadAn=           5 IRanWt=          -1 IRanGd=           0 AccXCQ= 0.00D+00.
 Generated NRdTot=       0 NPtTot=           0 NUsed=           0 NTot=          32
 NSgBfM=   125   125   125   125   125 MxSgAt=     5 MxSgA2=     5.
 Leave Link  302 at Tue Jan  3 09:07:51 2023, MaxMem=   536870912 cpu:               0.4 elap:               0.2
 (Enter /opt/software/gaussian/g16.c01/l303.exe)
 DipDrv:  MaxL=1.
 Leave Link  303 at Tue Jan  3 09:07:51 2023, MaxMem=   536870912 cpu:               0.1 elap:               0.1
 (Enter /opt/software/gaussian/g16.c01/l401.exe)
 ExpMin= 9.52D-02 ExpMax= 6.07D+04 ExpMxC= 2.07D+03 IAcc=3 IRadAn=         5 AccDes= 0.00D+00
 Harris functional with IExCor= 4639 and IRadAn=       5 diagonalized for initial guess.
 HarFok:  IExCor= 4639 AccDes= 0.00D+00 IRadAn=         5 IDoV= 1 UseB2=F ITyADJ=14
 ICtDFT=  3500011 ScaDFX=  1.000000  1.000000  1.000000  1.000000
 FoFCou: FMM=F IPFlag=           0 FMFlag=      100000 FMFlg1=           0
         NFxFlg=           0 DoJE=T BraDBF=F KetDBF=T FulRan=T
         wScrn=  0.000000 ICntrl=       500 IOpCl=  0 I1Cent=   200000004 NGrid=           0
         NMat0=    1 NMatS0=      1 NMatT0=    0 NMatD0=    1 NMtDS0=    0 NMtDT0=    0
 Symmetry not used in FoFCou.
 Harris En= -501.365647400530    
 JPrj=0 DoOrth=F DoCkMO=F.
 Initial guess <Sx>= 0.0000 <Sy>= 0.0000 <Sz>= 0.0000 <S**2>=-0.0000 S=-0.0000
 Leave Link  401 at Tue Jan  3 09:07:51 2023, MaxMem=   536870912 cpu:               1.2 elap:               0.6
 (Enter /opt/software/gaussian/g16.c01/l502.exe)
 Keep R1 and R2 ints in memory in canonical form, NReq=79989878.
 FoFCou: FMM=F IPFlag=           0 FMFlag=           0 FMFlg1=           0
         NFxFlg=           0 DoJE=F BraDBF=F KetDBF=F FulRan=T
         wScrn=  0.000000 ICntrl=       600 IOpCl=  0 I1Cent=           0 NGrid=           0
         NMat0=    1 NMatS0=   6216 NMatT0=    0 NMatD0=    1 NMtDS0=    0 NMtDT0=    0
 Symmetry not used in FoFCou.
 Two-electron integral symmetry not used.
 UHF open shell SCF:
 Using DIIS extrapolation, IDIIS=  1040.
 NGot=   536870912 LenX=   459547604 LenY=   459531287
 Requested convergence on RMS density matrix=1.00D-08 within 128 cycles.
 Requested convergence on MAX density matrix=1.00D-06.
 Requested convergence on             energy=1.00D-06.
 No special actions if energy rises.
 Integral accuracy reduced to 1.0D-05 until final iterations.

 Cycle   1  Pass 0  IDiag  1:
 E= -512.487814821693    
 DIIS: error= 6.97D-02 at cycle   1 NSaved=   1.
 NSaved= 1 IEnMin= 1 EnMin= -512.487814821693     IErMin= 1 ErrMin= 6.97D-02
 ErrMax= 6.97D-02  0.00D+00 EMaxC= 1.00D-01 BMatC= 3.22D+00 BMatP= 3.22D+00
 IDIUse=3 WtCom= 3.03D-01 WtEn= 6.97D-01
 Coeff-Com:  0.100D+01
 Coeff-En:   0.100D+01
 Coeff:      0.100D+01
 Gap=     0.368 Goal=   None    Shift=    0.000
 Gap=     0.368 Goal=   None    Shift=    0.000
 GapD=    0.368 DampG=1.000 DampE=0.500 DampFc=0.5000 IDamp=-1.
 Damping current iteration by 5.00D-01
 RMSDP=5.96D-03 MaxDP=2.89D-01              OVMax= 3.08D-01

 Cycle   2  Pass 0  IDiag  1:
 E= -512.585651625253     Delta-E=       -0.097836803560 Rises=F Damp=T
 DIIS: error= 2.52D-02 at cycle   2 NSaved=   2.
 NSaved= 2 IEnMin= 2 EnMin= -512.585651625253     IErMin= 2 ErrMin= 2.52D-02
 ErrMax= 2.52D-02  0.00D+00 EMaxC= 1.00D-01 BMatC= 3.64D-01 BMatP= 3.22D+00
 IDIUse=3 WtCom= 7.48D-01 WtEn= 2.52D-01
 Coeff-Com: -0.316D+00 0.132D+01
 Coeff-En:   0.000D+00 0.100D+01
 Coeff:     -0.236D+00 0.124D+01
 Gap=     0.310 Goal=   None    Shift=    0.000
 Gap=     0.310 Goal=   None    Shift=    0.000
 RMSDP=1.55D-03 MaxDP=2.87D-02 DE=-9.78D-02 OVMax= 2.14D-01

 Cycle   3  Pass 0  IDiag  1:
 E= -512.665576599766     Delta-E=       -0.079924974513 Rises=F Damp=F
 DIIS: error= 1.44D-02 at cycle   3 NSaved=   3.
 NSaved= 3 IEnMin= 3 EnMin= -512.665576599766     IErMin= 3 ErrMin= 1.44D-02
 ErrMax= 1.44D-02  0.00D+00 EMaxC= 1.00D-01 BMatC= 1.03D-01 BMatP= 3.64D-01
 IDIUse=3 WtCom= 8.56D-01 WtEn= 1.44D-01
 Coeff-Com: -0.189D+00 0.572D+00 0.617D+00
 Coeff-En:   0.000D+00 0.000D+00 0.100D+01
 Coeff:     -0.162D+00 0.490D+00 0.672D+00
 Gap=     0.364 Goal=   None    Shift=    0.000
 Gap=     0.364 Goal=   None    Shift=    0.000
 RMSDP=1.26D-03 MaxDP=2.85D-02 DE=-7.99D-02 OVMax= 1.14D-01

 Cycle   4  Pass 0  IDiag  1:
 E= -512.686387136709     Delta-E=       -0.020810536943 Rises=F Damp=F
 DIIS: error= 7.52D-03 at cycle   4 NSaved=   4.
 NSaved= 4 IEnMin= 4 EnMin= -512.686387136709     IErMin= 4 ErrMin= 7.52D-03
 ErrMax= 7.52D-03  0.00D+00 EMaxC= 1.00D-01 BMatC= 2.53D-02 BMatP= 1.03D-01
 IDIUse=3 WtCom= 9.25D-01 WtEn= 7.52D-02
 Coeff-Com: -0.692D-01 0.197D+00 0.384D+00 0.488D+00
 Coeff-En:   0.000D+00 0.000D+00 0.155D+00 0.845D+00
 Coeff:     -0.640D-01 0.182D+00 0.367D+00 0.515D+00
 Gap=     0.331 Goal=   None    Shift=    0.000
 Gap=     0.331 Goal=   None    Shift=    0.000
 RMSDP=4.46D-04 MaxDP=9.23D-03 DE=-2.08D-02 OVMax= 3.50D-02

 Cycle   5  Pass 0  IDiag  1:
 E= -512.691414380324     Delta-E=       -0.005027243615 Rises=F Damp=F
 DIIS: error= 2.44D-03 at cycle   5 NSaved=   5.
 NSaved= 5 IEnMin= 5 EnMin= -512.691414380324     IErMin= 5 ErrMin= 2.44D-03
 ErrMax= 2.44D-03  0.00D+00 EMaxC= 1.00D-01 BMatC= 2.26D-03 BMatP= 2.53D-02
 IDIUse=3 WtCom= 9.76D-01 WtEn= 2.44D-02
 Coeff-Com: -0.740D-02 0.160D-01 0.128D+00 0.296D+00 0.567D+00
 Coeff-En:   0.000D+00 0.000D+00 0.000D+00 0.000D+00 0.100D+01
 Coeff:     -0.721D-02 0.156D-01 0.125D+00 0.289D+00 0.578D+00
 Gap=     0.335 Goal=   None    Shift=    0.000
 Gap=     0.335 Goal=   None    Shift=    0.000
 RMSDP=1.24D-04 MaxDP=2.92D-03 DE=-5.03D-03 OVMax= 6.45D-03

 Cycle   6  Pass 0  IDiag  1:
 E= -512.691815171224     Delta-E=       -0.000400790899 Rises=F Damp=F
 DIIS: error= 3.46D-04 at cycle   6 NSaved=   6.
 NSaved= 6 IEnMin= 6 EnMin= -512.691815171224     IErMin= 6 ErrMin= 3.46D-04
 ErrMax= 3.46D-04  0.00D+00 EMaxC= 1.00D-01 BMatC= 5.41D-05 BMatP= 2.26D-03
 IDIUse=3 WtCom= 9.97D-01 WtEn= 3.46D-03
 Coeff-Com:  0.428D-02-0.110D-01-0.727D-02-0.817D-02 0.111D+00 0.911D+00
 Coeff-En:   0.000D+00 0.000D+00 0.000D+00 0.000D+00 0.000D+00 0.100D+01
 Coeff:      0.426D-02-0.110D-01-0.725D-02-0.814D-02 0.111D+00 0.912D+00
 Gap=     0.335 Goal=   None    Shift=    0.000
 Gap=     0.335 Goal=   None    Shift=    0.000
 RMSDP=3.89D-05 MaxDP=1.02D-03 DE=-4.01D-04 OVMax= 1.29D-03

 Cycle   7  Pass 0  IDiag  1:
 E= -512.691829077439     Delta-E=       -0.000013906215 Rises=F Damp=F
 DIIS: error= 6.86D-05 at cycle   7 NSaved=   7.
 NSaved= 7 IEnMin= 7 EnMin= -512.691829077439     IErMin= 7 ErrMin= 6.86D-05
 ErrMax= 6.86D-05  0.00D+00 EMaxC= 1.00D-01 BMatC= 3.62D-06 BMatP= 5.41D-05
 IDIUse=1 WtCom= 1.00D+00 WtEn= 0.00D+00
 Coeff-Com:  0.132D-02-0.319D-02-0.121D-01-0.346D-01-0.326D-01 0.138D+00
 Coeff-Com:  0.943D+00
 Coeff:      0.132D-02-0.319D-02-0.121D-01-0.346D-01-0.326D-01 0.138D+00
 Coeff:      0.943D+00
 Gap=     0.335 Goal=   None    Shift=    0.000
 Gap=     0.335 Goal=   None    Shift=    0.000
 RMSDP=1.58D-05 MaxDP=3.46D-04 DE=-1.39D-05 OVMax= 6.39D-04

 Cycle   8  Pass 0  IDiag  1:
 E= -512.691830634164     Delta-E=       -0.000001556725 Rises=F Damp=F
 DIIS: error= 2.06D-05 at cycle   8 NSaved=   8.
 NSaved= 8 IEnMin= 8 EnMin= -512.691830634164     IErMin= 8 ErrMin= 2.06D-05
 ErrMax= 2.06D-05  0.00D+00 EMaxC= 1.00D-01 BMatC= 2.61D-07 BMatP= 3.62D-06
 IDIUse=1 WtCom= 1.00D+00 WtEn= 0.00D+00
 Coeff-Com: -0.246D-03 0.646D-03 0.250D-02 0.336D-02-0.345D-02-0.611D-01
 Coeff-Com: -0.128D+00 0.119D+01
 Coeff:     -0.246D-03 0.646D-03 0.250D-02 0.336D-02-0.345D-02-0.611D-01
 Coeff:     -0.128D+00 0.119D+01
 Gap=     0.335 Goal=   None    Shift=    0.000
 Gap=     0.335 Goal=   None    Shift=    0.000
 RMSDP=5.08D-06 MaxDP=8.13D-05 DE=-1.56D-06 OVMax= 2.89D-04

 Initial convergence to 1.0D-05 achieved.  Increase integral accuracy.
 Cycle   9  Pass 1  IDiag  1:
 E= -512.691864736437     Delta-E=       -0.000034102273 Rises=F Damp=F
 DIIS: error= 3.43D-05 at cycle   1 NSaved=   1.
 NSaved= 1 IEnMin= 1 EnMin= -512.691864736437     IErMin= 1 ErrMin= 3.43D-05
 ErrMax= 3.43D-05  0.00D+00 EMaxC= 1.00D-01 BMatC= 9.02D-07 BMatP= 9.02D-07
 IDIUse=1 WtCom= 1.00D+00 WtEn= 0.00D+00
 Coeff-Com:  0.100D+01
 Coeff:      0.100D+01
 Gap=     0.335 Goal=   None    Shift=    0.000
 Gap=     0.335 Goal=   None    Shift=    0.000
 RMSDP=5.08D-06 MaxDP=8.13D-05 DE=-3.41D-05 OVMax= 7.49D-05

 Cycle  10  Pass 1  IDiag  1:
 E= -512.691864862860     Delta-E=       -0.000000126424 Rises=F Damp=F
 DIIS: error= 6.81D-06 at cycle   2 NSaved=   2.
 NSaved= 2 IEnMin= 2 EnMin= -512.691864862860     IErMin= 2 ErrMin= 6.81D-06
 ErrMax= 6.81D-06  0.00D+00 EMaxC= 1.00D-01 BMatC= 2.69D-08 BMatP= 9.02D-07
 IDIUse=1 WtCom= 1.00D+00 WtEn= 0.00D+00
 Coeff-Com: -0.254D-01 0.103D+01
 Coeff:     -0.254D-01 0.103D+01
 Gap=     0.335 Goal=   None    Shift=    0.000
 Gap=     0.335 Goal=   None    Shift=    0.000
 RMSDP=1.03D-06 MaxDP=2.12D-05 DE=-1.26D-07 OVMax= 9.69D-05

 Cycle  11  Pass 1  IDiag  1:
 E= -512.691864863016     Delta-E=       -0.000000000156 Rises=F Damp=F
 DIIS: error= 7.11D-06 at cycle   3 NSaved=   3.
 NSaved= 3 IEnMin= 3 EnMin= -512.691864863016     IErMin= 2 ErrMin= 6.81D-06
 ErrMax= 7.11D-06  0.00D+00 EMaxC= 1.00D-01 BMatC= 3.68D-08 BMatP= 2.69D-08
 IDIUse=1 WtCom= 1.00D+00 WtEn= 0.00D+00
 Coeff-Com: -0.415D-01 0.576D+00 0.465D+00
 Coeff:     -0.415D-01 0.576D+00 0.465D+00
 Gap=     0.335 Goal=   None    Shift=    0.000
 Gap=     0.335 Goal=   None    Shift=    0.000
 RMSDP=5.64D-07 MaxDP=1.11D-05 DE=-1.56D-10 OVMax= 4.12D-05

 Cycle  12  Pass 1  IDiag  1:
 E= -512.691864871104     Delta-E=       -0.000000008088 Rises=F Damp=F
 DIIS: error= 2.78D-06 at cycle   4 NSaved=   4.
 NSaved= 4 IEnMin= 4 EnMin= -512.691864871104     IErMin= 4 ErrMin= 2.78D-06
 ErrMax= 2.78D-06  0.00D+00 EMaxC= 1.00D-01 BMatC= 1.63D-09 BMatP= 2.69D-08
 IDIUse=1 WtCom= 1.00D+00 WtEn= 0.00D+00
 Coeff-Com: -0.166D-01 0.172D+00 0.193D+00 0.652D+00
 Coeff:     -0.166D-01 0.172D+00 0.193D+00 0.652D+00
 Gap=     0.335 Goal=   None    Shift=    0.000
 Gap=     0.335 Goal=   None    Shift=    0.000
 RMSDP=1.64D-07 MaxDP=3.71D-06 DE=-8.09D-09 OVMax= 1.39D-05

 Cycle  13  Pass 1  IDiag  1:
 E= -512.691864871495     Delta-E=       -0.000000000391 Rises=F Damp=F
 DIIS: error= 9.33D-07 at cycle   5 NSaved=   5.
 NSaved= 5 IEnMin= 5 EnMin= -512.691864871495     IErMin= 5 ErrMin= 9.33D-07
 ErrMax= 9.33D-07  0.00D+00 EMaxC= 1.00D-01 BMatC= 5.80D-10 BMatP= 1.63D-09
 IDIUse=1 WtCom= 1.00D+00 WtEn= 0.00D+00
 Coeff-Com:  0.329D-02-0.645D-01-0.413D-01 0.365D+00 0.737D+00
 Coeff:      0.329D-02-0.645D-01-0.413D-01 0.365D+00 0.737D+00
 Gap=     0.335 Goal=   None    Shift=    0.000
 Gap=     0.335 Goal=   None    Shift=    0.000
 RMSDP=1.07D-07 MaxDP=1.87D-06 DE=-3.91D-10 OVMax= 6.96D-06

 Cycle  14  Pass 1  IDiag  1:
 E= -512.691864871673     Delta-E=       -0.000000000178 Rises=F Damp=F
 DIIS: error= 2.67D-07 at cycle   6 NSaved=   6.
 NSaved= 6 IEnMin= 6 EnMin= -512.691864871673     IErMin= 6 ErrMin= 2.67D-07
 ErrMax= 2.67D-07  0.00D+00 EMaxC= 1.00D-01 BMatC= 4.80D-11 BMatP= 5.80D-10
 IDIUse=1 WtCom= 1.00D+00 WtEn= 0.00D+00
 Coeff-Com:  0.297D-02-0.379D-01-0.584D-01-0.182D-01 0.108D+00 0.100D+01
 Coeff:      0.297D-02-0.379D-01-0.584D-01-0.182D-01 0.108D+00 0.100D+01
 Gap=     0.335 Goal=   None    Shift=    0.000
 Gap=     0.335 Goal=   None    Shift=    0.000
 RMSDP=5.76D-08 MaxDP=7.59D-07 DE=-1.78D-10 OVMax= 3.68D-06

 Cycle  15  Pass 1  IDiag  1:
 E= -512.691864871703     Delta-E=       -0.000000000030 Rises=F Damp=F
 DIIS: error= 7.04D-08 at cycle   7 NSaved=   7.
 NSaved= 7 IEnMin= 7 EnMin= -512.691864871703     IErMin= 7 ErrMin= 7.04D-08
 ErrMax= 7.04D-08  0.00D+00 EMaxC= 1.00D-01 BMatC= 3.55D-12 BMatP= 4.80D-11
 IDIUse=1 WtCom= 1.00D+00 WtEn= 0.00D+00
 Coeff-Com: -0.193D-03 0.697D-02-0.785D-03-0.266D-01-0.939D-01-0.562D-02
 Coeff-Com:  0.112D+01
 Coeff:     -0.193D-03 0.697D-02-0.785D-03-0.266D-01-0.939D-01-0.562D-02
 Coeff:      0.112D+01
 Gap=     0.335 Goal=   None    Shift=    0.000
 Gap=     0.335 Goal=   None    Shift=    0.000
 RMSDP=2.01D-08 MaxDP=2.52D-07 DE=-3.04D-11 OVMax= 1.36D-06

 Cycle  16  Pass 1  IDiag  1:
 E= -512.691864871705     Delta-E=       -0.000000000002 Rises=F Damp=F
 DIIS: error= 1.20D-08 at cycle   8 NSaved=   8.
 NSaved= 8 IEnMin= 8 EnMin= -512.691864871705     IErMin= 8 ErrMin= 1.20D-08
 ErrMax= 1.20D-08  0.00D+00 EMaxC= 1.00D-01 BMatC= 1.14D-13 BMatP= 3.55D-12
 IDIUse=1 WtCom= 1.00D+00 WtEn= 0.00D+00
 Coeff-Com: -0.145D-03 0.228D-02 0.262D-02 0.218D-02-0.108D-01-0.645D-01
 Coeff-Com:  0.809D-01 0.987D+00
 Coeff:     -0.145D-03 0.228D-02 0.262D-02 0.218D-02-0.108D-01-0.645D-01
 Coeff:      0.809D-01 0.987D+00
 Gap=     0.335 Goal=   None    Shift=    0.000
 Gap=     0.335 Goal=   None    Shift=    0.000
 RMSDP=3.36D-09 MaxDP=4.20D-08 DE=-2.16D-12 OVMax= 2.03D-07

 SCF Done:  E(UwB97XD) =  -512.691864872     A.U. after   16 cycles
            NFock= 16  Conv=0.34D-08     -V/T= 2.0024
 <Sx>= 0.0000 <Sy>= 0.0000 <Sz>= 0.0000 <S**2>=-0.0000 S=-0.0000
 <L.S>=  0.00000000000    
 KE= 5.114405526602D+02 PE=-1.420988013123D+03 EE= 2.941024921126D+02
 Annihilation of the first spin contaminant:
 S**2 before annihilation    -0.0000,   after     0.0000
 Leave Link  502 at Tue Jan  3 09:08:02 2023, MaxMem=   536870912 cpu:              20.8 elap:              10.7
 (Enter /opt/software/gaussian/g16.c01/l508.exe)
 QCSCF skips out because SCF is already converged.
 Leave Link  508 at Tue Jan  3 09:08:02 2023, MaxMem=   536870912 cpu:               0.0 elap:               0.0
 (Enter /opt/software/gaussian/g16.c01/l601.exe)
 Copying SCF densities to generalized density rwf, IOpCl= 1 IROHF=0.

 **********************************************************************

            Population analysis using the SCF Density.

 **********************************************************************

 Alpha  occ. eigenvalues --  -89.13400 -19.24767 -10.33797  -8.15550  -6.10230
 Alpha  occ. eigenvalues --   -6.10217  -6.09783  -1.13977  -0.89776  -0.69644
 Alpha  occ. eigenvalues --   -0.57680  -0.54742  -0.50575  -0.47340  -0.36820
 Alpha  occ. eigenvalues --   -0.35245
 Alpha virt. eigenvalues --   -0.01747   0.09092   0.13418   0.16457   0.18400
 Alpha virt. eigenvalues --    0.21978   0.28125   0.28177   0.34587   0.36657
 Alpha virt. eigenvalues --    0.37652   0.39954   0.43857   0.46843   0.48229
 Alpha virt. eigenvalues --    0.49393   0.53109   0.60748   0.60774   0.65006
 Alpha virt. eigenvalues --    0.69808   0.71594   0.75971   0.84748   0.90866
 Alpha virt. eigenvalues --    0.99189   1.01610   1.05867   1.07428   1.38720
 Alpha virt. eigenvalues --    1.40760   1.47511   1.49792   1.52144   1.54162
 Alpha virt. eigenvalues --    1.54635   1.59237   1.63341   1.64454   1.64990
 Alpha virt. eigenvalues --    1.70232   1.73699   1.79676   1.81177   1.83322
 Alpha virt. eigenvalues --    1.84799   1.88471   1.97143   2.10561   2.17985
 Alpha virt. eigenvalues --    2.18790   2.21280   2.28537   2.35789   2.38428
 Alpha virt. eigenvalues --    2.45129   2.52261   2.58906   2.63710   2.74416
 Alpha virt. eigenvalues --    2.83969   2.86146   3.00257   3.01258   3.02290
 Alpha virt. eigenvalues --    3.15968   3.21415   3.26645   3.31612   3.39740
 Alpha virt. eigenvalues --    3.50369   3.51584   3.68425   3.73772   3.92608
 Alpha virt. eigenvalues --    4.16619   4.45079   5.23993   5.24045   5.30923
 Alpha virt. eigenvalues --    5.33086   5.45480   5.56031   5.60413   6.37159
 Alpha virt. eigenvalues --    6.39096   6.71463   6.77612   6.94567   8.86205
 Alpha virt. eigenvalues --    9.18176   9.54960  20.78390  21.99804  43.48334
  Beta  occ. eigenvalues --  -89.13400 -19.24767 -10.33797  -8.15550  -6.10230
  Beta  occ. eigenvalues --   -6.10217  -6.09783  -1.13977  -0.89776  -0.69644
  Beta  occ. eigenvalues --   -0.57680  -0.54742  -0.50575  -0.47340  -0.36820
  Beta  occ. eigenvalues --   -0.35245
  Beta virt. eigenvalues --   -0.01747   0.09092   0.13418   0.16457   0.18400
  Beta virt. eigenvalues --    0.21978   0.28125   0.28177   0.34587   0.36657
  Beta virt. eigenvalues --    0.37652   0.39954   0.43857   0.46843   0.48229
  Beta virt. eigenvalues --    0.49393   0.53109   0.60748   0.60774   0.65006
  Beta virt. eigenvalues --    0.69808   0.71594   0.75971   0.84748   0.90866
  Beta virt. eigenvalues --    0.99189   1.01610   1.05867   1.07428   1.38720
  Beta virt. eigenvalues --    1.40760   1.47511   1.49792   1.52144   1.54162
  Beta virt. eigenvalues --    1.54635   1.59237   1.63341   1.64454   1.64990
  Beta virt. eigenvalues --    1.70232   1.73699   1.79676   1.81177   1.83322
  Beta virt. eigenvalues --    1.84799   1.88471   1.97143   2.10561   2.17985
  Beta virt. eigenvalues --    2.18790   2.21280   2.28537   2.35789   2.38428
  Beta virt. eigenvalues --    2.45129   2.52261   2.58906   2.63710   2.74416
  Beta virt. eigenvalues --    2.83969   2.86146   3.00257   3.01258   3.02290
  Beta virt. eigenvalues --    3.15968   3.21415   3.26645   3.31612   3.39740
  Beta virt. eigenvalues --    3.50369   3.51584   3.68425   3.73772   3.92608
  Beta virt. eigenvalues --    4.16619   4.45079   5.23993   5.24045   5.30923
  Beta virt. eigenvalues --    5.33086   5.45480   5.56031   5.60413   6.37159
  Beta virt. eigenvalues --    6.39096   6.71463   6.77612   6.94567   8.86205
  Beta virt. eigenvalues --    9.18176   9.54960  20.78390  21.99804  43.48334
          Condensed to atoms (all electrons):
               1          2          3          4          5
     1  C    5.058525   0.538638  -0.051575   0.371379   0.411423
     2  S    0.538638  14.682400   0.377037  -0.018802  -0.037691
     3  O   -0.051575   0.377037   8.146740   0.003671   0.002291
     4  H    0.371379  -0.018802   0.003671   0.494655  -0.014786
     5  H    0.411423  -0.037691   0.002291  -0.014786   0.454513
          Atomic-Atomic Spin Densities.
               1          2          3          4          5
     1  C    0.000000   0.000000   0.000000   0.000000   0.000000
     2  S    0.000000   0.000000   0.000000   0.000000   0.000000
     3  O    0.000000   0.000000   0.000000   0.000000   0.000000
     4  H    0.000000   0.000000   0.000000   0.000000   0.000000
     5  H    0.000000   0.000000   0.000000   0.000000   0.000000
 Mulliken charges and spin densities:
               1          2
     1  C   -0.328389   0.000000
     2  S    0.458418   0.000000
     3  O   -0.478164   0.000000
     4  H    0.163884   0.000000
     5  H    0.184251   0.000000
 Sum of Mulliken charges =  -0.00000   0.00000
 Mulliken charges and spin densities with hydrogens summed into heavy atoms:
               1          2
     1  C    0.019746   0.000000
     2  S    0.458418   0.000000
     3  O   -0.478164   0.000000
 Electronic spatial extent (au):  <R**2>=            827.2879
 Charge=             -0.0000 electrons
 Dipole moment (field-independent basis, Debye):
    X=             -2.3506    Y=              1.1082    Z=              1.9400  Tot=              3.2430
 Quadrupole moment (field-independent basis, Debye-Ang):
   XX=            -33.4856   YY=            -25.2727   ZZ=            -26.8224
   XY=              3.7601   XZ=              6.7381   YZ=             -1.1689
 Traceless Quadrupole moment (field-independent basis, Debye-Ang):
   XX=             -4.9587   YY=              3.2542   ZZ=              1.7045
   XY=              3.7601   XZ=              6.7381   YZ=             -1.1689
 Octapole moment (field-independent basis, Debye-Ang**2):
  XXX=           -196.3220  YYY=             13.8419  ZZZ=             32.8087  XYY=            -57.0709
  XXY=             16.6425  XXZ=             31.3465  XZZ=            -65.2881  YZZ=              7.2498
  YYZ=             10.8085  XYZ=             -6.4695
 Hexadecapole moment (field-independent basis, Debye-Ang**3):
 XXXX=           -990.0063 YYYY=            -46.4382 ZZZZ=            -96.9207 XXXY=             80.8844
 XXXZ=            154.5543 YYYX=             42.7001 YYYZ=            -18.2610 ZZZX=             97.2511
 ZZZY=            -20.1264 XXYY=           -160.8264 XXZZ=           -196.1496 YYZZ=            -24.3832
 XXYZ=            -27.6650 YYXZ=             31.8037 ZZXY=             22.3732
 N-N= 1.027531034782D+02 E-N=-1.420988014724D+03  KE= 5.114405526602D+02
                          Isotropic Fermi Contact Couplings
        Atom                 a.u.       MegaHertz       Gauss      10(-4) cm-1
     1  C(13)              0.00000       0.00000       0.00000       0.00000
     2  S(33)              0.00000       0.00000       0.00000       0.00000
     3  O(17)              0.00000      -0.00000      -0.00000      -0.00000
     4  H(1)               0.00000       0.00000       0.00000       0.00000
     5  H(1)               0.00000       0.00000       0.00000       0.00000
 --------------------------------------------------------
       Center         ----  Spin Dipole Couplings  ----
                      3XX-RR        3YY-RR        3ZZ-RR
 --------------------------------------------------------
     1   Atom        0.000000      0.000000      0.000000
     2   Atom        0.000000      0.000000      0.000000
     3   Atom        0.000000      0.000000      0.000000
     4   Atom        0.000000      0.000000      0.000000
     5   Atom        0.000000      0.000000      0.000000
 --------------------------------------------------------
                        XY            XZ            YZ
 --------------------------------------------------------
     1   Atom        0.000000      0.000000      0.000000
     2   Atom        0.000000      0.000000      0.000000
     3   Atom        0.000000      0.000000      0.000000
     4   Atom        0.000000      0.000000      0.000000
     5   Atom        0.000000      0.000000      0.000000
 --------------------------------------------------------


 ---------------------------------------------------------------------------------
              Anisotropic Spin Dipole Couplings in Principal Axis System
 ---------------------------------------------------------------------------------

       Atom             a.u.   MegaHertz   Gauss  10(-4) cm-1        Axes

              Baa     0.0000     0.000     0.000     0.000  1.0000  0.0000  0.0000
     1 C(13)  Bbb     0.0000     0.000     0.000     0.000 -0.0000  1.0000  0.0000
              Bcc     0.0000     0.000     0.000     0.000  0.0000  0.0000  1.0000
 
              Baa     0.0000     0.000     0.000     0.000  1.0000  0.0000  0.0000
     2 S(33)  Bbb     0.0000     0.000     0.000     0.000 -0.0000  1.0000  0.0000
              Bcc     0.0000     0.000     0.000     0.000  0.0000  0.0000  1.0000
 
              Baa     0.0000    -0.000    -0.000    -0.000  1.0000  0.0000  0.0000
     3 O(17)  Bbb     0.0000    -0.000    -0.000    -0.000 -0.0000  1.0000  0.0000
              Bcc     0.0000    -0.000    -0.000    -0.000  0.0000  0.0000  1.0000
 
              Baa     0.0000     0.000     0.000     0.000  1.0000  0.0000  0.0000
     4 H(1)   Bbb     0.0000     0.000     0.000     0.000 -0.0000  1.0000  0.0000
              Bcc     0.0000     0.000     0.000     0.000  0.0000  0.0000  1.0000
 
              Baa     0.0000     0.000     0.000     0.000  1.0000  0.0000  0.0000
     5 H(1)   Bbb     0.0000     0.000     0.000     0.000 -0.0000  1.0000  0.0000
              Bcc     0.0000     0.000     0.000     0.000  0.0000  0.0000  1.0000
 

 ---------------------------------------------------------------------------------

 No NMR shielding tensors so no spin-rotation constants.
 Leave Link  601 at Tue Jan  3 09:08:02 2023, MaxMem=   536870912 cpu:               0.3 elap:               0.2
 (Enter /opt/software/gaussian/g16.c01/l801.exe)
 DoSCS=F DFT=T ScalE2(SS,OS)=  1.000000  1.000000
 Range of M.O.s used for correlation:     1   111
 NBasis=   111 NAE=    16 NBE=    16 NFC=     0 NFV=     0
 NROrb=    111 NOA=    16 NOB=    16 NVA=    95 NVB=    95

 **** Warning!!: The largest alpha MO coefficient is  0.10149851D+02


 **** Warning!!: The largest beta MO coefficient is  0.10149851D+02

 Leave Link  801 at Tue Jan  3 09:08:02 2023, MaxMem=   536870912 cpu:               0.1 elap:               0.0
 (Enter /opt/software/gaussian/g16.c01/l914.exe)
 UHF ground state
 Doing stability rather than CIS.
 Keep R1 and R2 ints in memory in canonical form, NReq=82212518.
 FoFCou: FMM=F IPFlag=           0 FMFlag=           0 FMFlg1=           0
         NFxFlg=           0 DoJE=F BraDBF=F KetDBF=F FulRan=T
         wScrn=  0.000000 ICntrl=       600 IOpCl=  0 I1Cent=           0 NGrid=           0
         NMat0=    1 NMatS0=   6216 NMatT0=    0 NMatD0=    1 NMtDS0=    0 NMtDT0=    0
 Symmetry not used in FoFCou.
 Two-electron integral symmetry not used.
 MDV=   536870912 DFT=T DoStab=T Mixed=T DoRPA=F DoScal=F NonHer=F
 Making orbital integer symmetry assigments:
    12 initial guesses have been made.
 Convergence on wavefunction:    0.001000000000000
 Davidson Disk Diagonalization:  ConvIn= 1.00D-03 SkipCon=T Conv= 1.00D-03.
 Max sub-space:  2000 roots to seek:    12 dimension of matrix:         3040
 Iteration     1 Dimension    12 NMult     0 NNew     12
 CISAX will form    12 AO SS matrices at one time.
 NMat=    12 NSing=    12 JSym2X= 0.
 New state      1 was old state      2
 Excitation Energies [eV] at current iteration:
 Root      1 :     1.608889284357716
 Root      2 :     3.295539029681373
 Root      3 :     4.634985641855635
 Root      4 :     5.863556594078145
 Root      5 :     6.255682550031455
 Root      6 :     6.559906474011944
 Root      7 :     6.613433796978508
 Root      8 :     7.436409498131217
 Root      9 :     7.868562891728906
 Root     10 :     8.363200002354692
 Root     11 :     8.795199622148703
 Root     12 :    12.070218177031032
 Iteration     2 Dimension    24 NMult    12 NNew     12
 CISAX will form    12 AO SS matrices at one time.
 NMat=    12 NSing=    12 JSym2X= 0.
 Root      1 not converged, maximum delta is    0.072307430399689
 Excitation Energies [eV] at current iteration:
 Root      1 :     1.120800951436193   Change is   -0.488088332921523
 Root      2 :     2.973610061126404   Change is   -0.321928968554969
 Root      3 :     4.321541977075444   Change is   -0.313443664780190
 Root      4 :     5.504322708073254   Change is   -0.359233886004892
 Root      5 :     5.718381848507945   Change is   -0.537300701523510
 Root      6 :     6.059253501013977   Change is   -6.010964676017055
 Root      7 :     6.344101427755652   Change is   -0.215805046256293
 Root      8 :     6.439403481600435   Change is   -0.174030315378073
 Root      9 :     7.335845778932995   Change is   -0.100563719198222
 Root     10 :     7.500434286642473   Change is   -0.368128605086433
 Root     11 :     7.969418329699711   Change is   -0.393781672654981
 Root     12 :     8.615865297916608   Change is   -0.179334324232095
 Iteration     3 Dimension    27 NMult    24 NNew      3
 CISAX will form     3 AO SS matrices at one time.
 NMat=     3 NSing=     3 JSym2X= 0.
 Root      1 not converged, maximum delta is    0.016977005801649
 Excitation Energies [eV] at current iteration:
 Root      1 :     1.106902152572614   Change is   -0.013898798863579
 Root      2 :     2.961384385156046   Change is   -0.012225675970358
 Root      3 :     4.300569556373233   Change is   -0.020972420702212
 Iteration     4 Dimension    30 NMult    27 NNew      3
 CISAX will form     3 AO SS matrices at one time.
 NMat=     3 NSing=     3 JSym2X= 0.
 Root      1 not converged, maximum delta is    0.006672842793023
 Excitation Energies [eV] at current iteration:
 Root      1 :     1.105520411440823   Change is   -0.001381741131790
 Root      2 :     2.960341941884080   Change is   -0.001042443271966
 Root      3 :     4.299497123529115   Change is   -0.001072432844118
 Iteration     5 Dimension    33 NMult    30 NNew      3
 CISAX will form     3 AO SS matrices at one time.
 NMat=     3 NSing=     3 JSym2X= 0.
 Root      1 not converged, maximum delta is    0.001614727131849
 Excitation Energies [eV] at current iteration:
 Root      1 :     1.105418351076080   Change is   -0.000102060364744
 Root      2 :     2.960287545241453   Change is   -0.000054396642627
 Root      3 :     4.299426219996599   Change is   -0.000070903532516
 Iteration     6 Dimension    36 NMult    33 NNew      3
 CISAX will form     3 AO SS matrices at one time.
 NMat=     3 NSing=     3 JSym2X= 0.
 Root      1 has converged.
 Excitation Energies [eV] at current iteration:
 Root      1 :     1.105410794925656   Change is   -0.000007556150423
 Root      2 :     2.960285706103090   Change is   -0.000001839138363
 Root      3 :     4.299423357015904   Change is   -0.000002862980695
 Convergence achieved on expansion vectors.
 ***********************************************************************
 Stability analysis using <AA,BB:AA,BB> singles matrix:
 ***********************************************************************
 1PDM for each excited state written to RWF  633
 Ground to excited state transition densities written to RWF  633

 Eigenvectors of the stability matrix:
 
 Excited state symmetry could not be determined.
 Eigenvector   1:  3.000-?Sym  Eigenvalue= 0.0406231  <S**2>=2.000
     16A -> 17A        0.69261
     16B -> 17B       -0.69261
 The wavefunction is stable under the perturbations considered.
 Leave Link  914 at Tue Jan  3 09:08:50 2023, MaxMem=   536870912 cpu:              95.8 elap:              47.9
 (Enter /opt/software/gaussian/g16.c01/l508.exe)
 The wavefunction is already stable.
 Leave Link  508 at Tue Jan  3 09:08:50 2023, MaxMem=   536870912 cpu:               0.0 elap:               0.0
 (Enter /opt/software/gaussian/g16.c01/l601.exe)
 Copying SCF densities to generalized density rwf, IOpCl= 1 IROHF=0.

 **********************************************************************

            Population analysis using the SCF Density.

 **********************************************************************

 Alpha  occ. eigenvalues --  -89.13400 -19.24767 -10.33797  -8.15550  -6.10230
 Alpha  occ. eigenvalues --   -6.10217  -6.09783  -1.13977  -0.89776  -0.69644
 Alpha  occ. eigenvalues --   -0.57680  -0.54742  -0.50575  -0.47340  -0.36820
 Alpha  occ. eigenvalues --   -0.35245
 Alpha virt. eigenvalues --   -0.01747   0.09092   0.13418   0.16457   0.18400
 Alpha virt. eigenvalues --    0.21978   0.28125   0.28177   0.34587   0.36657
 Alpha virt. eigenvalues --    0.37652   0.39954   0.43857   0.46843   0.48229
 Alpha virt. eigenvalues --    0.49393   0.53109   0.60748   0.60774   0.65006
 Alpha virt. eigenvalues --    0.69808   0.71594   0.75971   0.84748   0.90866
 Alpha virt. eigenvalues --    0.99189   1.01610   1.05867   1.07428   1.38720
 Alpha virt. eigenvalues --    1.40760   1.47511   1.49792   1.52144   1.54162
 Alpha virt. eigenvalues --    1.54635   1.59237   1.63341   1.64454   1.64990
 Alpha virt. eigenvalues --    1.70232   1.73699   1.79676   1.81177   1.83322
 Alpha virt. eigenvalues --    1.84799   1.88471   1.97143   2.10561   2.17985
 Alpha virt. eigenvalues --    2.18790   2.21280   2.28537   2.35789   2.38428
 Alpha virt. eigenvalues --    2.45129   2.52261   2.58906   2.63710   2.74416
 Alpha virt. eigenvalues --    2.83969   2.86146   3.00257   3.01258   3.02290
 Alpha virt. eigenvalues --    3.15968   3.21415   3.26645   3.31612   3.39740
 Alpha virt. eigenvalues --    3.50369   3.51584   3.68425   3.73772   3.92608
 Alpha virt. eigenvalues --    4.16619   4.45079   5.23993   5.24045   5.30923
 Alpha virt. eigenvalues --    5.33086   5.45480   5.56031   5.60413   6.37159
 Alpha virt. eigenvalues --    6.39096   6.71463   6.77612   6.94567   8.86205
 Alpha virt. eigenvalues --    9.18176   9.54960  20.78390  21.99804  43.48334
  Beta  occ. eigenvalues --  -89.13400 -19.24767 -10.33797  -8.15550  -6.10230
  Beta  occ. eigenvalues --   -6.10217  -6.09783  -1.13977  -0.89776  -0.69644
  Beta  occ. eigenvalues --   -0.57680  -0.54742  -0.50575  -0.47340  -0.36820
  Beta  occ. eigenvalues --   -0.35245
  Beta virt. eigenvalues --   -0.01747   0.09092   0.13418   0.16457   0.18400
  Beta virt. eigenvalues --    0.21978   0.28125   0.28177   0.34587   0.36657
  Beta virt. eigenvalues --    0.37652   0.39954   0.43857   0.46843   0.48229
  Beta virt. eigenvalues --    0.49393   0.53109   0.60748   0.60774   0.65006
  Beta virt. eigenvalues --    0.69808   0.71594   0.75971   0.84748   0.90866
  Beta virt. eigenvalues --    0.99189   1.01610   1.05867   1.07428   1.38720
  Beta virt. eigenvalues --    1.40760   1.47511   1.49792   1.52144   1.54162
  Beta virt. eigenvalues --    1.54635   1.59237   1.63341   1.64454   1.64990
  Beta virt. eigenvalues --    1.70232   1.73699   1.79676   1.81177   1.83322
  Beta virt. eigenvalues --    1.84799   1.88471   1.97143   2.10561   2.17985
  Beta virt. eigenvalues --    2.18790   2.21280   2.28537   2.35789   2.38428
  Beta virt. eigenvalues --    2.45129   2.52261   2.58906   2.63710   2.74416
  Beta virt. eigenvalues --    2.83969   2.86146   3.00257   3.01258   3.02290
  Beta virt. eigenvalues --    3.15968   3.21415   3.26645   3.31612   3.39740
  Beta virt. eigenvalues --    3.50369   3.51584   3.68425   3.73772   3.92608
  Beta virt. eigenvalues --    4.16619   4.45079   5.23993   5.24045   5.30923
  Beta virt. eigenvalues --    5.33086   5.45480   5.56031   5.60413   6.37159
  Beta virt. eigenvalues --    6.39096   6.71463   6.77612   6.94567   8.86205
  Beta virt. eigenvalues --    9.18176   9.54960  20.78390  21.99804  43.48334
          Condensed to atoms (all electrons):
               1          2          3          4          5
     1  C    5.058525   0.538638  -0.051575   0.371379   0.411423
     2  S    0.538638  14.682400   0.377037  -0.018802  -0.037691
     3  O   -0.051575   0.377037   8.146740   0.003671   0.002291
     4  H    0.371379  -0.018802   0.003671   0.494655  -0.014786
     5  H    0.411423  -0.037691   0.002291  -0.014786   0.454513
          Atomic-Atomic Spin Densities.
               1          2          3          4          5
     1  C    0.000000   0.000000   0.000000   0.000000   0.000000
     2  S    0.000000   0.000000   0.000000   0.000000   0.000000
     3  O    0.000000   0.000000   0.000000   0.000000   0.000000
     4  H    0.000000   0.000000   0.000000   0.000000   0.000000
     5  H    0.000000   0.000000   0.000000   0.000000   0.000000
 Mulliken charges and spin densities:
               1          2
     1  C   -0.328389   0.000000
     2  S    0.458418   0.000000
     3  O   -0.478164   0.000000
     4  H    0.163884   0.000000
     5  H    0.184251   0.000000
 Sum of Mulliken charges =  -0.00000   0.00000
 Mulliken charges and spin densities with hydrogens summed into heavy atoms:
               1          2
     1  C    0.019746   0.000000
     2  S    0.458418   0.000000
     3  O   -0.478164   0.000000
 Electronic spatial extent (au):  <R**2>=            827.2879
 Charge=             -0.0000 electrons
 Dipole moment (field-independent basis, Debye):
    X=             -2.3506    Y=              1.1082    Z=              1.9400  Tot=              3.2430
 Quadrupole moment (field-independent basis, Debye-Ang):
   XX=            -33.4856   YY=            -25.2727   ZZ=            -26.8224
   XY=              3.7601   XZ=              6.7381   YZ=             -1.1689
 Traceless Quadrupole moment (field-independent basis, Debye-Ang):
   XX=             -4.9587   YY=              3.2542   ZZ=              1.7045
   XY=              3.7601   XZ=              6.7381   YZ=             -1.1689
 Octapole moment (field-independent basis, Debye-Ang**2):
  XXX=           -196.3220  YYY=             13.8419  ZZZ=             32.8087  XYY=            -57.0709
  XXY=             16.6425  XXZ=             31.3465  XZZ=            -65.2881  YZZ=              7.2498
  YYZ=             10.8085  XYZ=             -6.4695
 Hexadecapole moment (field-independent basis, Debye-Ang**3):
 XXXX=           -990.0063 YYYY=            -46.4382 ZZZZ=            -96.9207 XXXY=             80.8844
 XXXZ=            154.5543 YYYX=             42.7001 YYYZ=            -18.2610 ZZZX=             97.2511
 ZZZY=            -20.1264 XXYY=           -160.8264 XXZZ=           -196.1496 YYZZ=            -24.3832
 XXYZ=            -27.6650 YYXZ=             31.8037 ZZXY=             22.3732
 N-N= 1.027531034782D+02 E-N=-1.420988014724D+03  KE= 5.114405526602D+02
                          Isotropic Fermi Contact Couplings
        Atom                 a.u.       MegaHertz       Gauss      10(-4) cm-1
     1  C(13)              0.00000       0.00000       0.00000       0.00000
     2  S(33)              0.00000       0.00000       0.00000       0.00000
     3  O(17)              0.00000      -0.00000      -0.00000      -0.00000
     4  H(1)               0.00000       0.00000       0.00000       0.00000
     5  H(1)               0.00000       0.00000       0.00000       0.00000
 --------------------------------------------------------
       Center         ----  Spin Dipole Couplings  ----
                      3XX-RR        3YY-RR        3ZZ-RR
 --------------------------------------------------------
     1   Atom        0.000000      0.000000      0.000000
     2   Atom        0.000000      0.000000      0.000000
     3   Atom        0.000000      0.000000      0.000000
     4   Atom        0.000000      0.000000      0.000000
     5   Atom        0.000000      0.000000      0.000000
 --------------------------------------------------------
                        XY            XZ            YZ
 --------------------------------------------------------
     1   Atom        0.000000      0.000000      0.000000
     2   Atom        0.000000      0.000000      0.000000
     3   Atom        0.000000      0.000000      0.000000
     4   Atom        0.000000      0.000000      0.000000
     5   Atom        0.000000      0.000000      0.000000
 --------------------------------------------------------


 ---------------------------------------------------------------------------------
              Anisotropic Spin Dipole Couplings in Principal Axis System
 ---------------------------------------------------------------------------------

       Atom             a.u.   MegaHertz   Gauss  10(-4) cm-1        Axes

              Baa     0.0000     0.000     0.000     0.000  1.0000  0.0000  0.0000
     1 C(13)  Bbb     0.0000     0.000     0.000     0.000 -0.0000  1.0000  0.0000
              Bcc     0.0000     0.000     0.000     0.000  0.0000  0.0000  1.0000
 
              Baa     0.0000     0.000     0.000     0.000  1.0000  0.0000  0.0000
     2 S(33)  Bbb     0.0000     0.000     0.000     0.000 -0.0000  1.0000  0.0000
              Bcc     0.0000     0.000     0.000     0.000  0.0000  0.0000  1.0000
 
              Baa     0.0000    -0.000    -0.000    -0.000  1.0000  0.0000  0.0000
     3 O(17)  Bbb     0.0000    -0.000    -0.000    -0.000 -0.0000  1.0000  0.0000
              Bcc     0.0000    -0.000    -0.000    -0.000  0.0000  0.0000  1.0000
 
              Baa     0.0000     0.000     0.000     0.000  1.0000  0.0000  0.0000
     4 H(1)   Bbb     0.0000     0.000     0.000     0.000 -0.0000  1.0000  0.0000
              Bcc     0.0000     0.000     0.000     0.000  0.0000  0.0000  1.0000
 
              Baa     0.0000     0.000     0.000     0.000  1.0000  0.0000  0.0000
     5 H(1)   Bbb     0.0000     0.000     0.000     0.000 -0.0000  1.0000  0.0000
              Bcc     0.0000     0.000     0.000     0.000  0.0000  0.0000  1.0000
 

 ---------------------------------------------------------------------------------

 No NMR shielding tensors so no spin-rotation constants.
 Leave Link  601 at Tue Jan  3 09:08:50 2023, MaxMem=   536870912 cpu:               0.4 elap:               0.2
 (Enter /opt/software/gaussian/g16.c01/l9999.exe)

 Test job not archived.
 1\1\GINC-GRA704\Stability\UwB97XD\Gen\C1H2O1S1\BHAVUK\03-Jan-2023\0\\#
 p uwb97xd/gen stable=opt scf=(maxcycle=900,verytightlineq,xqc) integra
 l=grid=ultrafine symmetry=None density=current iop(99/18=-1) output=wf
 n\\0005_q000_m01_k00_opt_uwb97xd_def2svpd/0005_q000_m01_k00_force_uwb9
 7xd_def2tzvp stable-force\\0,1\C,0,0.9770245042,-0.0197961728,-0.10082
 73286\S,0,2.5880021429,-0.0345660623,-0.126439068\O,0,3.1712397907,-0.
 7143116203,-1.3164938758\H,0,0.5180717789,0.4715880124,0.7588975415\H,
 0,0.3708017881,-0.4702041579,-0.8890472689\\Version=ES64L-G16RevC.01\H
 F=-512.6918649\S2=0.\S2-1=0.\S2A=0.\RMSD=3.358e-09\Dipole=-0.9247864,0
 .4360173,0.7632673\Quadrupole=-3.6866711,2.4194008,1.2672703,2.7955173
 ,5.0095892,-0.8690224\PG=Unknown\\@

 Writing a WFN file to "0005_q000_m01_k00_force_uwb97xd_def2tzvp.wfn"


 Any fool can criticize, condemn, and complain -- and most do.
 -- Dale Carnegie
 Job cpu time:       0 days  0 hours  2 minutes  0.5 seconds.
 Elapsed time:       0 days  0 hours  1 minutes  0.4 seconds.
 File lengths (MBytes):  RWF=     92 Int=      0 D2E=      0 Chk=      3 Scr=      1
 Normal termination of Gaussian 16 at Tue Jan  3 09:08:51 2023.
 Initial command:
 /opt/software/gaussian/g16.c01/l1.exe "/localscratch/bhavuk.2151426.0/Gau-23411.inp" -scrdir="/localscratch/bhavuk.2151426.0/"
 Entering Link 1 = /opt/software/gaussian/g16.c01/l1.exe PID=     24655.
  
 Copyright (c) 1988-2019, Gaussian, Inc.  All Rights Reserved.
  
 This is part of the Gaussian(R) 16 program.  It is based on
 the Gaussian(R) 09 system (copyright 2009, Gaussian, Inc.),
 the Gaussian(R) 03 system (copyright 2003, Gaussian, Inc.),
 the Gaussian(R) 98 system (copyright 1998, Gaussian, Inc.),
 the Gaussian(R) 94 system (copyright 1995, Gaussian, Inc.),
 the Gaussian 92(TM) system (copyright 1992, Gaussian, Inc.),
 the Gaussian 90(TM) system (copyright 1990, Gaussian, Inc.),
 the Gaussian 88(TM) system (copyright 1988, Gaussian, Inc.),
 the Gaussian 86(TM) system (copyright 1986, Carnegie Mellon
 University), and the Gaussian 82(TM) system (copyright 1983,
 Carnegie Mellon University). Gaussian is a federally registered
 trademark of Gaussian, Inc.
  
 This software contains proprietary and confidential information,
 including trade secrets, belonging to Gaussian, Inc.
  
 This software is provided under written license and may be
 used, copied, transmitted, or stored only in accord with that
 written license.
  
 The following legend is applicable only to US Government
 contracts under FAR:
  
                    RESTRICTED RIGHTS LEGEND
  
 Use, reproduction and disclosure by the US Government is
 subject to restrictions as set forth in subparagraphs (a)
 and (c) of the Commercial Computer Software - Restricted
 Rights clause in FAR 52.227-19.
  
 Gaussian, Inc.
 340 Quinnipiac St., Bldg. 40, Wallingford CT 06492
  
  
 ---------------------------------------------------------------
 Warning -- This program may not be used in any manner that
 competes with the business of Gaussian, Inc. or will provide
 assistance to any competitor of Gaussian, Inc.  The licensee
 of this program is prohibited from giving any competitor of
 Gaussian, Inc. access to this program.  By using this program,
 the user acknowledges that Gaussian, Inc. is engaged in the
 business of creating and licensing software in the field of
 computational chemistry and represents and warrants to the
 licensee that it is not a competitor of Gaussian, Inc. and that
 it will not use this program in any manner prohibited above.
 ---------------------------------------------------------------
  

 Cite this work as:
 Gaussian 16, Revision C.01,
 M. J. Frisch, G. W. Trucks, H. B. Schlegel, G. E. Scuseria, 
 M. A. Robb, J. R. Cheeseman, G. Scalmani, V. Barone, 
 G. A. Petersson, H. Nakatsuji, X. Li, M. Caricato, A. V. Marenich, 
 J. Bloino, B. G. Janesko, R. Gomperts, B. Mennucci, H. P. Hratchian, 
 J. V. Ortiz, A. F. Izmaylov, J. L. Sonnenberg, D. Williams-Young, 
 F. Ding, F. Lipparini, F. Egidi, J. Goings, B. Peng, A. Petrone, 
 T. Henderson, D. Ranasinghe, V. G. Zakrzewski, J. Gao, N. Rega, 
 G. Zheng, W. Liang, M. Hada, M. Ehara, K. Toyota, R. Fukuda, 
 J. Hasegawa, M. Ishida, T. Nakajima, Y. Honda, O. Kitao, H. Nakai, 
 T. Vreven, K. Throssell, J. A. Montgomery, Jr., J. E. Peralta, 
 F. Ogliaro, M. J. Bearpark, J. J. Heyd, E. N. Brothers, K. N. Kudin, 
 V. N. Staroverov, T. A. Keith, R. Kobayashi, J. Normand, 
 K. Raghavachari, A. P. Rendell, J. C. Burant, S. S. Iyengar, 
 J. Tomasi, M. Cossi, J. M. Millam, M. Klene, C. Adamo, R. Cammi, 
 J. W. Ochterski, R. L. Martin, K. Morokuma, O. Farkas, 
 J. B. Foresman, and D. J. Fox, Gaussian, Inc., Wallingford CT, 2019.
 
 ******************************************
 Gaussian 16:  ES64L-G16RevC.01  3-Jul-2019
                 3-Jan-2023 
 ******************************************
 %chk=0005_q000_m01_k00_force_uwb97xd_def2tzvp.chk
 %nprocshared=2
 Will use up to    2 processors via shared memory.
 %mem=4GB
 ----------------------------------------------------------------------
 #p uwb97xd/chkbasis force guess=read geom=check scf=(maxcycle=900,very
 tightlineq,xqc) integral=grid=ultrafine symmetry=None density=current 
 pop=(cm5,hlygat,mbs,npa) output=wfx
 ----------------------------------------------------------------------
 1/10=7,29=2,30=1,38=1/1,3;
 2/12=2,15=3,40=1/2;
 3/5=7,6=2,11=2,14=-4,25=1,30=1,67=1,71=1,74=-58,75=-5,116=2/1,2,3;
 4/5=1/1;
 5/5=2,7=900,8=3,13=1,17=3,38=6/2,8;
 6/7=2,8=2,9=2,10=2,15=8,20=15,22=-1,27=100,28=1,40=-1,79=1/1,2,7;
 7/29=1,30=1/1,2,3,16;
 1/10=7,30=1/3;
 99/6=200/99;
 Leave Link    1 at Tue Jan  3 09:08:51 2023, MaxMem=   536870912 cpu:               0.2 elap:               0.1
 (Enter /opt/software/gaussian/g16.c01/l101.exe)
 ----------------------------------------------------------------------
 0005_q000_m01_k00_opt_uwb97xd_def2svpd/0005_q000_m01_k00_force_uwb97xd
 _def2tzvp stable-force
 ----------------------------------------------------------------------
 Structure from the checkpoint file:  "0005_q000_m01_k00_force_uwb97xd_def2tzvp.chk"
 Charge =  0 Multiplicity = 1
 Z-Matrix found in chk file.
 C,0,0.9770245042,-0.0197961728,-0.1008273286
 S,0,2.5880021429,-0.0345660623,-0.126439068
 O,0,3.1712397907,-0.7143116203,-1.3164938758
 H,0,0.5180717789,0.4715880124,0.7588975415
 H,0,0.3708017881,-0.4702041579,-0.8890472689
 Recover connectivity data from disk.
 ITRead=  0  0  0  0  0
 MicOpt= -1 -1 -1 -1 -1
 NAtoms=      5 NQM=        5 NQMF=       0 NMMI=      0 NMMIF=      0
                NMic=       0 NMicF=      0.
                    Isotopes and Nuclear Properties:
 (Nuclear quadrupole moments (NQMom) in fm**2, nuclear magnetic moments (NMagM)
  in nuclear magnetons)

  Atom         1           2           3           4           5
 IAtWgt=          12          32          16           1           1
 AtmWgt=  12.0000000  31.9720718  15.9949146   1.0078250   1.0078250
 NucSpn=           0           0           0           1           1
 AtZEff=   3.6000000  13.6000000   5.6000000   1.0000000   1.0000000
 NQMom=    0.0000000   0.0000000   0.0000000   0.0000000   0.0000000
 NMagM=    0.0000000   0.0000000   0.0000000   2.7928460   2.7928460
 AtZNuc=   6.0000000  16.0000000   8.0000000   1.0000000   1.0000000
 Leave Link  101 at Tue Jan  3 09:08:51 2023, MaxMem=   536870912 cpu:               0.4 elap:               0.2
 (Enter /opt/software/gaussian/g16.c01/l103.exe)

 GradGradGradGradGradGradGradGradGradGradGradGradGradGradGradGradGradGrad
 Berny optimization.
 Initialization pass.
 Trust Radius=3.00D-01 FncErr=1.00D-07 GrdErr=1.00D-07 EigMax=2.50D+02 EigMin=1.00D-04
 Number of steps in this run=      2 maximum allowed number of steps=      2.
 GradGradGradGradGradGradGradGradGradGradGradGradGradGradGradGradGradGrad

 Leave Link  103 at Tue Jan  3 09:08:51 2023, MaxMem=   536870912 cpu:               0.1 elap:               0.0
 (Enter /opt/software/gaussian/g16.c01/l202.exe)
                          Input orientation:                          
 ---------------------------------------------------------------------
 Center     Atomic      Atomic             Coordinates (Angstroms)
 Number     Number       Type             X           Y           Z
 ---------------------------------------------------------------------
      1          6           0        0.977025   -0.019796   -0.100827
      2         16           0        2.588002   -0.034566   -0.126439
      3          8           0        3.171240   -0.714312   -1.316494
      4          1           0        0.518072    0.471588    0.758898
      5          1           0        0.370802   -0.470204   -0.889047
 ---------------------------------------------------------------------
                    Distance matrix (angstroms):
                    1          2          3          4          5
     1  C    0.000000
     2  S    1.611249   0.000000
     3  O    2.602840   1.489446   0.000000
     4  H    1.091432   2.307515   3.571121   0.000000
     5  H    1.091634   2.384812   2.843370   1.903781   0.000000
 Symmetry turned off by external request.
 Stoichiometry    CH2OS
 Rotational constants (GHZ):          39.0370487           9.3459813           7.5406507
 Leave Link  202 at Tue Jan  3 09:08:51 2023, MaxMem=   536870912 cpu:               0.0 elap:               0.0
 (Enter /opt/software/gaussian/g16.c01/l301.exe)
 Basis read from chk: "0005_q000_m01_k00_force_uwb97xd_def2tzvp.chk" (5D, 7F)
 No pseudopotential information found on chk file.
   111 basis functions,   187 primitive gaussians,   126 cartesian basis functions
    16 alpha electrons       16 beta electrons
       nuclear repulsion energy       102.7536228800 Hartrees.
 IExCor= 4639 DFT=T Ex+Corr=wB97XD ExCW=0 ScaHFX=  1.000000
 ScaDFX=  1.000000  1.000000  1.000000  1.000000 ScalE2=  1.000000  1.000000
 IRadAn=      5 IRanWt=     -1 IRanGd=            0 ICorTp=0 IEmpDi=121
 HFx  wShort=  0.000000 wLong=  0.200000 cFull=  0.222036 cShort=  0.000000 cLong=  0.777964
 DFx  wShort=  0.000000 wLong=  0.200000 cFull=  0.000000 cShort=  0.000000 cLong=  1.000000
 NAtoms=    5 NActive=    5 NUniq=    5 SFac= 1.00D+00 NAtFMM=   60 NAOKFM=F Big=F
 Integral buffers will be    131072 words long.
 Raffenetti 2 integral format.
 Two-electron integral symmetry is turned off.
 R6Disp:  Grimme-D2 Dispersion energy=       -0.0005194017 Hartrees.
 Nuclear repulsion after empirical dispersion term =      102.7531034782 Hartrees.
 No density basis found on file  20724.
 Leave Link  301 at Tue Jan  3 09:08:51 2023, MaxMem=   536870912 cpu:               0.1 elap:               0.1
 (Enter /opt/software/gaussian/g16.c01/l302.exe)
 NPDir=0 NMtPBC=     1 NCelOv=     1 NCel=       1 NClECP=     1 NCelD=      1
         NCelK=      1 NCelE2=     1 NClLst=     1 CellRange=     0.0.
 One-electron integrals computed using PRISM.
 NBasis=   111 RedAO= T EigKep=  1.23D-03  NBF=   111
 NBsUse=   111 1.00D-06 EigRej= -1.00D+00 NBFU=   111
 Precomputing XC quadrature grid using
 IXCGrd= 4 IRadAn=           5 IRanWt=          -1 IRanGd=           0 AccXCQ= 0.00D+00.
 Generated NRdTot=       0 NPtTot=           0 NUsed=           0 NTot=          32
 NSgBfM=   125   125   125   125   125 MxSgAt=     5 MxSgA2=     5.
 Leave Link  302 at Tue Jan  3 09:08:51 2023, MaxMem=   536870912 cpu:               0.3 elap:               0.2
 (Enter /opt/software/gaussian/g16.c01/l303.exe)
 DipDrv:  MaxL=1.
 Leave Link  303 at Tue Jan  3 09:08:51 2023, MaxMem=   536870912 cpu:               0.1 elap:               0.0
 (Enter /opt/software/gaussian/g16.c01/l401.exe)
 Initial guess from the checkpoint file:  "0005_q000_m01_k00_force_uwb97xd_def2tzvp.chk"
 B after Tr=     0.000000    0.000000    0.000000
         Rot=    1.000000    0.000000    0.000000    0.000000 Ang=   0.00 deg.
 Guess basis will be translated and rotated to current coordinates.
 JPrj=2 DoOrth=T DoCkMO=T.
 Initial guess <Sx>= 0.0000 <Sy>= 0.0000 <Sz>= 0.0000 <S**2>= 0.0000 S= 0.0000
 Leave Link  401 at Tue Jan  3 09:08:51 2023, MaxMem=   536870912 cpu:               0.2 elap:               0.1
 (Enter /opt/software/gaussian/g16.c01/l502.exe)
 Keep R1 and R2 ints in memory in canonical form, NReq=79989878.
 FoFCou: FMM=F IPFlag=           0 FMFlag=           0 FMFlg1=           0
         NFxFlg=           0 DoJE=F BraDBF=F KetDBF=F FulRan=T
         wScrn=  0.000000 ICntrl=       600 IOpCl=  0 I1Cent=           0 NGrid=           0
         NMat0=    1 NMatS0=   6216 NMatT0=    0 NMatD0=    1 NMtDS0=    0 NMtDT0=    0
 Symmetry not used in FoFCou.
 Two-electron integral symmetry not used.
 UHF open shell SCF:
 Using DIIS extrapolation, IDIIS=  1040.
 NGot=   536870912 LenX=   459547604 LenY=   459531287
 Requested convergence on RMS density matrix=1.00D-08 within 128 cycles.
 Requested convergence on MAX density matrix=1.00D-06.
 Requested convergence on             energy=1.00D-06.
 No special actions if energy rises.

 Cycle   1  Pass 1  IDiag  1:
 E= -512.691864871705    
 DIIS: error= 3.93D-09 at cycle   1 NSaved=   1.
 NSaved= 1 IEnMin= 1 EnMin= -512.691864871705     IErMin= 1 ErrMin= 3.93D-09
 ErrMax= 3.93D-09  0.00D+00 EMaxC= 1.00D-01 BMatC= 8.86D-15 BMatP= 8.86D-15
 IDIUse=1 WtCom= 1.00D+00 WtEn= 0.00D+00
 Coeff-Com:  0.100D+01
 Coeff:      0.100D+01
 Gap=     0.335 Goal=   None    Shift=    0.000
 Gap=     0.335 Goal=   None    Shift=    0.000
 RMSDP=8.05D-10 MaxDP=2.12D-08              OVMax= 2.74D-08

 SCF Done:  E(UwB97XD) =  -512.691864872     A.U. after    1 cycles
            NFock=  1  Conv=0.81D-09     -V/T= 2.0024
 <Sx>= 0.0000 <Sy>= 0.0000 <Sz>= 0.0000 <S**2>= 0.0000 S= 0.0000
 <L.S>=  0.00000000000    
 KE= 5.114405521816D+02 PE=-1.420988014246D+03 EE= 2.941024937143D+02
 Annihilation of the first spin contaminant:
 S**2 before annihilation    -0.0000,   after    -0.0000
 Leave Link  502 at Tue Jan  3 09:08:54 2023, MaxMem=   536870912 cpu:               5.4 elap:               2.7
 (Enter /opt/software/gaussian/g16.c01/l508.exe)
 QCSCF skips out because SCF is already converged.
 Leave Link  508 at Tue Jan  3 09:08:54 2023, MaxMem=   536870912 cpu:               0.0 elap:               0.0
 (Enter /opt/software/gaussian/g16.c01/l601.exe)
 Copying SCF densities to generalized density rwf, IOpCl= 1 IROHF=0.

 **********************************************************************

            Population analysis using the SCF Density.

 **********************************************************************

 Alpha  occ. eigenvalues --  -89.13400 -19.24767 -10.33797  -8.15550  -6.10230
 Alpha  occ. eigenvalues --   -6.10217  -6.09783  -1.13977  -0.89776  -0.69644
 Alpha  occ. eigenvalues --   -0.57680  -0.54742  -0.50575  -0.47340  -0.36820
 Alpha  occ. eigenvalues --   -0.35245
 Alpha virt. eigenvalues --   -0.01747   0.09092   0.13418   0.16457   0.18400
 Alpha virt. eigenvalues --    0.21978   0.28125   0.28177   0.34587   0.36657
 Alpha virt. eigenvalues --    0.37652   0.39954   0.43857   0.46843   0.48229
 Alpha virt. eigenvalues --    0.49393   0.53109   0.60748   0.60774   0.65006
 Alpha virt. eigenvalues --    0.69808   0.71594   0.75971   0.84748   0.90866
 Alpha virt. eigenvalues --    0.99189   1.01610   1.05867   1.07428   1.38720
 Alpha virt. eigenvalues --    1.40760   1.47511   1.49792   1.52144   1.54162
 Alpha virt. eigenvalues --    1.54635   1.59237   1.63341   1.64454   1.64990
 Alpha virt. eigenvalues --    1.70232   1.73699   1.79676   1.81177   1.83322
 Alpha virt. eigenvalues --    1.84799   1.88471   1.97143   2.10561   2.17985
 Alpha virt. eigenvalues --    2.18790   2.21280   2.28537   2.35789   2.38428
 Alpha virt. eigenvalues --    2.45129   2.52261   2.58906   2.63710   2.74416
 Alpha virt. eigenvalues --    2.83969   2.86146   3.00257   3.01258   3.02290
 Alpha virt. eigenvalues --    3.15968   3.21415   3.26645   3.31612   3.39740
 Alpha virt. eigenvalues --    3.50369   3.51584   3.68425   3.73772   3.92608
 Alpha virt. eigenvalues --    4.16619   4.45079   5.23993   5.24045   5.30923
 Alpha virt. eigenvalues --    5.33086   5.45480   5.56031   5.60413   6.37159
 Alpha virt. eigenvalues --    6.39096   6.71463   6.77612   6.94567   8.86205
 Alpha virt. eigenvalues --    9.18176   9.54960  20.78390  21.99804  43.48334
  Beta  occ. eigenvalues --  -89.13400 -19.24767 -10.33797  -8.15550  -6.10230
  Beta  occ. eigenvalues --   -6.10217  -6.09783  -1.13977  -0.89776  -0.69644
  Beta  occ. eigenvalues --   -0.57680  -0.54742  -0.50575  -0.47340  -0.36820
  Beta  occ. eigenvalues --   -0.35245
  Beta virt. eigenvalues --   -0.01747   0.09092   0.13418   0.16457   0.18400
  Beta virt. eigenvalues --    0.21978   0.28125   0.28177   0.34587   0.36657
  Beta virt. eigenvalues --    0.37652   0.39954   0.43857   0.46843   0.48229
  Beta virt. eigenvalues --    0.49393   0.53109   0.60748   0.60774   0.65006
  Beta virt. eigenvalues --    0.69808   0.71594   0.75971   0.84748   0.90866
  Beta virt. eigenvalues --    0.99189   1.01610   1.05867   1.07428   1.38720
  Beta virt. eigenvalues --    1.40760   1.47511   1.49792   1.52144   1.54162
  Beta virt. eigenvalues --    1.54635   1.59237   1.63341   1.64454   1.64990
  Beta virt. eigenvalues --    1.70232   1.73699   1.79676   1.81177   1.83322
  Beta virt. eigenvalues --    1.84799   1.88471   1.97143   2.10561   2.17985
  Beta virt. eigenvalues --    2.18790   2.21280   2.28537   2.35789   2.38428
  Beta virt. eigenvalues --    2.45129   2.52261   2.58906   2.63710   2.74416
  Beta virt. eigenvalues --    2.83969   2.86146   3.00257   3.01258   3.02290
  Beta virt. eigenvalues --    3.15968   3.21415   3.26645   3.31612   3.39740
  Beta virt. eigenvalues --    3.50369   3.51584   3.68425   3.73772   3.92608
  Beta virt. eigenvalues --    4.16619   4.45079   5.23993   5.24045   5.30923
  Beta virt. eigenvalues --    5.33086   5.45480   5.56031   5.60413   6.37159
  Beta virt. eigenvalues --    6.39096   6.71463   6.77612   6.94567   8.86205
  Beta virt. eigenvalues --    9.18176   9.54960  20.78390  21.99804  43.48334
          Condensed to atoms (all electrons):
               1          2          3          4          5
     1  C    5.058525   0.538638  -0.051575   0.371379   0.411423
     2  S    0.538638  14.682400   0.377037  -0.018802  -0.037691
     3  O   -0.051575   0.377037   8.146740   0.003671   0.002291
     4  H    0.371379  -0.018802   0.003671   0.494655  -0.014786
     5  H    0.411423  -0.037691   0.002291  -0.014786   0.454513
          Atomic-Atomic Spin Densities.
               1          2          3          4          5
     1  C    0.000000   0.000000   0.000000   0.000000   0.000000
     2  S    0.000000   0.000000   0.000000   0.000000   0.000000
     3  O    0.000000   0.000000   0.000000   0.000000   0.000000
     4  H    0.000000   0.000000   0.000000   0.000000   0.000000
     5  H    0.000000   0.000000   0.000000   0.000000   0.000000
 Mulliken charges and spin densities:
               1          2
     1  C   -0.328389   0.000000
     2  S    0.458418   0.000000
     3  O   -0.478164   0.000000
     4  H    0.163884   0.000000
     5  H    0.184251   0.000000
 Sum of Mulliken charges =   0.00000   0.00000
 Mulliken charges and spin densities with hydrogens summed into heavy atoms:
               1          2
     1  C    0.019746   0.000000
     2  S    0.458418   0.000000
     3  O   -0.478164   0.000000
 Electronic spatial extent (au):  <R**2>=            827.2879
 Charge=              0.0000 electrons
 Dipole moment (field-independent basis, Debye):
    X=             -2.3506    Y=              1.1082    Z=              1.9400  Tot=              3.2430
 Quadrupole moment (field-independent basis, Debye-Ang):
   XX=            -33.4856   YY=            -25.2727   ZZ=            -26.8224
   XY=              3.7601   XZ=              6.7381   YZ=             -1.1689
 Traceless Quadrupole moment (field-independent basis, Debye-Ang):
   XX=             -4.9587   YY=              3.2542   ZZ=              1.7045
   XY=              3.7601   XZ=              6.7381   YZ=             -1.1689
 Octapole moment (field-independent basis, Debye-Ang**2):
  XXX=           -196.3220  YYY=             13.8419  ZZZ=             32.8087  XYY=            -57.0709
  XXY=             16.6425  XXZ=             31.3465  XZZ=            -65.2881  YZZ=              7.2498
  YYZ=             10.8085  XYZ=             -6.4695
 Hexadecapole moment (field-independent basis, Debye-Ang**3):
 XXXX=           -990.0063 YYYY=            -46.4382 ZZZZ=            -96.9207 XXXY=             80.8844
 XXXZ=            154.5543 YYYX=             42.7001 YYYZ=            -18.2610 ZZZX=             97.2511
 ZZZY=            -20.1264 XXYY=           -160.8264 XXZZ=           -196.1496 YYZZ=            -24.3832
 XXYZ=            -27.6650 YYXZ=             31.8037 ZZXY=             22.3732
 N-N= 1.027531034782D+02 E-N=-1.420988013434D+03  KE= 5.114405521816D+02
 There are a total of      110428 grid points.
 ElSum from          density=       31.9999999361
 ElSum from atomic densities=       32.0000000648
 Hirshfeld populations at iteration   1 (CA, CB, DipXYZ):
               1          2          3          4          5
     1  C    3.045211   3.045211  -0.116631  -0.008529  -0.014972
     2  S    7.861557   7.861557   0.072204  -0.018598  -0.032490
     3  O    4.161055   4.161055  -0.054820   0.043771   0.076610
     4  H    0.468214   0.468214  -0.087151   0.077683   0.135896
     5  H    0.463963   0.463963  -0.107997  -0.071019  -0.124275
       Tot  16.000000  16.000000  -0.294394   0.023309   0.040769

 Dip from Atomic Chgs             -0.630392   0.412708   0.722499
         Total Dipole             -0.924787   0.436017   0.763268

 Hirshfeld charges, spin densities, dipoles, and CM5 charges using IRadAn=      5:
              Q-H        S-H        Dx         Dy         Dz        Q-CM5   
     1  C   -0.090421   0.000000  -0.116631  -0.008529  -0.014972  -0.165930
     2  S    0.276886   0.000000   0.072204  -0.018598  -0.032490   0.285464
     3  O   -0.322110   0.000000  -0.054820   0.043771   0.076610  -0.363092
     4  H    0.063571   0.000000  -0.087151   0.077683   0.135896   0.117398
     5  H    0.072074   0.000000  -0.107997  -0.071019  -0.124275   0.126160
       Tot   0.000000   0.000000  -0.294394   0.023309   0.040769   0.000000
 Hirshfeld charges and spin densities with hydrogens summed into heavy atoms:
              Q-H        S-H       Q-CM5   
     1  C    0.045223   0.000000   0.077628
     2  S    0.276886   0.000000   0.285464
     3  O   -0.322110   0.000000  -0.363092
 
 EQQ=  0.00000000000     EQD=  0.00000000000     EDD= 0.157167765713E-02
 EQQ+QD+DD= 0.157167765713E-02
 
 GSVD:  LWork=        -884 too small for GESVD, short by        3770 words or        3770 for optimal perf.
          MBS Condensed to atoms (all electrons):
               1          2          3          4          5
     1  C    4.997400   0.487158  -0.013314   0.376001   0.370369
     2  S    0.487158  14.813039   0.461874  -0.020528  -0.015305
     3  O   -0.013314   0.461874   7.914767   0.000344  -0.000043
     4  H    0.376001  -0.020528   0.000344   0.511352  -0.016508
     5  H    0.370369  -0.015305  -0.000043  -0.016508   0.503346
          MBS Atomic-Atomic Spin Densities.
               1          2          3          4          5
     1  C    0.000000   0.000000   0.000000   0.000000   0.000000
     2  S    0.000000   0.000000   0.000000   0.000000   0.000000
     3  O    0.000000   0.000000   0.000000   0.000000   0.000000
     4  H    0.000000   0.000000   0.000000   0.000000   0.000000
     5  H    0.000000   0.000000   0.000000   0.000000   0.000000
 MBS Mulliken charges and spin densities:
               1          2
     1  C   -0.217613   0.000000
     2  S    0.273761   0.000000
     3  O   -0.363628   0.000000
     4  H    0.149339   0.000000
     5  H    0.158141   0.000000
 Sum of MBS Mulliken charges =   0.00000   0.00000
 MBS Mulliken charges and spin densities with hydrogens summed into heavy atoms:
               1          2
     1  C    0.089867   0.000000
     2  S    0.273761   0.000000
     3  O   -0.363628   0.000000
 MBS Atomic Valencies and Mayer Atomic Bond Orders:
               1          2          3          4          5
     1  C    3.919337   1.814764   0.230956   0.938018   0.935600
     2  S    1.814764   3.832294   1.967670   0.020214   0.029646
     3  O    0.230956   1.967670   2.220905   0.015999   0.006280
     4  H    0.938018   0.020214   0.015999   0.977698   0.003466
     5  H    0.935600   0.029646   0.006280   0.003466   0.974991
 MBS Mayer-style numbers of lone pairs (16.000 valence pairs, 10.037 lone pairs):
               1
     1  C    1.149138
     2  S    5.946972
     3  O    3.071362
     4  H   -0.063518
     5  H   -0.066566
 BEBO parameters in MulMin, MxElBE=  0:
 ELP=  0.00000000000     EBEBO=  0.00000000000     Sum=  0.00000000000    
 ELP=  0.00000000000     EBEBO=  0.00000000000     EJK=  0.00000000000      0.00000000000     Sum=  0.00000000000    
 0 EA=  0.00000000000     EB=  0.00000000000     ETot=  0.00000000000    
 1 EA=  0.00000000000     EB=  0.00000000000     ETot=  0.00000000000    
 2 EA=  0.00000000000     EB=  0.00000000000     ETot=  0.00000000000    
 3 EJ=  0.00000000000     EK=  0.00000000000     ETot=  0.00000000000    
 4 EJ=  0.00000000000     EK=  0.00000000000     ETot=  0.00000000000    
 5 EA=  0.00000000000     EB=  0.00000000000     ETot=  0.00000000000    
[...]

    Atom  No          Natural Electron Configuration
 ----------------------------------------------------------------------------
      C    1      [core]2S( 0.61)2p( 1.75)3p( 0.01)3d( 0.01)
      S    2      [core]3S( 0.78)3p( 1.58)4S( 0.02)3d( 0.05)4p( 0.01)
      O    3      [core]2S( 0.92)2p( 2.50)3d( 0.02)
      H    4            1S( 0.38)
      H    5            1S( 0.38)


 NBO analysis skipped by request.


 ***************************************************
 *******         Beta  spin orbitals         *******
 ***************************************************


 NATURAL POPULATIONS:  Natural atomic orbital occupancies 
                                                          
   NAO  Atom  No  lang   Type(AO)    Occupancy      Energy
 ----------------------------------------------------------
     1    C    1  S      Cor( 1S)     0.99978     -10.22611
     2    C    1  S      Val( 2S)     0.61015      -0.45059
     3    C    1  S      Ryd( 3S)     0.00109       0.67266
     4    C    1  S      Ryd( 4S)     0.00009       1.96854
     5    C    1  S      Ryd( 5S)     0.00000      21.14578
     6    C    1  px     Val( 2p)     0.55885      -0.21665
     7    C    1  px     Ryd( 3p)     0.00221       0.56956
     8    C    1  px     Ryd( 4p)     0.00013       2.41957
     9    C    1  py     Val( 2p)     0.58354      -0.20020
    10    C    1  py     Ryd( 3p)     0.00209       0.51186
    11    C    1  py     Ryd( 4p)     0.00001       1.54827
    12    C    1  pz     Val( 2p)     0.61165      -0.18074
    13    C    1  pz     Ryd( 3p)     0.00116       0.69414
    14    C    1  pz     Ryd( 4p)     0.00002       1.75988
    15    C    1  dxy    Ryd( 3d)     0.00156       1.18261
    16    C    1  dxy    Ryd( 4d)     0.00003       2.99149
    17    C    1  dxz    Ryd( 3d)     0.00101       1.32485
    18    C    1  dxz    Ryd( 4d)     0.00006       3.11434
    19    C    1  dyz    Ryd( 3d)     0.00095       1.12905
    20    C    1  dyz    Ryd( 4d)     0.00002       3.04575
    21    C    1  dx2y2  Ryd( 3d)     0.00214       1.42507
    22    C    1  dx2y2  Ryd( 4d)     0.00002       3.05897
    23    C    1  dz2    Ryd( 3d)     0.00139       1.13987
    24    C    1  dz2    Ryd( 4d)     0.00002       2.95017
    25    C    1  f(0)   Ryd( 4f)     0.00002       3.14299
    26    C    1  f(C1)  Ryd( 4f)     0.00007       3.56848
    27    C    1  f(S1)  Ryd( 4f)     0.00011       3.27947
    28    C    1  f(C2)  Ryd( 4f)     0.00009       3.25328
    29    C    1  f(S2)  Ryd( 4f)     0.00012       3.41655
    30    C    1  f(C3)  Ryd( 4f)     0.00007       3.47447
    31    C    1  f(S3)  Ryd( 4f)     0.00009       3.29058
 
    32    S    2  S      Cor( 1S)     1.00000     -87.79889
    33    S    2  S      Cor( 2S)     0.99959      -9.26347
    34    S    2  S      Val( 3S)     0.77854      -0.73667
    35    S    2  S      Ryd( 4S)     0.01768       0.76624
    36    S    2  S      Ryd( 5S)     0.00000      19.35115
    37    S    2  px     Cor( 2p)     0.99985      -6.08965
    38    S    2  px     Val( 3p)     0.50425      -0.18771
    39    S    2  px     Ryd( 4p)     0.00224       0.96987
    40    S    2  px     Ryd( 5p)     0.00008       1.89894
    41    S    2  px     Ryd( 6p)     0.00000       8.23678
    42    S    2  py     Cor( 2p)     0.99992      -6.09543
    43    S    2  py     Val( 3p)     0.54837      -0.25380
    44    S    2  py     Ryd( 4p)     0.00156       0.78097
    45    S    2  py     Ryd( 5p)     0.00005       1.86269
    46    S    2  py     Ryd( 6p)     0.00000       8.51329
    47    S    2  pz     Cor( 2p)     0.99993      -6.09260
    48    S    2  pz     Val( 3p)     0.52435      -0.21577
    49    S    2  pz     Ryd( 4p)     0.00297       0.94137
    50    S    2  pz     Ryd( 5p)     0.00015       1.84994
    51    S    2  pz     Ryd( 6p)     0.00001       8.57868
    52    S    2  dxy    Ryd( 3d)     0.01064       0.72974
    53    S    2  dxy    Ryd( 4d)     0.00004       1.65885
    54    S    2  dxz    Ryd( 3d)     0.00894       0.83881
    55    S    2  dxz    Ryd( 4d)     0.00008       1.83030
    56    S    2  dyz    Ryd( 3d)     0.00569       0.75137
    57    S    2  dyz    Ryd( 4d)     0.00019       1.83070
    58    S    2  dx2y2  Ryd( 3d)     0.01145       0.92014
    59    S    2  dx2y2  Ryd( 4d)     0.00009       1.95963
    60    S    2  dz2    Ryd( 3d)     0.01163       0.81792
    61    S    2  dz2    Ryd( 4d)     0.00015       1.82436
    62    S    2  f(0)   Ryd( 4f)     0.00014       2.36767
    63    S    2  f(C1)  Ryd( 4f)     0.00015       2.39286
    64    S    2  f(S1)  Ryd( 4f)     0.00006       2.18065
    65    S    2  f(C2)  Ryd( 4f)     0.00012       2.40897
    66    S    2  f(S2)  Ryd( 4f)     0.00006       2.24235
    67    S    2  f(C3)  Ryd( 4f)     0.00013       2.29307
    68    S    2  f(S3)  Ryd( 4f)     0.00006       2.28625
 
    69    O    3  S      Cor( 1S)     0.99994     -19.05729
    70    O    3  S      Val( 2S)     0.91724      -1.04767
    71    O    3  S      Ryd( 3S)     0.00033       1.48326
    72    O    3  S      Ryd( 4S)     0.00001       3.52755
    73    O    3  S      Ryd( 5S)     0.00000      42.41786
    74    O    3  px     Val( 2p)     0.89864      -0.36466
    75    O    3  px     Ryd( 3p)     0.00074       0.74370
    76    O    3  px     Ryd( 4p)     0.00002       3.00081
    77    O    3  py     Val( 2p)     0.81856      -0.34916
    78    O    3  py     Ryd( 3p)     0.00060       0.69396
    79    O    3  py     Ryd( 4p)     0.00002       2.95785
    80    O    3  pz     Val( 2p)     0.77926      -0.35882
    81    O    3  pz     Ryd( 3p)     0.00049       0.78666
    82    O    3  pz     Ryd( 4p)     0.00005       3.37856
    83    O    3  dxy    Ryd( 3d)     0.00158       1.65285
    84    O    3  dxy    Ryd( 4d)     0.00000       6.39677
    85    O    3  dxz    Ryd( 3d)     0.00367       1.76415
    86    O    3  dxz    Ryd( 4d)     0.00001       6.48250
    87    O    3  dyz    Ryd( 3d)     0.00407       1.80358
    88    O    3  dyz    Ryd( 4d)     0.00001       6.49289
    89    O    3  dx2y2  Ryd( 3d)     0.00157       1.64165
    90    O    3  dx2y2  Ryd( 4d)     0.00001       6.39539
    91    O    3  dz2    Ryd( 3d)     0.00441       1.78721
    92    O    3  dz2    Ryd( 4d)     0.00001       6.49516
    93    O    3  f(0)   Ryd( 4f)     0.00005       5.40326
    94    O    3  f(C1)  Ryd( 4f)     0.00005       5.46028
    95    O    3  f(S1)  Ryd( 4f)     0.00006       5.49672
    96    O    3  f(C2)  Ryd( 4f)     0.00005       5.38008
    97    O    3  f(S2)  Ryd( 4f)     0.00005       5.45863
    98    O    3  f(C3)  Ryd( 4f)     0.00001       5.28300
    99    O    3  f(S3)  Ryd( 4f)     0.00001       5.28003
 
   100    H    4  S      Val( 1S)     0.38155      -0.00782
   101    H    4  S      Ryd( 2S)     0.00024       1.02550
   102    H    4  S      Ryd( 3S)     0.00007       1.44828
   103    H    4  px     Ryd( 2p)     0.00005       2.49453
   104    H    4  py     Ryd( 2p)     0.00008       2.27806
   105    H    4  pz     Ryd( 2p)     0.00010       2.65698
 
   106    H    5  S      Val( 1S)     0.37781       0.00550
   107    H    5  S      Ryd( 2S)     0.00052       1.09579
   108    H    5  S      Ryd( 3S)     0.00006       1.36699
   109    H    5  px     Ryd( 2p)     0.00007       2.59001
   110    H    5  py     Ryd( 2p)     0.00009       2.26488
   111    H    5  pz     Ryd( 2p)     0.00011       2.59902


 Summary of Natural Population Analysis:                  
                                                          
                                       Natural Population 
                Natural  -----------------------------------------------
    Atom  No    Charge         Core      Valence    Rydberg      Total
 -----------------------------------------------------------------------
      C    1   -0.37853      0.99978     2.36419    0.01456     3.37853
      S    2    0.57084      4.99929     2.35551    0.07437     7.42916
      O    3   -0.43153      0.99994     3.41370    0.01788     4.43153
      H    4    0.11790      0.00000     0.38155    0.00054     0.38210
      H    5    0.12133      0.00000     0.37781    0.00086     0.37867
 =======================================================================
   * Total *    0.00000      6.99901     8.89277    0.10822    16.00000

                                 Natural Population      
 --------------------------------------------------------
   Core                       6.99901 ( 99.9859% of   7)
   Valence                    8.89277 ( 98.8086% of   9)
   Natural Minimal Basis     15.89178 ( 99.3236% of  16)
   Natural Rydberg Basis      0.10822 (  0.6764% of  16)
 --------------------------------------------------------

    Atom  No          Natural Electron Configuration
 ----------------------------------------------------------------------------
      C    1      [core]2S( 0.61)2p( 1.75)3p( 0.01)3d( 0.01)
      S    2      [core]3S( 0.78)3p( 1.58)4S( 0.02)3d( 0.05)4p( 0.01)
      O    3      [core]2S( 0.92)2p( 2.50)3d( 0.02)
      H    4            1S( 0.38)
      H    5            1S( 0.38)


 NBO analysis skipped by request.
 Leave Link  607 at Tue Jan  3 09:08:57 2023, MaxMem=   536870912 cpu:               3.6 elap:               1.8
 (Enter /opt/software/gaussian/g16.c01/l701.exe)
 ... and contract with generalized density number  0.
 Compute integral first derivatives.
 R6Disp: Adding Grimme-D2 dispersion energy 1st derivatives to the gradient.
 Leave Link  701 at Tue Jan  3 09:08:57 2023, MaxMem=   536870912 cpu:               0.3 elap:               0.2
 (Enter /opt/software/gaussian/g16.c01/l702.exe)
 L702 exits ... SP integral derivatives will be done elsewhere.
 Leave Link  702 at Tue Jan  3 09:08:57 2023, MaxMem=   536870912 cpu:               0.1 elap:               0.0
 (Enter /opt/software/gaussian/g16.c01/l703.exe)
 Integral derivatives from FoFJK, PRISM(SPDF).
 Compute integral first derivatives, UseDBF=F ICtDFT=           0.
 Calling FoFJK, ICntrl=      2127 FMM=F ISym2X=0 I1Cent= 0 IOpClX= 1 NMat=1 NMatS=1 NMatT=0.
 FoFJK:  IHMeth= 1 ICntrl=    2127 DoSepK=T KAlg= 0 I1Cent=           0 FoldK=F
 IRaf=         1 NMat=       1 IRICut=       1 DoRegI=T DoRafI=F ISym2E= 0 IDoP0=0 IntGTp=1.
 FoFCou: FMM=F IPFlag=           0 FMFlag=      100000 FMFlg1=         800
         NFxFlg=           0 DoJE=F BraDBF=F KetDBF=F FulRan=T
         wScrn=  0.000000 ICntrl=      2527 IOpCl=  0 I1Cent=           0 NGrid=           0
         NMat0=    1 NMatS0=      1 NMatT0=    0 NMatD0=    1 NMtDS0=    0 NMtDT0=    0
 Symmetry not used in FoFCou.
 Leave Link  703 at Tue Jan  3 09:09:03 2023, MaxMem=   536870912 cpu:              11.6 elap:               5.8
 (Enter /opt/software/gaussian/g16.c01/l716.exe)
 Dipole        =-9.24786325D-01 4.36017337D-01 7.63267237D-01
 -------------------------------------------------------------------
 Center     Atomic                   Forces (Hartrees/Bohr)
 Number     Number              X              Y              Z
 -------------------------------------------------------------------
      1        6           0.006645137    0.000528122    0.000928215
      2       16          -0.001080428   -0.014701397   -0.025746168
      3        8          -0.011069009    0.014273581    0.024987370
      4        1           0.002167360   -0.002825858   -0.004928031
      5        1           0.003336940    0.002725552    0.004758614
 -------------------------------------------------------------------
 Cartesian Forces:  Max     0.025746168 RMS     0.011414217
 Z-matrix is all fixed cartesians, so copy forces.
 Force constants in Cartesian coordinates: 
                1             2             3             4             5 
      1  0.829676D+00
      2  0.511240D-02  0.243810D+00
      3  0.905768D-02  0.234956D+00  0.520669D+00
      4 -0.491409D+00 -0.959762D-02 -0.168745D-01  0.641682D+00
      5  0.287596D-02 -0.491361D-01 -0.278604D-01 -0.128355D+00  0.207963D+00
      6  0.496707D-02 -0.278624D-01 -0.819862D-01 -0.224638D+00  0.320470D+00
      7  0.492524D-03  0.133103D-01  0.233039D-01 -0.150309D+00  0.124519D+00
      8  0.104201D-03  0.602149D-02  0.308174D-02  0.137725D+00 -0.180658D+00
      9  0.181864D-03  0.308386D-02  0.966084D-02  0.241117D+00 -0.294338D+00
     10 -0.151987D+00  0.492920D-01  0.862296D-01  0.424157D-03  0.114682D-01
     11  0.447359D-01 -0.101753D+00 -0.113561D+00  0.975664D-04  0.365001D-02
     12  0.782568D-01 -0.113560D+00 -0.235538D+00  0.170666D-03  0.403592D-02
     13 -0.186773D+00 -0.581171D-01 -0.101717D+00 -0.388712D-03 -0.105080D-01
     14 -0.528284D-01 -0.989424D-01 -0.966159D-01  0.130067D-03  0.181809D-01
     15 -0.924634D-01 -0.966168D-01 -0.212806D+00  0.224637D-03 -0.230723D-02
                6             7             8             9            10 
      6  0.585965D+00
      7  0.217995D+00  0.149816D+00
      8 -0.294336D+00 -0.137829D+00  0.174946D+00
      9 -0.527847D+00 -0.241299D+00  0.291077D+00  0.518287D+00
     10  0.200660D-01  0.000000D+00  0.000000D+00  0.000000D+00  0.123189D+00
     11  0.403202D-02  0.000000D+00  0.453529D-02 -0.259031D-02 -0.513576D-01
     12  0.840740D-02  0.000000D+00 -0.259199D-02  0.148040D-02 -0.898457D-01
     13 -0.183902D-01  0.000000D+00  0.000000D+00  0.000000D+00  0.283742D-01
     14 -0.230345D-02  0.000000D+00 -0.484560D-02  0.276754D-02 -0.940299D-02
     15  0.154602D-01  0.000000D+00  0.276920D-02 -0.158162D-02 -0.164496D-01
               11            12            13            14            15 
     11  0.877574D-01
     12  0.120457D+00  0.229666D+00
     13  0.652373D-02  0.114185D-01  0.158787D+00
     14  0.581069D-02 -0.834082D-02  0.621018D-01  0.797964D-01
     15 -0.833779D-02 -0.401584D-02  0.108688D+00  0.104493D+00  0.202943D+00
 Leave Link  716 at Tue Jan  3 09:09:03 2023, MaxMem=   536870912 cpu:               0.1 elap:               0.0
 (Enter /opt/software/gaussian/g16.c01/l103.exe)

 GradGradGradGradGradGradGradGradGradGradGradGradGradGradGradGradGradGrad
 Berny optimization.
 Search for a local minimum.
 Step number   1 out of a maximum of    2
 All quantities printed in internal units (Hartrees-Bohrs-Radians)
 Second derivative matrix not updated -- first step.
 The second derivative matrix:
                          X1        Y1        Z1        X2        Y2
           X1           0.82968
           Y1           0.00511   0.24381
           Z1           0.00906   0.23496   0.52067
           X2          -0.49141  -0.00960  -0.01687   0.64168
           Y2           0.00288  -0.04914  -0.02786  -0.12836   0.20796
           Z2           0.00497  -0.02786  -0.08199  -0.22464   0.32047
           X3           0.00049   0.01331   0.02330  -0.15031   0.12452
           Y3           0.00010   0.00602   0.00308   0.13773  -0.18066
           Z3           0.00018   0.00308   0.00966   0.24112  -0.29434
           X4          -0.15199   0.04929   0.08623   0.00042   0.01147
           Y4           0.04474  -0.10175  -0.11356   0.00010   0.00365
           Z4           0.07826  -0.11356  -0.23554   0.00017   0.00404
           X5          -0.18677  -0.05812  -0.10172  -0.00039  -0.01051
           Y5          -0.05283  -0.09894  -0.09662   0.00013   0.01818
           Z5          -0.09246  -0.09662  -0.21281   0.00022  -0.00231
                          Z2        X3        Y3        Z3        X4
           Z2           0.58597
           X3           0.21800   0.14982
           Y3          -0.29434  -0.13783   0.17495
           Z3          -0.52785  -0.24130   0.29108   0.51829
           X4           0.02007   0.00000   0.00000  -0.00000   0.12319
           Y4           0.00403   0.00000   0.00454  -0.00259  -0.05136
           Z4           0.00841  -0.00000  -0.00259   0.00148  -0.08985
           X5          -0.01839  -0.00000  -0.00000   0.00000   0.02837
           Y5          -0.00230  -0.00000  -0.00485   0.00277  -0.00940
           Z5           0.01546   0.00000   0.00277  -0.00158  -0.01645
                          Y4        Z4        X5        Y5        Z5
           Y4           0.08776
           Z4           0.12046   0.22967
           X5           0.00652   0.01142   0.15879
           Y5           0.00581  -0.00834   0.06210   0.07980
           Z5          -0.00834  -0.00402   0.10869   0.10449   0.20294
 ITU=  0
     Eigenvalues ---    0.02243   0.03701   0.09811   0.12281   0.16471
     Eigenvalues ---    0.34496   0.86201   1.16715   1.68793
 Angle between quadratic step and forces=  41.86 degrees.
 Linear search not attempted -- first point.
 B after Tr=    -0.006822   -0.001731   -0.003044
         Rot=    1.000000    0.000036    0.000270   -0.000168 Ang=   0.04 deg.
 Variable       Old X    -DE/DX   Delta X   Delta X   Delta X     New X
                                 (Linear)    (Quad)   (Total)
    X1        1.84631   0.00665   0.00000   0.01305   0.00634   1.85265
    Y1       -0.03741   0.00053   0.00000  -0.00136  -0.00248  -0.03989
    Z1       -0.19054   0.00093   0.00000  -0.00240  -0.00444  -0.19497
    X2        4.89062  -0.00108   0.00000  -0.01193  -0.01859   4.87202
    Y2       -0.06532  -0.01470   0.00000  -0.00847  -0.00858  -0.07390
    Z2       -0.23894  -0.02575   0.00000  -0.01507  -0.01547  -0.25441
    X3        5.99277  -0.01107   0.00000  -0.00822  -0.01326   5.97951
    Y3       -1.34985   0.01427   0.00000   0.01278   0.01289  -1.33696
    Z3       -2.48781   0.02499   0.00000   0.02264   0.02293  -2.46488
    X4        0.97901   0.00217   0.00000   0.02504   0.01715   0.99616
    Y4        0.89117  -0.00283   0.00000  -0.00847  -0.00976   0.88141
    Z4        1.43411  -0.00493   0.00000  -0.01416  -0.01673   1.41738
    X5        0.70071   0.00334   0.00000   0.01399   0.00836   0.70908
    Y5       -0.88856   0.00273   0.00000   0.00953   0.00793  -0.88063
    Z5       -1.68006   0.00476   0.00000   0.01630   0.01371  -1.66635
         Item               Value     Threshold  Converged?
 Maximum Force            0.025746     0.000450     NO 
 RMS     Force            0.011414     0.000300     NO 
 Maximum Displacement     0.022928     0.001800     NO 
 RMS     Displacement     0.013121     0.001200     NO 
 Predicted change in Energy=-8.733627D-04
 GradGradGradGradGradGradGradGradGradGradGradGradGradGradGradGradGradGrad

 Leave Link  103 at Tue Jan  3 09:09:03 2023, MaxMem=   536870912 cpu:               0.0 elap:               0.0
 (Enter /opt/software/gaussian/g16.c01/l9999.exe)
 Unable to Open any file for archive entry.
 1\1\GINC-GRA704\Force\UwB97XD\Gen\C1H2O1S1\BHAVUK\03-Jan-2023\0\\#p uw
 b97xd/chkbasis force guess=read geom=check scf=(maxcycle=900,verytight
 lineq,xqc) integral=grid=ultrafine symmetry=None density=current pop=(
 cm5,hlygat,mbs,npa) output=wfx\\0005_q000_m01_k00_opt_uwb97xd_def2svpd
 /0005_q000_m01_k00_force_uwb97xd_def2tzvp stable-force\\0,1\C,0.977024
 5042,-0.0197961728,-0.1008273286\S,2.5880021429,-0.0345660623,-0.12643
 9068\O,3.1712397907,-0.7143116203,-1.3164938758\H,0.5180717789,0.47158
 80124,0.7588975415\H,0.3708017881,-0.4702041579,-0.8890472689\\Version
 =ES64L-G16RevC.01\HF=-512.6918649\S2=0.\S2-1=0.\S2A=0.\RMSD=8.053e-10\
 RMSF=1.141e-02\Dipole=-0.9247863,0.4360173,0.7632672\Quadrupole=-3.686
 6709,2.4194008,1.2672702,2.7955175,5.0095891,-0.8690225\PG=Unknown\\@
 The archive entry for this job was punched.

 Writing a WFNX file to "0005_q000_m01_k00_force_uwb97xd_def2tzvp.wfx"


 LAWS OF PROGRAMMING DEFINITION:  A WORKING PROGRAM
                                  IS ONE THAT HAS
                                  ONLY UNOBSERVED
                                  BUGS.
 Job cpu time:       0 days  0 hours  0 minutes 24.4 seconds.
 Elapsed time:       0 days  0 hours  0 minutes 11.9 seconds.
 File lengths (MBytes):  RWF=     10 Int=      0 D2E=      0 Chk=      3 Scr=      1
 Normal termination of Gaussian 16 at Tue Jan  3 09:09:03 2023.
