 Entering Gaussian System, Link 0=g16
 Input=0005_q000_m01_k00_force_uhf_def2svp.com
 Output=0005_q000_m01_k00_force_uhf_def2svp.log
 Initial command:
 /opt/software/gaussian/g16.c01/l1.exe "/localscratch/bhavuk.2151418.0/Gau-19750.inp" -scrdir="/localscratch/bhavuk.2151418.0/"
 Entering Link 1 = /opt/software/gaussian/g16.c01/l1.exe PID=     19751.
  
 Copyright (c) 1988-2019, Gaussian, Inc.  All Rights Reserved.
  
 This is part of the Gaussian(R) 16 program.  It is based on
 the Gaussian(R) 09 system (copyright 2009, Gaussian, Inc.),
 the Gaussian(R) 03 system (copyright 2003, Gaussian, Inc.),
 the Gaussian(R) 98 system (copyright 1998, Gaussian, Inc.),
 the Gaussian(R) 94 system (copyright 1995, Gaussian, Inc.),
 the Gaussian 92(TM) system (copyright 1992, Gaussian, Inc.),
 the Gaussian 90(TM) system (copyright 1990, Gaussian, Inc.),
 the Gaussian 88(TM) system (copyright 1988, Gaussian, Inc.),
 the Gaussian 86(TM) system (copyright 1986, Carnegie Mellon
 University), and the Gaussian 82(TM) system (copyright 1983,
 Carnegie Mellon University). Gaussian is a federally registered
 trademark of Gaussian, Inc.
  
 This software contains proprietary and confidential information,
 including trade secrets, belonging to Gaussian, Inc.
  
 This software is provided under written license and may be
 used, copied, transmitted, or stored only in accord with that
 written license.
  
 The following legend is applicable only to US Government
 contracts under FAR:
  
                    RESTRICTED RIGHTS LEGEND
  
 Use, reproduction and disclosure by the US Government is
 subject to restrictions as set forth in subparagraphs (a)
 and (c) of the Commercial Computer Software - Restricted
 Rights clause in FAR 52.227-19.
  
 Gaussian, Inc.
 340 Quinnipiac St., Bldg. 40, Wallingford CT 06492
  
  
 ---------------------------------------------------------------
 Warning -- This program may not be used in any manner that
 competes with the business of Gaussian, Inc. or will provide
 assistance to any competitor of Gaussian, Inc.  The licensee
 of this program is prohibited from giving any competitor of
 Gaussian, Inc. access to this program.  By using this program,
 the user acknowledges that Gaussian, Inc. is engaged in the
 business of creating and licensing software in the field of
 computational chemistry and represents and warrants to the
 licensee that it is not a competitor of Gaussian, Inc. and that
 it will not use this program in any manner prohibited above.
 ---------------------------------------------------------------
  

 Cite this work as:
 Gaussian 16, Revision C.01,
 M. J. Frisch, G. W. Trucks, H. B. Schlegel, G. E. Scuseria, 
 M. A. Robb, J. R. Cheeseman, G. Scalmani, V. Barone, 
 G. A. Petersson, H. Nakatsuji, X. Li, M. Caricato, A. V. Marenich, 
 J. Bloino, B. G. Janesko, R. Gomperts, B. Mennucci, H. P. Hratchian, 
 J. V. Ortiz, A. F. Izmaylov, J. L. Sonnenberg, D. Williams-Young, 
 F. Ding, F. Lipparini, F. Egidi, J. Goings, B. Peng, A. Petrone, 
 T. Henderson, D. Ranasinghe, V. G. Zakrzewski, J. Gao, N. Rega, 
 G. Zheng, W. Liang, M. Hada, M. Ehara, K. Toyota, R. Fukuda, 
 J. Hasegawa, M. Ishida, T. Nakajima, Y. Honda, O. Kitao, H. Nakai, 
 T. Vreven, K. Throssell, J. A. Montgomery, Jr., J. E. Peralta, 
 F. Ogliaro, M. J. Bearpark, J. J. Heyd, E. N. Brothers, K. N. Kudin, 
 V. N. Staroverov, T. A. Keith, R. Kobayashi, J. Normand, 
 K. Raghavachari, A. P. Rendell, J. C. Burant, S. S. Iyengar, 
 J. Tomasi, M. Cossi, J. M. Millam, M. Klene, C. Adamo, R. Cammi, 
 J. W. Ochterski, R. L. Martin, K. Morokuma, O. Farkas, 
 J. B. Foresman, and D. J. Fox, Gaussian, Inc., Wallingford CT, 2019.
 
 ******************************************
 Gaussian 16:  ES64L-G16RevC.01  3-Jul-2019
                 3-Jan-2023 
 ******************************************
 %chk=0005_q000_m01_k00_force_uhf_def2svp.chk
 %nprocshared=2
 Will use up to    2 processors via shared memory.
 %mem=4GB
 ----------------------------------------------------------------------
 #p uhf/gen stable=opt scf=(maxcycle=900,verytightlineq,xqc) integral=g
 rid=ultrafine symmetry=None density=current iop(99/18=-1) output=wfn
 ----------------------------------------------------------------------
 1/38=1,172=1/1;
 2/12=2,15=3,17=6,18=5,40=1/2;
 3/5=7,11=2,25=1,30=1,75=-5,116=2/1,2,3;
 4//1;
 5/5=2,7=900,8=3,13=1,17=3,38=5/2,8;
 6/7=2,8=2,9=2,10=2,22=-1,28=1/1;
 8/6=1,10=90,11=11/1;
 9/8=-3,42=1,46=1/14;
 5/5=2,7=900,8=3,17=43,38=5/8(-2);
 6/7=2,8=2,9=2,10=2,22=-1,28=1/1;
 99/5=1,6=100,9=1,18=-1/99;
 Leave Link    1 at Tue Jan  3 09:07:25 2023, MaxMem=   536870912 cpu:               0.1 elap:               0.1
 (Enter /opt/software/gaussian/g16.c01/l101.exe)
 ----------------------------------------------------------------------
 0005_q000_m01_k00_opt_uwb97xd_def2svpd/0005_q000_m01_k00_force_uhf_def
 2svp stable-force
 ----------------------------------------------------------------------
 Symbolic Z-matrix:
 Charge =  0 Multiplicity = 1
 C                     0.97702  -0.0198   -0.10083 
 S                     2.588    -0.03457  -0.12644 
 O                     3.17124  -0.71431  -1.31649 
 H                     0.51807   0.47159   0.7589 
 H                     0.3708   -0.4702   -0.88905 
 
 ITRead=  0  0  0  0  0
 MicOpt= -1 -1 -1 -1 -1
 NAtoms=      5 NQM=        5 NQMF=       0 NMMI=      0 NMMIF=      0
                NMic=       0 NMicF=      0.
                    Isotopes and Nuclear Properties:
 (Nuclear quadrupole moments (NQMom) in fm**2, nuclear magnetic moments (NMagM)
  in nuclear magnetons)

  Atom         1           2           3           4           5
 IAtWgt=          12          32          16           1           1
 AtmWgt=  12.0000000  31.9720718  15.9949146   1.0078250   1.0078250
 NucSpn=           0           0           0           1           1
 AtZEff=  -0.0000000  -0.0000000  -0.0000000  -0.0000000  -0.0000000
 NQMom=    0.0000000   0.0000000   0.0000000   0.0000000   0.0000000
 NMagM=    0.0000000   0.0000000   0.0000000   2.7928460   2.7928460
 AtZNuc=   6.0000000  16.0000000   8.0000000   1.0000000   1.0000000
 Leave Link  101 at Tue Jan  3 09:07:26 2023, MaxMem=   536870912 cpu:               0.5 elap:               0.3
 (Enter /opt/software/gaussian/g16.c01/l202.exe)
                          Input orientation:                          
 ---------------------------------------------------------------------
 Center     Atomic      Atomic             Coordinates (Angstroms)
 Number     Number       Type             X           Y           Z
 ---------------------------------------------------------------------
      1          6           0        0.977025   -0.019796   -0.100827
      2         16           0        2.588002   -0.034566   -0.126439
      3          8           0        3.171240   -0.714312   -1.316494
      4          1           0        0.518072    0.471588    0.758898
      5          1           0        0.370802   -0.470204   -0.889047
 ---------------------------------------------------------------------
                    Distance matrix (angstroms):
                    1          2          3          4          5
     1  C    0.000000
     2  S    1.611249   0.000000
     3  O    2.602840   1.489446   0.000000
     4  H    1.091432   2.307515   3.571121   0.000000
     5  H    1.091634   2.384812   2.843370   1.903781   0.000000
 Symmetry turned off by external request.
 Stoichiometry    CH2OS
 Rotational constants (GHZ):          39.0370487           9.3459813           7.5406507
 Leave Link  202 at Tue Jan  3 09:07:26 2023, MaxMem=   536870912 cpu:               0.0 elap:               0.0
 (Enter /opt/software/gaussian/g16.c01/l301.exe)
 General basis read from cards:  (5D, 7F)
 Centers:       4      5
 S 3 1.00
     Exponent=  1.3010701000D+01 Coefficients=  1.9682158000D-02
     Exponent=  1.9622572000D+00 Coefficients=  1.3796524000D-01
     Exponent=  4.4453796000D-01 Coefficients=  4.7831935000D-01
 S 1 1.00
     Exponent=  1.2194962000D-01 Coefficients=  1.0000000000D+00
 P 1 1.00
     Exponent=  8.0000000000D-01 Coefficients=  1.0000000000D+00
 ****
 Centers:       1
 S 5 1.00
     Exponent=  1.2384016938D+03 Coefficients=  5.4568832082D-03
     Exponent=  1.8629004992D+02 Coefficients=  4.0638409211D-02
     Exponent=  4.2251176346D+01 Coefficients=  1.8025593888D-01
     Exponent=  1.1676557932D+01 Coefficients=  4.6315121755D-01
     Exponent=  3.5930506482D+00 Coefficients=  4.4087173314D-01
 S 1 1.00
     Exponent=  4.0245147363D-01 Coefficients=  1.0000000000D+00
 S 1 1.00
     Exponent=  1.3090182668D-01 Coefficients=  1.0000000000D+00
 P 3 1.00
     Exponent=  9.4680970621D+00 Coefficients=  3.8387871728D-02
     Exponent=  2.0103545142D+00 Coefficients=  2.1117025112D-01
     Exponent=  5.4771004707D-01 Coefficients=  5.1328172114D-01
 P 1 1.00
     Exponent=  1.5268613795D-01 Coefficients=  1.0000000000D+00
 D 1 1.00
     Exponent=  8.0000000000D-01 Coefficients=  1.0000000000D+00
 ****
 Centers:       3
 S 5 1.00
     Exponent=  2.2661767785D+03 Coefficients= -5.3431809926D-03
     Exponent=  3.4087010191D+02 Coefficients= -3.9890039230D-02
     Exponent=  7.7363135167D+01 Coefficients= -1.7853911985D-01
     Exponent=  2.1479644940D+01 Coefficients= -4.6427684959D-01
     Exponent=  6.6589433124D+00 Coefficients= -4.4309745172D-01
 S 1 1.00
     Exponent=  8.0975975668D-01 Coefficients=  1.0000000000D+00
 S 1 1.00
     Exponent=  2.5530772234D-01 Coefficients=  1.0000000000D+00
 P 3 1.00
     Exponent=  1.7721504317D+01 Coefficients=  4.3394573193D-02
     Exponent=  3.8635505440D+00 Coefficients=  2.3094120765D-01
     Exponent=  1.0480920883D+00 Coefficients=  5.1375311064D-01
 P 1 1.00
     Exponent=  2.7641544411D-01 Coefficients=  1.0000000000D+00
 D 1 1.00
     Exponent=  1.2000000000D+00 Coefficients=  1.0000000000D+00
 ****
 Centers:       2
 S 5 1.00
     Exponent=  9.1849303010D+03 Coefficients= -2.2294387756D-03
     Exponent=  1.3815105503D+03 Coefficients= -1.6683029937D-02
     Exponent=  3.1387147580D+02 Coefficients= -7.5262436116D-02
     Exponent=  8.8053870623D+01 Coefficients= -1.9376827038D-01
     Exponent=  2.7039914905D+01 Coefficients= -1.7718020803D-01
 S 3 1.00
     Exponent=  4.5648731303D+01 Coefficients= -1.0736062573D-01
     Exponent=  4.9664522326D+00 Coefficients=  6.5066293018D-01
     Exponent=  2.0116242047D+00 Coefficients=  5.9712155354D-01
 S 1 1.00
     Exponent=  3.5661077013D-01 Coefficients=  1.0000000000D+00
 S 1 1.00
     Exponent=  1.3507221477D-01 Coefficients=  1.0000000000D+00
 P 5 1.00
     Exponent=  2.6198233439D+02 Coefficients= -9.2729929822D-03
     Exponent=  6.1306894736D+01 Coefficients= -6.6547669241D-02
     Exponent=  1.9103729887D+01 Coefficients= -2.4828595903D-01
     Exponent=  6.6567720378D+00 Coefficients= -4.8703847402D-01
     Exponent=  2.3959635161D+00 Coefficients= -3.9337850312D-01
 P 1 1.00
     Exponent=  6.1776161679D-01 Coefficients=  1.0000000000D+00
 P 1 1.00
     Exponent=  1.6993376871D-01 Coefficients=  1.0000000000D+00
 D 1 1.00
     Exponent=  5.5000000000D-01 Coefficients=  1.0000000000D+00
 ****
 Ernie: Thresh=  0.10000D-02 Tol=  0.10000D-05 Strict=F.
    56 basis functions,   101 primitive gaussians,    59 cartesian basis functions
    16 alpha electrons       16 beta electrons
       nuclear repulsion energy       102.7536228800 Hartrees.
 IExCor=    0 DFT=F Ex=HF Corr=None ExCW=0 ScaHFX=  1.000000
 ScaDFX=  1.000000  1.000000  1.000000  1.000000 ScalE2=  1.000000  1.000000
 IRadAn=      5 IRanWt=     -1 IRanGd=            0 ICorTp=0 IEmpDi=  4
 NAtoms=    5 NActive=    5 NUniq=    5 SFac= 1.00D+00 NAtFMM=   60 NAOKFM=F Big=F
 Integral buffers will be    131072 words long.
 Raffenetti 2 integral format.
 Two-electron integral symmetry is turned off.
 Leave Link  301 at Tue Jan  3 09:07:26 2023, MaxMem=   536870912 cpu:               0.2 elap:               0.1
 (Enter /opt/software/gaussian/g16.c01/l302.exe)
 NPDir=0 NMtPBC=     1 NCelOv=     1 NCel=       1 NClECP=     1 NCelD=      1
         NCelK=      1 NCelE2=     1 NClLst=     1 CellRange=     0.0.
 One-electron integrals computed using PRISM.
 NBasis=    56 RedAO= T EigKep=  8.61D-03  NBF=    56
 NBsUse=    56 1.00D-06 EigRej= -1.00D+00 NBFU=    56
 Leave Link  302 at Tue Jan  3 09:07:26 2023, MaxMem=   536870912 cpu:               0.3 elap:               0.1
 (Enter /opt/software/gaussian/g16.c01/l303.exe)
 DipDrv:  MaxL=1.
 Leave Link  303 at Tue Jan  3 09:07:26 2023, MaxMem=   536870912 cpu:               0.1 elap:               0.0
 (Enter /opt/software/gaussian/g16.c01/l401.exe)
 ExpMin= 1.22D-01 ExpMax= 9.18D+03 ExpMxC= 1.38D+03 IAcc=3 IRadAn=         5 AccDes= 0.00D+00
 Harris functional with IExCor=  205 and IRadAn=       5 diagonalized for initial guess.
 HarFok:  IExCor=  205 AccDes= 0.00D+00 IRadAn=         5 IDoV= 1 UseB2=F ITyADJ=14
 ICtDFT=  3500011 ScaDFX=  1.000000  1.000000  1.000000  1.000000
 FoFCou: FMM=F IPFlag=           0 FMFlag=      100000 FMFlg1=           0
         NFxFlg=           0 DoJE=T BraDBF=F KetDBF=T FulRan=T
         wScrn=  0.000000 ICntrl=       500 IOpCl=  0 I1Cent=   200000004 NGrid=           0
         NMat0=    1 NMatS0=      1 NMatT0=    0 NMatD0=    1 NMtDS0=    0 NMtDT0=    0
 Symmetry not used in FoFCou.
 Harris En= -510.896536503625    
 JPrj=0 DoOrth=F DoCkMO=F.
 Initial guess <Sx>= 0.0000 <Sy>= 0.0000 <Sz>= 0.0000 <S**2>=-0.0000 S=-0.0000
 Leave Link  401 at Tue Jan  3 09:07:26 2023, MaxMem=   536870912 cpu:               0.5 elap:               0.3
 (Enter /opt/software/gaussian/g16.c01/l502.exe)
 Keep R1 and R2 ints in memory in canonical form, NReq=3393544.
 FoFCou: FMM=F IPFlag=           0 FMFlag=           0 FMFlg1=           0
         NFxFlg=           0 DoJE=F BraDBF=F KetDBF=F FulRan=T
         wScrn=  0.000000 ICntrl=       600 IOpCl=  0 I1Cent=           0 NGrid=           0
         NMat0=    1 NMatS0=   1596 NMatT0=    0 NMatD0=    1 NMtDS0=    0 NMtDT0=    0
 Symmetry not used in FoFCou.
 Two-electron integral symmetry not used.
 UHF open shell SCF:
 Using DIIS extrapolation, IDIIS=  1040.
 NGot=   536870912 LenX=   534314063 LenY=   534310141
 Requested convergence on RMS density matrix=1.00D-08 within 128 cycles.
 Requested convergence on MAX density matrix=1.00D-06.
 Requested convergence on             energy=1.00D-06.
 No special actions if energy rises.

 Cycle   1  Pass 1  IDiag  1:
 E= -510.912799573797    
 DIIS: error= 6.02D-02 at cycle   1 NSaved=   1.
 NSaved= 1 IEnMin= 1 EnMin= -510.912799573797     IErMin= 1 ErrMin= 6.02D-02
 ErrMax= 6.02D-02  0.00D+00 EMaxC= 1.00D-01 BMatC= 1.07D+00 BMatP= 1.07D+00
 IDIUse=3 WtCom= 3.98D-01 WtEn= 6.02D-01
 Coeff-Com:  0.100D+01
 Coeff-En:   0.100D+01
 Coeff:      0.100D+01
 Gap=     0.475 Goal=   None    Shift=    0.000
 Gap=     0.475 Goal=   None    Shift=    0.000
 GapD=    0.475 DampG=2.000 DampE=0.500 DampFc=1.0000 IDamp=-1.
 RMSDP=1.08D-02 MaxDP=1.39D-01              OVMax= 2.07D-01

 Cycle   2  Pass 1  IDiag  1:
 E= -511.031254594542     Delta-E=       -0.118455020745 Rises=F Damp=F
 DIIS: error= 2.55D-02 at cycle   2 NSaved=   2.
 NSaved= 2 IEnMin= 2 EnMin= -511.031254594542     IErMin= 2 ErrMin= 2.55D-02
 ErrMax= 2.55D-02  0.00D+00 EMaxC= 1.00D-01 BMatC= 3.66D-01 BMatP= 1.07D+00
 IDIUse=3 WtCom= 7.45D-01 WtEn= 2.55D-01
 Coeff-Com:  0.352D+00 0.648D+00
 Coeff-En:   0.177D+00 0.823D+00
 Coeff:      0.307D+00 0.693D+00
 Gap=     0.438 Goal=   None    Shift=    0.000
 Gap=     0.438 Goal=   None    Shift=    0.000
 RMSDP=5.44D-03 MaxDP=9.42D-02 DE=-1.18D-01 OVMax= 9.52D-02

 Cycle   3  Pass 1  IDiag  1:
 E= -511.105889591562     Delta-E=       -0.074634997020 Rises=F Damp=F
 DIIS: error= 7.79D-03 at cycle   3 NSaved=   3.
 NSaved= 3 IEnMin= 3 EnMin= -511.105889591562     IErMin= 3 ErrMin= 7.79D-03
 ErrMax= 7.79D-03  0.00D+00 EMaxC= 1.00D-01 BMatC= 1.63D-02 BMatP= 3.66D-01
 IDIUse=3 WtCom= 9.22D-01 WtEn= 7.79D-02
 Coeff-Com: -0.984D-02 0.145D+00 0.865D+00
 Coeff-En:   0.000D+00 0.000D+00 0.100D+01
 Coeff:     -0.907D-02 0.134D+00 0.875D+00
 Gap=     0.426 Goal=   None    Shift=    0.000
 Gap=     0.426 Goal=   None    Shift=    0.000
 RMSDP=1.10D-03 MaxDP=1.57D-02 DE=-7.46D-02 OVMax= 1.97D-02

 Cycle   4  Pass 1  IDiag  1:
 E= -511.109152328833     Delta-E=       -0.003262737271 Rises=F Damp=F
 DIIS: error= 3.04D-03 at cycle   4 NSaved=   4.
 NSaved= 4 IEnMin= 4 EnMin= -511.109152328833     IErMin= 4 ErrMin= 3.04D-03
 ErrMax= 3.04D-03  0.00D+00 EMaxC= 1.00D-01 BMatC= 1.64D-03 BMatP= 1.63D-02
 IDIUse=3 WtCom= 9.70D-01 WtEn= 3.04D-02
 Coeff-Com: -0.177D-01 0.125D-01 0.308D+00 0.697D+00
 Coeff-En:   0.000D+00 0.000D+00 0.000D+00 0.100D+01
 Coeff:     -0.172D-01 0.121D-01 0.299D+00 0.706D+00
 Gap=     0.426 Goal=   None    Shift=    0.000
 Gap=     0.426 Goal=   None    Shift=    0.000
 RMSDP=4.44D-04 MaxDP=5.78D-03 DE=-3.26D-03 OVMax= 1.55D-02

 Cycle   5  Pass 1  IDiag  1:
 E= -511.109670924203     Delta-E=       -0.000518595370 Rises=F Damp=F
 DIIS: error= 8.63D-04 at cycle   5 NSaved=   5.
 NSaved= 5 IEnMin= 5 EnMin= -511.109670924203     IErMin= 5 ErrMin= 8.63D-04
 ErrMax= 8.63D-04  0.00D+00 EMaxC= 1.00D-01 BMatC= 2.37D-04 BMatP= 1.64D-03
 IDIUse=3 WtCom= 9.91D-01 WtEn= 8.63D-03
 Coeff-Com:  0.438D-02-0.274D-01-0.169D+00 0.875D-01 0.110D+01
 Coeff-En:   0.000D+00 0.000D+00 0.000D+00 0.000D+00 0.100D+01
 Coeff:      0.434D-02-0.272D-01-0.167D+00 0.867D-01 0.110D+01
 Gap=     0.426 Goal=   None    Shift=    0.000
 Gap=     0.426 Goal=   None    Shift=    0.000
 RMSDP=2.38D-04 MaxDP=2.93D-03 DE=-5.19D-04 OVMax= 5.32D-03

 Cycle   6  Pass 1  IDiag  1:
 E= -511.109799516398     Delta-E=       -0.000128592195 Rises=F Damp=F
 DIIS: error= 2.60D-04 at cycle   6 NSaved=   6.
 NSaved= 6 IEnMin= 6 EnMin= -511.109799516398     IErMin= 6 ErrMin= 2.60D-04
 ErrMax= 2.60D-04  0.00D+00 EMaxC= 1.00D-01 BMatC= 2.69D-05 BMatP= 2.37D-04
 IDIUse=3 WtCom= 9.97D-01 WtEn= 2.60D-03
 Coeff-Com:  0.902D-03-0.136D-02-0.148D-01-0.223D-01-0.283D+00 0.132D+01
 Coeff-En:   0.000D+00 0.000D+00 0.000D+00 0.000D+00 0.000D+00 0.100D+01
 Coeff:      0.900D-03-0.136D-02-0.148D-01-0.223D-01-0.283D+00 0.132D+01
 Gap=     0.427 Goal=   None    Shift=    0.000
 Gap=     0.427 Goal=   None    Shift=    0.000
 RMSDP=1.38D-04 MaxDP=1.16D-03 DE=-1.29D-04 OVMax= 4.37D-03

 Cycle   7  Pass 1  IDiag  1:
 E= -511.109829870915     Delta-E=       -0.000030354518 Rises=F Damp=F
 DIIS: error= 1.38D-04 at cycle   7 NSaved=   7.
 NSaved= 7 IEnMin= 7 EnMin= -511.109829870915     IErMin= 7 ErrMin= 1.38D-04
 ErrMax= 1.38D-04  0.00D+00 EMaxC= 1.00D-01 BMatC= 5.86D-06 BMatP= 2.69D-05
 IDIUse=3 WtCom= 9.99D-01 WtEn= 1.38D-03
 Coeff-Com: -0.118D-02 0.669D-02 0.479D-01 0.167D-01-0.262D+00-0.333D+00
 Coeff-Com:  0.153D+01
 Coeff-En:   0.000D+00 0.000D+00 0.000D+00 0.000D+00 0.000D+00 0.000D+00
 Coeff-En:   0.100D+01
 Coeff:     -0.118D-02 0.668D-02 0.478D-01 0.167D-01-0.262D+00-0.333D+00
 Coeff:      0.152D+01
 Gap=     0.427 Goal=   None    Shift=    0.000
 Gap=     0.427 Goal=   None    Shift=    0.000
 RMSDP=1.03D-04 MaxDP=9.37D-04 DE=-3.04D-05 OVMax= 2.84D-03

 Cycle   8  Pass 1  IDiag  1:
 E= -511.109837329846     Delta-E=       -0.000007458930 Rises=F Damp=F
 DIIS: error= 3.03D-05 at cycle   8 NSaved=   8.
 NSaved= 8 IEnMin= 8 EnMin= -511.109837329846     IErMin= 8 ErrMin= 3.03D-05
 ErrMax= 3.03D-05  0.00D+00 EMaxC= 1.00D-01 BMatC= 2.59D-07 BMatP= 5.86D-06
 IDIUse=1 WtCom= 1.00D+00 WtEn= 0.00D+00
 Coeff-Com:  0.951D-04-0.118D-02-0.757D-02 0.307D-02 0.680D-01-0.297D-01
 Coeff-Com: -0.337D+00 0.130D+01
 Coeff:      0.951D-04-0.118D-02-0.757D-02 0.307D-02 0.680D-01-0.297D-01
 Coeff:     -0.337D+00 0.130D+01
 Gap=     0.427 Goal=   None    Shift=    0.000
 Gap=     0.427 Goal=   None    Shift=    0.000
 RMSDP=2.22D-05 MaxDP=2.29D-04 DE=-7.46D-06 OVMax= 4.84D-04

 Cycle   9  Pass 1  IDiag  1:
 E= -511.109837634766     Delta-E=       -0.000000304920 Rises=F Damp=F
 DIIS: error= 8.82D-06 at cycle   9 NSaved=   9.
 NSaved= 9 IEnMin= 9 EnMin= -511.109837634766     IErMin= 9 ErrMin= 8.82D-06
 ErrMax= 8.82D-06  0.00D+00 EMaxC= 1.00D-01 BMatC= 1.80D-08 BMatP= 2.59D-07
 IDIUse=1 WtCom= 1.00D+00 WtEn= 0.00D+00
 Coeff-Com:  0.622D-04-0.237D-03-0.210D-02-0.151D-02 0.405D-02 0.334D-01
 Coeff-Com: -0.441D-01-0.303D+00 0.131D+01
 Coeff:      0.622D-04-0.237D-03-0.210D-02-0.151D-02 0.405D-02 0.334D-01
 Coeff:     -0.441D-01-0.303D+00 0.131D+01
 Gap=     0.427 Goal=   None    Shift=    0.000
 Gap=     0.427 Goal=   None    Shift=    0.000
 RMSDP=5.37D-06 MaxDP=5.36D-05 DE=-3.05D-07 OVMax= 9.20D-05

 Cycle  10  Pass 1  IDiag  1:
 E= -511.109837652225     Delta-E=       -0.000000017459 Rises=F Damp=F
 DIIS: error= 1.46D-06 at cycle  10 NSaved=  10.
 NSaved=10 IEnMin=10 EnMin= -511.109837652225     IErMin=10 ErrMin= 1.46D-06
 ErrMax= 1.46D-06  0.00D+00 EMaxC= 1.00D-01 BMatC= 8.61D-10 BMatP= 1.80D-08
 IDIUse=1 WtCom= 1.00D+00 WtEn= 0.00D+00
 Coeff-Com: -0.228D-04 0.133D-03 0.951D-03 0.402D-03-0.519D-02-0.720D-02
 Coeff-Com:  0.330D-01-0.961D-02-0.295D+00 0.128D+01
 Coeff:     -0.228D-04 0.133D-03 0.951D-03 0.402D-03-0.519D-02-0.720D-02
 Coeff:      0.330D-01-0.961D-02-0.295D+00 0.128D+01
 Gap=     0.427 Goal=   None    Shift=    0.000
 Gap=     0.427 Goal=   None    Shift=    0.000
 RMSDP=8.63D-07 MaxDP=1.02D-05 DE=-1.75D-08 OVMax= 1.61D-05

 Cycle  11  Pass 1  IDiag  1:
 E= -511.109837652888     Delta-E=       -0.000000000663 Rises=F Damp=F
 DIIS: error= 3.41D-07 at cycle  11 NSaved=  11.
 NSaved=11 IEnMin=11 EnMin= -511.109837652888     IErMin=11 ErrMin= 3.41D-07
 ErrMax= 3.41D-07  0.00D+00 EMaxC= 1.00D-01 BMatC= 4.94D-11 BMatP= 8.61D-10
 IDIUse=1 WtCom= 1.00D+00 WtEn= 0.00D+00
 Coeff-Com:  0.401D-05-0.312D-04-0.193D-03 0.164D-04 0.123D-02 0.931D-03
 Coeff-Com: -0.871D-02 0.166D-01 0.324D-01-0.398D+00 0.136D+01
 Coeff:      0.401D-05-0.312D-04-0.193D-03 0.164D-04 0.123D-02 0.931D-03
 Coeff:     -0.871D-02 0.166D-01 0.324D-01-0.398D+00 0.136D+01
 Gap=     0.427 Goal=   None    Shift=    0.000
 Gap=     0.427 Goal=   None    Shift=    0.000
 RMSDP=1.90D-07 MaxDP=2.26D-06 DE=-6.63D-10 OVMax= 3.69D-06

 Cycle  12  Pass 1  IDiag  1:
 E= -511.109837652925     Delta-E=       -0.000000000038 Rises=F Damp=F
 DIIS: error= 1.12D-07 at cycle  12 NSaved=  12.
 NSaved=12 IEnMin=12 EnMin= -511.109837652925     IErMin=12 ErrMin= 1.12D-07
 ErrMax= 1.12D-07  0.00D+00 EMaxC= 1.00D-01 BMatC= 3.53D-12 BMatP= 4.94D-11
 IDIUse=1 WtCom= 1.00D+00 WtEn= 0.00D+00
 Coeff-Com: -0.964D-06 0.705D-05 0.471D-04-0.302D-04-0.377D-03 0.106D-03
 Coeff-Com:  0.228D-02-0.820D-02 0.514D-02 0.109D+00-0.626D+00 0.152D+01
 Coeff:     -0.964D-06 0.705D-05 0.471D-04-0.302D-04-0.377D-03 0.106D-03
 Coeff:      0.228D-02-0.820D-02 0.514D-02 0.109D+00-0.626D+00 0.152D+01
 Gap=     0.427 Goal=   None    Shift=    0.000
 Gap=     0.427 Goal=   None    Shift=    0.000
 RMSDP=5.97D-08 MaxDP=5.12D-07 DE=-3.75D-11 OVMax= 1.33D-06

 Cycle  13  Pass 1  IDiag  1:
 E= -511.109837652929     Delta-E=       -0.000000000004 Rises=F Damp=F
 DIIS: error= 2.55D-08 at cycle  13 NSaved=  13.
 NSaved=13 IEnMin=13 EnMin= -511.109837652929     IErMin=13 ErrMin= 2.55D-08
 ErrMax= 2.55D-08  0.00D+00 EMaxC= 1.00D-01 BMatC= 2.42D-13 BMatP= 3.53D-12
 IDIUse=1 WtCom= 1.00D+00 WtEn= 0.00D+00
 Coeff-Com: -0.465D-07 0.432D-06 0.192D-05 0.589D-05 0.396D-05-0.544D-04
 Coeff-Com:  0.287D-04 0.586D-03-0.267D-02 0.344D-03 0.545D-01-0.432D+00
 Coeff-Com:  0.138D+01
 Coeff:     -0.465D-07 0.432D-06 0.192D-05 0.589D-05 0.396D-05-0.544D-04
 Coeff:      0.287D-04 0.586D-03-0.267D-02 0.344D-03 0.545D-01-0.432D+00
 Coeff:      0.138D+01
 Gap=     0.427 Goal=   None    Shift=    0.000
 Gap=     0.427 Goal=   None    Shift=    0.000
 RMSDP=2.04D-08 MaxDP=2.05D-07 DE=-3.98D-12 OVMax= 4.78D-07

 Cycle  14  Pass 1  IDiag  1:
 E= -511.109837652930     Delta-E=       -0.000000000000 Rises=F Damp=F
 DIIS: error= 4.23D-09 at cycle  14 NSaved=  14.
 NSaved=14 IEnMin=14 EnMin= -511.109837652930     IErMin=14 ErrMin= 4.23D-09
 ErrMax= 4.23D-09  0.00D+00 EMaxC= 1.00D-01 BMatC= 8.97D-15 BMatP= 2.42D-13
 IDIUse=1 WtCom= 1.00D+00 WtEn= 0.00D+00
 Coeff-Com:  0.504D-07-0.340D-06-0.215D-05 0.109D-06 0.141D-04 0.545D-05
 Coeff-Com: -0.105D-03 0.269D-03 0.220D-03-0.564D-02 0.255D-01-0.205D-01
 Coeff-Com: -0.213D+00 0.121D+01
 Coeff:      0.504D-07-0.340D-06-0.215D-05 0.109D-06 0.141D-04 0.545D-05
 Coeff:     -0.105D-03 0.269D-03 0.220D-03-0.564D-02 0.255D-01-0.205D-01
 Coeff:     -0.213D+00 0.121D+01
 Gap=     0.427 Goal=   None    Shift=    0.000
 Gap=     0.427 Goal=   None    Shift=    0.000
 RMSDP=3.66D-09 MaxDP=3.89D-08 DE=-3.41D-13 OVMax= 8.00D-08

 SCF Done:  E(UHF) =  -511.109837653     A.U. after   14 cycles
            NFock= 14  Conv=0.37D-08     -V/T= 2.0009
 <Sx>= 0.0000 <Sy>= 0.0000 <Sz>= 0.0000 <S**2>=-0.0000 S=-0.0000
 <L.S>=  0.00000000000    
 KE= 5.106730954391D+02 PE=-1.419007891471D+03 EE= 2.944713354990D+02
 Annihilation of the first spin contaminant:
 S**2 before annihilation    -0.0000,   after     0.0000
 Leave Link  502 at Tue Jan  3 09:07:27 2023, MaxMem=   536870912 cpu:               0.4 elap:               0.2
 (Enter /opt/software/gaussian/g16.c01/l508.exe)
 QCSCF skips out because SCF is already converged.
 Leave Link  508 at Tue Jan  3 09:07:27 2023, MaxMem=   536870912 cpu:               0.0 elap:               0.0
 (Enter /opt/software/gaussian/g16.c01/l601.exe)
 Copying SCF densities to generalized density rwf, IOpCl= 1 IROHF=0.

 **********************************************************************

            Population analysis using the SCF Density.

 **********************************************************************

 Alpha  occ. eigenvalues --  -92.05626 -20.52666 -11.30270  -9.08136  -6.76887
 Alpha  occ. eigenvalues --   -6.76756  -6.76654  -1.34986  -1.06220  -0.80676
 Alpha  occ. eigenvalues --   -0.66519  -0.63005  -0.56763  -0.54030  -0.42801
 Alpha  occ. eigenvalues --   -0.37613
 Alpha virt. eigenvalues --    0.05061   0.18670   0.19861   0.26339   0.32307
 Alpha virt. eigenvalues --    0.47690   0.57106   0.65284   0.68347   0.68996
 Alpha virt. eigenvalues --    0.81651   0.83655   0.86670   0.87608   0.88839
 Alpha virt. eigenvalues --    0.95350   0.99361   1.09662   1.18569   1.28279
 Alpha virt. eigenvalues --    1.32476   1.38082   1.40128   1.47123   1.61043
 Alpha virt. eigenvalues --    1.78464   1.79549   1.91560   2.25201   2.29741
 Alpha virt. eigenvalues --    2.30126   2.47850   2.67683   3.02086   3.02297
 Alpha virt. eigenvalues --    3.07881   3.16050   3.17377   3.28045   3.71190
  Beta  occ. eigenvalues --  -92.05626 -20.52666 -11.30270  -9.08136  -6.76887
  Beta  occ. eigenvalues --   -6.76756  -6.76654  -1.34986  -1.06220  -0.80676
  Beta  occ. eigenvalues --   -0.66519  -0.63005  -0.56763  -0.54030  -0.42801
  Beta  occ. eigenvalues --   -0.37613
  Beta virt. eigenvalues --    0.05061   0.18670   0.19861   0.26339   0.32307
  Beta virt. eigenvalues --    0.47690   0.57106   0.65284   0.68347   0.68996
  Beta virt. eigenvalues --    0.81651   0.83655   0.86670   0.87608   0.88839
  Beta virt. eigenvalues --    0.95350   0.99361   1.09662   1.18569   1.28279
  Beta virt. eigenvalues --    1.32476   1.38082   1.40128   1.47123   1.61043
  Beta virt. eigenvalues --    1.78464   1.79549   1.91560   2.25201   2.29741
  Beta virt. eigenvalues --    2.30126   2.47850   2.67683   3.02086   3.02297
  Beta virt. eigenvalues --    3.07881   3.16050   3.17377   3.28045   3.71190
          Condensed to atoms (all electrons):
               1          2          3          4          5
     1  C    5.104704   0.405500  -0.054607   0.376077   0.395048
     2  S    0.405500  14.666757   0.308404  -0.015284  -0.011774
     3  O   -0.054607   0.308404   8.416055   0.002202   0.003146
     4  H    0.376077  -0.015284   0.002202   0.530126  -0.009807
     5  H    0.395048  -0.011774   0.003146  -0.009807   0.484545
          Atomic-Atomic Spin Densities.
               1          2          3          4          5
     1  C    0.000000   0.000000   0.000000   0.000000   0.000000
     2  S    0.000000   0.000000   0.000000   0.000000   0.000000
     3  O    0.000000   0.000000   0.000000   0.000000   0.000000
     4  H    0.000000   0.000000   0.000000   0.000000   0.000000
     5  H    0.000000   0.000000   0.000000   0.000000   0.000000
 Mulliken charges and spin densities:
               1          2
     1  C   -0.226723   0.000000
     2  S    0.646397   0.000000
     3  O   -0.675201   0.000000
     4  H    0.116685   0.000000
     5  H    0.138841   0.000000
 Sum of Mulliken charges =  -0.00000   0.00000
 Mulliken charges and spin densities with hydrogens summed into heavy atoms:
               1          2
     1  C    0.028804   0.000000
     2  S    0.646397   0.000000
     3  O   -0.675201   0.000000
 Electronic spatial extent (au):  <R**2>=            830.3439
 Charge=             -0.0000 electrons
 Dipole moment (field-independent basis, Debye):
    X=             -2.7967    Y=              1.4474    Z=              2.5339  Tot=              4.0419
 Quadrupole moment (field-independent basis, Debye-Ang):
   XX=            -36.0106   YY=            -25.6255   ZZ=            -28.0551
   XY=              4.9027   XZ=              8.7680   YZ=             -1.8709
 Traceless Quadrupole moment (field-independent basis, Debye-Ang):
   XX=             -6.1135   YY=              4.2716   ZZ=              1.8420
   XY=              4.9027   XZ=              8.7680   YZ=             -1.8709
 Octapole moment (field-independent basis, Debye-Ang**2):
  XXX=           -206.7655  YYY=             14.2766  ZZZ=             34.7658  XYY=            -58.3281
  XXY=             20.4680  XXZ=             38.2111  XZZ=            -69.4163  YZZ=              8.2110
  YYZ=             11.3954  XYZ=             -8.7536
 Hexadecapole moment (field-independent basis, Debye-Ang**3):
 XXXX=          -1027.4026 YYYY=            -45.5628 ZZZZ=            -98.8578 XXXY=             93.7027
 XXXZ=            177.6867 YYYX=             44.0450 YYYZ=            -18.9483 ZZZX=            103.7895
 ZZZY=            -21.6224 XXYY=           -164.7437 XXZZ=           -209.5656 YYZZ=            -24.7972
 XXYZ=            -35.2118 YYXZ=             33.7671 ZZXY=             25.6817
 N-N= 1.027536228800D+02 E-N=-1.419007891454D+03  KE= 5.106730954391D+02
                          Isotropic Fermi Contact Couplings
        Atom                 a.u.       MegaHertz       Gauss      10(-4) cm-1
     1  C(13)              0.00000       0.00000       0.00000       0.00000
     2  S(33)              0.00000       0.00000       0.00000       0.00000
     3  O(17)              0.00000      -0.00000      -0.00000      -0.00000
     4  H(1)               0.00000       0.00000       0.00000       0.00000
     5  H(1)               0.00000       0.00000       0.00000       0.00000
 --------------------------------------------------------
       Center         ----  Spin Dipole Couplings  ----
                      3XX-RR        3YY-RR        3ZZ-RR
 --------------------------------------------------------
     1   Atom        0.000000      0.000000      0.000000
     2   Atom        0.000000      0.000000      0.000000
     3   Atom        0.000000      0.000000      0.000000
     4   Atom        0.000000      0.000000      0.000000
     5   Atom        0.000000      0.000000      0.000000
 --------------------------------------------------------
                        XY            XZ            YZ
 --------------------------------------------------------
     1   Atom        0.000000      0.000000      0.000000
     2   Atom        0.000000      0.000000      0.000000
     3   Atom        0.000000      0.000000      0.000000
     4   Atom        0.000000      0.000000      0.000000
     5   Atom        0.000000      0.000000      0.000000
 --------------------------------------------------------


 ---------------------------------------------------------------------------------
              Anisotropic Spin Dipole Couplings in Principal Axis System
 ---------------------------------------------------------------------------------

       Atom             a.u.   MegaHertz   Gauss  10(-4) cm-1        Axes

              Baa     0.0000     0.000     0.000     0.000  1.0000  0.0000  0.0000
     1 C(13)  Bbb     0.0000     0.000     0.000     0.000 -0.0000  1.0000  0.0000
              Bcc     0.0000     0.000     0.000     0.000  0.0000  0.0000  1.0000
 
              Baa     0.0000     0.000     0.000     0.000  1.0000  0.0000  0.0000
     2 S(33)  Bbb     0.0000     0.000     0.000     0.000 -0.0000  1.0000  0.0000
              Bcc     0.0000     0.000     0.000     0.000  0.0000  0.0000  1.0000
 
              Baa     0.0000    -0.000    -0.000    -0.000  1.0000  0.0000  0.0000
     3 O(17)  Bbb     0.0000    -0.000    -0.000    -0.000 -0.0000  1.0000  0.0000
              Bcc     0.0000    -0.000    -0.000    -0.000  0.0000  0.0000  1.0000
 
              Baa     0.0000     0.000     0.000     0.000  1.0000  0.0000  0.0000
     4 H(1)   Bbb     0.0000     0.000     0.000     0.000 -0.0000  1.0000  0.0000
              Bcc     0.0000     0.000     0.000     0.000  0.0000  0.0000  1.0000
 
              Baa     0.0000     0.000     0.000     0.000  1.0000  0.0000  0.0000
     5 H(1)   Bbb     0.0000     0.000     0.000     0.000 -0.0000  1.0000  0.0000
              Bcc     0.0000     0.000     0.000     0.000  0.0000  0.0000  1.0000
 

 ---------------------------------------------------------------------------------

 No NMR shielding tensors so no spin-rotation constants.
 Leave Link  601 at Tue Jan  3 09:07:27 2023, MaxMem=   536870912 cpu:               0.3 elap:               0.2
 (Enter /opt/software/gaussian/g16.c01/l801.exe)
 Range of M.O.s used for correlation:     1    56
 NBasis=    56 NAE=    16 NBE=    16 NFC=     0 NFV=     0
 NROrb=     56 NOA=    16 NOB=    16 NVA=    40 NVB=    40
 Leave Link  801 at Tue Jan  3 09:07:27 2023, MaxMem=   536870912 cpu:               0.1 elap:               0.0
 (Enter /opt/software/gaussian/g16.c01/l914.exe)
 UHF ground state
 Doing stability rather than CIS.
 Keep R1 and R2 ints in memory in canonical form, NReq=3393884.
 FoFCou: FMM=F IPFlag=           0 FMFlag=           0 FMFlg1=           0
         NFxFlg=           0 DoJE=F BraDBF=F KetDBF=F FulRan=T
         wScrn=  0.000000 ICntrl=       600 IOpCl=  0 I1Cent=           0 NGrid=           0
         NMat0=    1 NMatS0=   1596 NMatT0=    0 NMatD0=    1 NMtDS0=    0 NMtDT0=    0
 Symmetry not used in FoFCou.
 Two-electron integral symmetry not used.
 MDV=   536870912 DFT=F DoStab=T Mixed=F DoRPA=F DoScal=F NonHer=F
 Making orbital integer symmetry assigments:
    12 initial guesses have been made.
 Convergence on wavefunction:    0.001000000000000
 Davidson Disk Diagonalization:  ConvIn= 1.00D-03 SkipCon=T Conv= 1.00D-03.
 Max sub-space:  2000 roots to seek:    12 dimension of matrix:         1280
 Iteration     1 Dimension    12 NMult     0 NNew     12
 CISAX will form    12 AO SS matrices at one time.
 NMat=    12 NSing=    12 JSym2X= 0.
 Excitation Energies [eV] at current iteration:
 Root      1 :    -0.601662257974377
 Root      2 :     3.731660063119674
 Root      3 :     5.573655870576998
 Root      4 :     5.892018425011440
 Root      5 :     6.327673476588453
 Root      6 :     7.143706312146596
 Root      7 :     7.395547971646662
 Root      8 :     8.082632043588685
 Root      9 :     8.603061768646770
 Root     10 :     9.333138130281046
 Root     11 :    10.933084383759887
 Root     12 :    13.552290633547306
 Iteration     2 Dimension    24 NMult    12 NNew     12
 CISAX will form    12 AO SS matrices at one time.
 NMat=    12 NSing=    12 JSym2X= 0.
 Root      1 not converged, maximum delta is    0.057769791919443
 Excitation Energies [eV] at current iteration:
 Root      1 :    -1.465129966565857   Change is   -0.863467708591479
 Root      2 :     2.617650591126353   Change is   -1.114009471993321
 Root      3 :     4.798526083411248   Change is   -0.775129787165750
 Root      4 :     4.815381824680221   Change is   -1.076636600331219
 Root      5 :     5.178022063337250   Change is   -1.149651413251203
 Root      6 :     5.549339420189487   Change is   -5.383744963570400
 Root      7 :     5.704282172041614   Change is   -1.439424140104982
 Root      8 :     6.710040571932477   Change is   -0.685507399714186
 Root      9 :     7.378982413385651   Change is   -0.703649630203034
 Root     10 :     8.397142319377600   Change is   -0.205919449269168
 Root     11 :     8.956355357609411   Change is   -0.376782772671636
 Root     12 :     9.824501458867831   Change is   -3.727789174679475
 Iteration     3 Dimension    27 NMult    24 NNew      3
 CISAX will form     3 AO SS matrices at one time.
 NMat=     3 NSing=     3 JSym2X= 0.
 Root      1 not converged, maximum delta is    0.010107978745254
 Excitation Energies [eV] at current iteration:
 Root      1 :    -1.500442327338538   Change is   -0.035312360772682
 Root      2 :     2.501367558658805   Change is   -0.116283032467549
 Root      3 :     4.680162684153358   Change is   -0.118363399257889
 Iteration     4 Dimension    30 NMult    27 NNew      3
 CISAX will form     3 AO SS matrices at one time.
 NMat=     3 NSing=     3 JSym2X= 0.
 Root      1 not converged, maximum delta is    0.003434794484287
 Excitation Energies [eV] at current iteration:
 Root      1 :    -1.503550227686103   Change is   -0.003107900347564
 Root      2 :     2.480907452747188   Change is   -0.020460105911617
 Root      3 :     4.669095850809009   Change is   -0.011066833344350
 Iteration     5 Dimension    33 NMult    30 NNew      3
 CISAX will form     3 AO SS matrices at one time.
 NMat=     3 NSing=     3 JSym2X= 0.
 Root      1 has converged.
 Excitation Energies [eV] at current iteration:
 Root      1 :    -1.503693838879039   Change is   -0.000143611192936
 Root      2 :     2.479719783469197   Change is   -0.001187669277990
 Root      3 :     4.667852616409133   Change is   -0.001243234399877
 Convergence achieved on expansion vectors.
 ***********************************************************************
 Stability analysis using <AA,BB:AA,BB> singles matrix:
 ***********************************************************************
 1PDM for each excited state written to RWF  633
 Ground to excited state transition densities written to RWF  633

 Eigenvectors of the stability matrix:
 
 Excited state symmetry could not be determined.
 Eigenvector   1:  3.000-?Sym  Eigenvalue=-0.0552597  <S**2>=2.000
     13A -> 17A       -0.10867
     16A -> 17A        0.68074
     13B -> 17B        0.10867
     16B -> 17B       -0.68074
 The wavefunction has an internal instability.
 Leave Link  914 at Tue Jan  3 09:07:28 2023, MaxMem=   536870912 cpu:               0.5 elap:               0.3
 (Enter /opt/software/gaussian/g16.c01/l508.exe)
 Keep R1 and R2 ints in memory in canonical form, NReq=3393944.
 FoFCou: FMM=F IPFlag=           0 FMFlag=           0 FMFlg1=           0
         NFxFlg=           0 DoJE=F BraDBF=F KetDBF=F FulRan=T
         wScrn=  0.000000 ICntrl=       600 IOpCl=  0 I1Cent=           0 NGrid=           0
         NMat0=    1 NMatS0=   1596 NMatT0=    0 NMatD0=    1 NMtDS0=    0 NMtDT0=    0
 Symmetry not used in FoFCou.
 Two-electron integral symmetry not used.
 Very tight linear equation convergence will be used.
 UHF wavefunction.
 Quadratic Convergence SCF Method.
 Line search only if initial step raises energy.
 Perform preliminary linear searches along instability eigenvector.
     ILin= 1 X=0.000D+00 Y=-5.111098376529D+02 DE= 0.00D+00
     ILin= 2 X=1.000D-01 Y=-5.111103770620D+02 DE=-5.39D-04
     ILin= 3 X=1.414D-01 Y=-5.111108902977D+02 DE=-1.05D-03
     ILin= 4 X=2.000D-01 Y=-5.111118391547D+02 DE=-2.00D-03
     ILin= 5 X=2.828D-01 Y=-5.111134326681D+02 DE=-3.60D-03
     ILin= 6 X=4.000D-01 Y=-5.111154519088D+02 DE=-5.61D-03
     ILin= 7 X=5.657D-01 Y=-5.111151949708D+02 DE=-5.36D-03
     An  expanding polynomial of degree  7 produced  0.4811
 Iteration F X= 4.811D-01 EE=-5.111160120814081D+02
     ILin= 1 X=0.000D+00 Y=-5.111098376529D+02 DE= 0.00D+00
     ILin= 2 X=1.000D-01 Y=-5.111103770617D+02 DE=-5.39D-04
     ILin= 3 X=1.414D-01 Y=-5.111108902968D+02 DE=-1.05D-03
 The two search directions are symmetric.
 Iteration B X= 4.811D-01 EE=-5.111160120814081D+02
 Take forward step, X= 4.811D-01 Step= 4.811D-01
 Iteration   1 EE= -511.116012330579                                    Grad=3.075D-02 Max rot=    0.6353 deg.
 Gradient too large for Newton-Raphson -- use scaled steepest descent instead.
 Alpha Gap=     0.490 HL deriv= 1.79D-03
  Beta Gap=     0.475 HL deriv= 3.95D-03
     ILin= 1 X=0.000D+00 Y=-5.111160123306D+02 DE= 0.00D+00 F= -1.61D-03
     ILin= 2 X=3.000D-01 Y=-5.111164444647D+02 DE=-4.32D-04 F= -1.27D-03 OKLS=F
     ILin= 3 X=6.000D-01 Y=-5.111167767252D+02 DE=-7.64D-04 F= -9.41D-04
     ILin= 4 X=1.200D+00 Y=-5.111171426149D+02 DE=-1.13D-03 F= -2.79D-04
     ILin= 5 X=2.400D+00 Y=-5.111166868104D+02 DE=-6.74D-04 F=  1.04D-03
     An  expanding polynomial of degree  5 produced  1.4534
 Iteration   2 EE= -511.117177932073     Delta-E=       -0.001165601494 Grad=1.470D-02 Max rot=    0.3456 deg.
 Gradient too large for Newton-Raphson -- use scaled steepest descent instead.
 Alpha Gap=     0.486 HL deriv= 3.36D-03
  Beta Gap=     0.474 HL deriv= 1.05D-02
     ILin= 1 X=0.000D+00 Y=-5.111171779321D+02 DE= 0.00D+00 F= -4.13D-04
     ILin= 2 X=7.000D-01 Y=-5.111173654241D+02 DE=-1.87D-04 F= -1.22D-04 OKLS=T
     Reject lnstep IMin12=  1  2 Big=T Turn=F Min= 1.093D+00 FVal=-5.111174138307D+02 Lims=  0.00D+00  7.00D-01
     ILin= 3 X=1.300D+00 Y=-5.111173635699D+02 DE=-1.86D-04 F=  1.28D-04
     An  expanding polynomial of degree  3 produced  0.9926
 Iteration   3 EE= -511.117383295079     Delta-E=       -0.000205363006 Grad=1.238D-02 Max rot=    0.1566 deg.
 Gradient too large for Newton-Raphson -- use scaled steepest descent instead.
 Alpha Gap=     0.492 HL deriv= 4.30D-03
  Beta Gap=     0.475 HL deriv= 5.75D-03
     ILin= 1 X=0.000D+00 Y=-5.111173832951D+02 DE= 0.00D+00 F= -2.42D-04
     ILin= 2 X=1.200D+00 Y=-5.111175134007D+02 DE=-1.30D-04 F=  2.50D-05 OKLS=T
     Accept linear search using points  1 and  2.
     An  expanding polynomial of degree  2 produced  1.1245
     Minimum is close to point  2 DX= -7.55D-02 DF= -7.79D-07 DXR=  6.71D-02 DFR=  5.98D-03 which will be used.
 Iteration   4 EE= -511.117513400719     Delta-E=       -0.000130105640 Grad=1.125D-02 Max rot=    0.2638 deg.
 Gradient too large for Newton-Raphson -- use scaled steepest descent instead.
 Alpha Gap=     0.490 HL deriv= 1.68D-03
  Beta Gap=     0.476 HL deriv= 8.81D-03
     ILin= 1 X=0.000D+00 Y=-5.111175134007D+02 DE= 0.00D+00 F= -2.51D-04
     ILin= 2 X=1.100D+00 Y=-5.111176086658D+02 DE=-9.53D-05 F=  7.82D-05 OKLS=T
     Accept linear search using points  1 and  2.
     An  expanding polynomial of degree  2 produced  0.8685
 Iteration   5 EE= -511.117618734115     Delta-E=       -0.000105333396 Grad=8.879D-03 Max rot=    0.1215 deg.
 QCNR:  CnvC1=3.58D-10 CnvC2=3.58D-09
 LinEq1:  Iter=  0 NonCon=     1 RMS=2.48D-04 Max=5.11D-03 NDo=     1
 AX will form     1 AO Fock derivatives at one time.
 LinEq1:  Iter=  1 NonCon=     1 RMS=2.23D-04 Max=5.35D-03 NDo=     1
 LinEq1:  Iter=  2 NonCon=     1 RMS=1.39D-05 Max=2.09D-04 NDo=     1
 LinEq1:  Iter=  3 NonCon=     1 RMS=6.80D-06 Max=1.44D-04 NDo=     1
 LinEq1:  Iter=  4 NonCon=     1 RMS=1.86D-06 Max=2.76D-05 NDo=     1
 LinEq1:  Iter=  5 NonCon=     1 RMS=4.38D-07 Max=5.62D-06 NDo=     1
 LinEq1:  Iter=  6 NonCon=     1 RMS=1.63D-07 Max=1.88D-06 NDo=     1
 LinEq1:  Iter=  7 NonCon=     1 RMS=3.96D-08 Max=3.97D-07 NDo=     1
 LinEq1:  Iter=  8 NonCon=     1 RMS=1.00D-08 Max=6.83D-08 NDo=     1
 LinEq1:  Iter=  9 NonCon=     1 RMS=2.40D-09 Max=2.54D-08 NDo=     1
 LinEq1:  Iter= 10 NonCon=     1 RMS=5.33D-10 Max=4.15D-09 NDo=     1
 LinEq1:  Iter= 11 NonCon=     0 RMS=1.09D-10 Max=9.55D-10 NDo=     1
 Linear equations converged to 3.578D-10 3.578D-09 after    11 iterations.
 Angle between quadratic step and gradient=  55.99 degrees.
     ILin= 1 X=0.000D+00 Y=-5.111176187341D+02 DE= 0.00D+00 F= -7.29D-04
     ILin= 2 X=1.000D+00 Y=-5.111179760759D+02 DE=-3.57D-04 F=  2.41D-05 OKLS=T
     Accept linear search using points  1 and  2.
     An  expanding polynomial of degree  2 produced  0.9692
     Minimum is close to point  2 DX= -3.08D-02 DF= -3.70D-07 DXR=  3.18D-02 DFR=  1.04D-03 which will be used.
 Iteration   6 EE= -511.117976075894     Delta-E=       -0.000357341779 Grad=1.146D-03 Max rot=    0.0308 deg.
 QCNR:  CnvC1=3.58D-10 CnvC2=3.58D-09
 LinEq1:  Iter=  0 NonCon=     1 RMS=3.99D-05 Max=8.85D-04 NDo=     1
 LinEq1:  Iter=  1 NonCon=     1 RMS=1.17D-05 Max=1.40D-04 NDo=     1
 LinEq1:  Iter=  2 NonCon=     1 RMS=7.83D-06 Max=1.64D-04 NDo=     1
 LinEq1:  Iter=  3 NonCon=     1 RMS=1.97D-06 Max=3.24D-05 NDo=     1
 LinEq1:  Iter=  4 NonCon=     1 RMS=7.37D-07 Max=6.87D-06 NDo=     1
 LinEq1:  Iter=  5 NonCon=     1 RMS=1.90D-07 Max=2.00D-06 NDo=     1
 LinEq1:  Iter=  6 NonCon=     1 RMS=6.78D-08 Max=1.29D-06 NDo=     1
 LinEq1:  Iter=  7 NonCon=     1 RMS=2.46D-08 Max=3.20D-07 NDo=     1
 LinEq1:  Iter=  8 NonCon=     1 RMS=6.88D-09 Max=7.52D-08 NDo=     1
 LinEq1:  Iter=  9 NonCon=     1 RMS=2.00D-09 Max=1.54D-08 NDo=     1
 LinEq1:  Iter= 10 NonCon=     1 RMS=5.01D-10 Max=5.33D-09 NDo=     1
 LinEq1:  Iter= 11 NonCon=     0 RMS=9.32D-11 Max=8.82D-10 NDo=     1
 Linear equations converged to 3.578D-10 3.578D-09 after    11 iterations.
 Angle between quadratic step and gradient=  43.41 degrees.
     ILin= 1 X=0.000D+00 Y=-5.111179760759D+02 DE= 0.00D+00 F= -7.85D-06
     ILin= 2 X=1.000D+00 Y=-5.111179800132D+02 DE=-3.94D-06 F= -3.65D-08 OKLS=T
     Reject lnstep IMin12=  1  2 Big=T Turn=F Min= 1.005D+00 FVal=-5.111179800133D+02 Lims=  0.00D+00  1.00D+00
     ILin= 3 X=2.000D+00 Y=-5.111179761734D+02 DE=-9.75D-08 F=  7.70D-06
     An  expanding polynomial of degree  3 produced  1.0063
     Minimum is close to point  2 DX=  6.27D-03 DF= -1.53D-10 DXR=  6.23D-03 DFR=  3.88D-05 which will be used.
 Iteration   7 EE= -511.117980013234     Delta-E=       -0.000003937340 Grad=5.073D-06 Max rot=    0.0002 deg.
 QCNR:  CnvC1=5.07D-11 CnvC2=5.07D-10
 LinEq1:  Iter=  0 NonCon=     1 RMS=2.45D-07 Max=5.95D-06 NDo=     1
 LinEq1:  Iter=  1 NonCon=     1 RMS=4.24D-08 Max=4.56D-07 NDo=     1
 LinEq1:  Iter=  2 NonCon=     1 RMS=2.91D-08 Max=5.61D-07 NDo=     1
 LinEq1:  Iter=  3 NonCon=     1 RMS=1.07D-08 Max=1.12D-07 NDo=     1
 LinEq1:  Iter=  4 NonCon=     1 RMS=4.35D-09 Max=5.25D-08 NDo=     1
 LinEq1:  Iter=  5 NonCon=     1 RMS=1.17D-09 Max=1.61D-08 NDo=     1
 LinEq1:  Iter=  6 NonCon=     1 RMS=4.11D-10 Max=3.45D-09 NDo=     1
 LinEq1:  Iter=  7 NonCon=     1 RMS=1.30D-10 Max=1.09D-09 NDo=     1
 LinEq1:  Iter=  8 NonCon=     0 RMS=3.97D-11 Max=3.31D-10 NDo=     1
 Linear equations converged to 5.073D-11 5.073D-10 after     8 iterations.
 Angle between quadratic step and gradient=  33.86 degrees.
     ILin= 1 X=0.000D+00 Y=-5.111179800132D+02 DE= 0.00D+00 F= -4.31D-10
     ILin= 2 X=1.000D+00 Y=-5.111179800134D+02 DE=-2.14D-10
 Iteration   8 EE= -511.117980013449     Delta-E=       -0.000000000214 Grad=1.091D-07 Max rot=    0.0000 deg.
 Rotation gradient small -- convergence achieved.
 SCF Done:  E(UHF) =  -511.117980013     a.u. after    8 cycles
            Convg  =    0.1091D-06                    54 Fock formations.
              S**2 =  0.5098                  -V/T =  2.0005
 <Sx>= 0.0000 <Sy>= 0.0000 <Sz>= 0.0000 <S**2>= 0.5098 S= 0.3717
 <L.S>=  0.00000000000    
 Annihilation of the first spin contaminant:
 S**2 before annihilation     0.5098,   after     0.0437
 Leave Link  508 at Tue Jan  3 09:07:28 2023, MaxMem=   536870912 cpu:               0.6 elap:               0.4
 (Enter /opt/software/gaussian/g16.c01/l801.exe)
 Range of M.O.s used for correlation:     1    56
 NBasis=    56 NAE=    16 NBE=    16 NFC=     0 NFV=     0
 NROrb=     56 NOA=    16 NOB=    16 NVA=    40 NVB=    40
 Leave Link  801 at Tue Jan  3 09:07:28 2023, MaxMem=   536870912 cpu:               0.1 elap:               0.0
 (Enter /opt/software/gaussian/g16.c01/l914.exe)
 UHF ground state
 Doing stability rather than CIS.
 Keep R1 and R2 ints in memory in canonical form, NReq=3393884.
 FoFCou: FMM=F IPFlag=           0 FMFlag=           0 FMFlg1=           0
         NFxFlg=           0 DoJE=F BraDBF=F KetDBF=F FulRan=T
         wScrn=  0.000000 ICntrl=       600 IOpCl=  0 I1Cent=           0 NGrid=           0
         NMat0=    1 NMatS0=   1596 NMatT0=    0 NMatD0=    1 NMtDS0=    0 NMtDT0=    0
 Symmetry not used in FoFCou.
 Two-electron integral symmetry not used.
 MDV=   536870912 DFT=F DoStab=T Mixed=F DoRPA=F DoScal=F NonHer=F
 Making orbital integer symmetry assigments:
    12 initial guesses have been made.
 Convergence on wavefunction:    0.001000000000000
 Davidson Disk Diagonalization:  ConvIn= 1.00D-03 SkipCon=T Conv= 1.00D-03.
 Max sub-space:  2000 roots to seek:    12 dimension of matrix:         1280
 Iteration     1 Dimension    12 NMult     0 NNew     12
 CISAX will form    12 AO SS matrices at one time.
 NMat=    12 NSing=    12 JSym2X= 0.
 New state      1 was old state      2
 Excitation Energies [eV] at current iteration:
 Root      1 :     3.564293397930502
 Root      2 :     3.659902934539757
 Root      3 :     6.273766260708018
 Root      4 :     6.665467103853543
 Root      5 :     7.214355230294378
 Root      6 :     7.500178417996090
 Root      7 :     7.592485455432533
 Root      8 :     9.256348837319381
 Root      9 :    10.371758186068293
 Root     10 :    10.399728433712117
 Root     11 :    10.508007090668130
 Root     12 :    10.602851766589261
 Iteration     2 Dimension    24 NMult    12 NNew     12
 CISAX will form    12 AO SS matrices at one time.
 NMat=    12 NSing=    12 JSym2X= 0.
 New state      1 was old state      2
 Root      1 not converged, maximum delta is    0.306986742416348
 Excitation Energies [eV] at current iteration:
 Root      1 :     2.098018653003160   Change is   -1.561884281536597
 Root      2 :     2.587220709125658   Change is   -0.977072688804844
 Root      3 :     4.160603981277164   Change is   -2.504863122576379
 Root      4 :     4.958703898860130   Change is   -1.315062361847888
 Root      5 :     5.914412261120422   Change is   -1.585766156875668
 Root      6 :     6.052475945493824   Change is   -1.161879284800554
 Root      7 :     6.760008610755793   Change is   -0.832476844676740
 Root      8 :     8.116771922904414   Change is   -2.486079843684845
 Root      9 :     8.244061106334442   Change is   -1.012287730984938
 Root     10 :     8.838724827440183   Change is   -1.561003606271934
 Root     11 :     9.232231811360320   Change is   -1.275775279307811
 Root     12 :     9.379563649912082   Change is   -0.992194536156210
 Iteration     3 Dimension    27 NMult    24 NNew      3
 CISAX will form     3 AO SS matrices at one time.
 NMat=     3 NSing=     3 JSym2X= 0.
 Root      1 not converged, maximum delta is    0.064866186607512
 Excitation Energies [eV] at current iteration:
 Root      1 :     1.831293298104123   Change is   -0.266725354899037
 Root      2 :     2.544787385218104   Change is   -0.042433323907555
 Root      3 :     3.913964721180121   Change is   -0.246639260097044
 Iteration     4 Dimension    30 NMult    27 NNew      3
 CISAX will form     3 AO SS matrices at one time.
 NMat=     3 NSing=     3 JSym2X= 0.
 Root      1 not converged, maximum delta is    0.010115881150095
 Excitation Energies [eV] at current iteration:
 Root      1 :     1.805261946516106   Change is   -0.026031351588017
 Root      2 :     2.539776366902583   Change is   -0.005011018315521
 Root      3 :     3.892895286616637   Change is   -0.021069434563484
 Iteration     5 Dimension    33 NMult    30 NNew      3
 CISAX will form     3 AO SS matrices at one time.
 NMat=     3 NSing=     3 JSym2X= 0.
 Root      1 not converged, maximum delta is    0.004150322771942
 Excitation Energies [eV] at current iteration:
 Root      1 :     1.800596573759183   Change is   -0.004665372756923
 Root      2 :     2.539255891033936   Change is   -0.000520475868647
 Root      3 :     3.889726640643550   Change is   -0.003168645973087
 Iteration     6 Dimension    36 NMult    33 NNew      3
 CISAX will form     3 AO SS matrices at one time.
 NMat=     3 NSing=     3 JSym2X= 0.
 Root      1 not converged, maximum delta is    0.002101956312652
 Excitation Energies [eV] at current iteration:
 Root      1 :     1.799959940503702   Change is   -0.000636633255481
 Root      2 :     2.539217082639651   Change is   -0.000038808394285
 Root      3 :     3.888974145388982   Change is   -0.000752495254568
 Iteration     7 Dimension    39 NMult    36 NNew      3
 CISAX will form     3 AO SS matrices at one time.
 NMat=     3 NSing=     3 JSym2X= 0.
 Root      1 not converged, maximum delta is    0.001149013824336
 Excitation Energies [eV] at current iteration:
 Root      1 :     1.799865862849991   Change is   -0.000094077653711
 Root      2 :     2.539213788052875   Change is   -0.000003294586777
 Root      3 :     3.888795849306538   Change is   -0.000178296082444
 Iteration     8 Dimension    42 NMult    39 NNew      3
 CISAX will form     3 AO SS matrices at one time.
 NMat=     3 NSing=     3 JSym2X= 0.
 Root      1 has converged.
 Excitation Energies [eV] at current iteration:
 Root      1 :     1.799855245399351   Change is   -0.000010617450640
 Root      2 :     2.539213566984842   Change is   -0.000000221068033
 Root      3 :     3.888774565316636   Change is   -0.000021283989902
 Convergence achieved on expansion vectors.
 ***********************************************************************
 Stability analysis using <AA,BB:AA,BB> singles matrix:
 ***********************************************************************
 1PDM for each excited state written to RWF  633
 Ground to excited state transition densities written to RWF  633

 Eigenvectors of the stability matrix:
 
 Excited state symmetry could not be determined.
 Eigenvector   1:  2.196-?Sym  Eigenvalue= 0.0661435  <S**2>=0.956
     16A -> 17A        0.27861
     14B -> 17B       -0.25726
     16B -> 17B        0.86846
 The wavefunction is stable under the perturbations considered.
 Leave Link  914 at Tue Jan  3 09:07:29 2023, MaxMem=   536870912 cpu:               0.5 elap:               0.3
 (Enter /opt/software/gaussian/g16.c01/l508.exe)
 The wavefunction is already stable.
 Leave Link  508 at Tue Jan  3 09:07:29 2023, MaxMem=   536870912 cpu:               0.0 elap:               0.0
 (Enter /opt/software/gaussian/g16.c01/l601.exe)
 Copying SCF densities to generalized density rwf, IOpCl= 1 IROHF=0.

 **********************************************************************

            Population analysis using the SCF Density.

 **********************************************************************

 Alpha  occ. eigenvalues --  -92.03746 -20.55852 -11.27534  -9.06633  -6.75767
 Alpha  occ. eigenvalues --   -6.75342  -6.75053  -1.37966  -1.05460  -0.80106
 Alpha  occ. eigenvalues --   -0.65849  -0.63599  -0.62035  -0.55430  -0.44316
 Alpha  occ. eigenvalues --   -0.40668
 Alpha virt. eigenvalues --    0.09004   0.19215   0.19875   0.26251   0.32675
 Alpha virt. eigenvalues --    0.48028   0.57691   0.66715   0.68563   0.73186
 Alpha virt. eigenvalues --    0.82132   0.85241   0.87153   0.87522   0.89109
 Alpha virt. eigenvalues --    0.94310   0.99854   1.08279   1.18898   1.27869
 Alpha virt. eigenvalues --    1.27962   1.36727   1.42347   1.46190   1.59825
 Alpha virt. eigenvalues --    1.78847   1.80990   1.92689   2.27576   2.30636
 Alpha virt. eigenvalues --    2.32745   2.50262   2.68901   2.97767   2.98284
 Alpha virt. eigenvalues --    3.07283   3.11999   3.18391   3.27469   3.68769
  Beta  occ. eigenvalues --  -92.03372 -20.53844 -11.29429  -9.06228  -6.75128
  Beta  occ. eigenvalues --   -6.74833  -6.74226  -1.33997  -1.06748  -0.80277
  Beta  occ. eigenvalues --   -0.66488  -0.63102  -0.54014  -0.53921  -0.42812
  Beta  occ. eigenvalues --   -0.38776
  Beta virt. eigenvalues --    0.07752   0.18458   0.20086   0.26677   0.32836
  Beta virt. eigenvalues --    0.48268   0.57372   0.64930   0.65257   0.68869
  Beta virt. eigenvalues --    0.83055   0.83399   0.86653   0.89223   0.89454
  Beta virt. eigenvalues --    0.98177   0.99952   1.10046   1.18975   1.28105
  Beta virt. eigenvalues --    1.34979   1.37809   1.38882   1.47082   1.60691
  Beta virt. eigenvalues --    1.78928   1.79083   1.91305   2.24062   2.28760
  Beta virt. eigenvalues --    2.29901   2.46581   2.67758   3.02525   3.02681
  Beta virt. eigenvalues --    3.07620   3.16585   3.17511   3.27518   3.70711
          Condensed to atoms (all electrons):
               1          2          3          4          5
     1  C    5.178030   0.298117  -0.045880   0.381160   0.393787
     2  S    0.298117  14.871757   0.298176  -0.017468  -0.012004
     3  O   -0.045880   0.298176   8.343139   0.002113   0.002803
     4  H    0.381160  -0.017468   0.002113   0.530888  -0.009282
     5  H    0.393787  -0.012004   0.002803  -0.009282   0.493142
          Atomic-Atomic Spin Densities.
               1          2          3          4          5
     1  C   -0.967900   0.067032   0.009056   0.006223   0.003063
     2  S    0.067032   0.475592  -0.146165  -0.002969   0.001783
     3  O    0.009056  -0.146165   0.503035   0.000022  -0.000779
     4  H    0.006223  -0.002969   0.000022   0.056892  -0.000249
     5  H    0.003063   0.001783  -0.000779  -0.000249   0.058347
 Mulliken charges and spin densities:
               1          2
     1  C   -0.205215  -0.882526
     2  S    0.561423   0.395273
     3  O   -0.600351   0.365169
     4  H    0.112590   0.059919
     5  H    0.131554   0.062164
 Sum of Mulliken charges =   0.00000  -0.00000
 Mulliken charges and spin densities with hydrogens summed into heavy atoms:
               1          2
     1  C    0.038929  -0.760442
     2  S    0.561423   0.395273
     3  O   -0.600351   0.365169
 Electronic spatial extent (au):  <R**2>=            829.5738
 Charge=              0.0000 electrons
 Dipole moment (field-independent basis, Debye):
    X=             -2.6730    Y=              1.2407    Z=              2.1719  Tot=              3.6607
 Quadrupole moment (field-independent basis, Debye-Ang):
   XX=            -35.7041   YY=            -25.4652   ZZ=            -27.4862
   XY=              4.1813   XZ=              7.4967   YZ=             -1.5514
 Traceless Quadrupole moment (field-independent basis, Debye-Ang):
   XX=             -6.1522   YY=              4.0866   ZZ=              2.0656
   XY=              4.1813   XZ=              7.4967   YZ=             -1.5514
 Octapole moment (field-independent basis, Debye-Ang**2):
  XXX=           -205.6320  YYY=             13.8293  ZZZ=             33.7366  XYY=            -58.0047
  XXY=             18.0578  XXZ=             33.9702  XZZ=            -67.6064  YZZ=              7.9162
  YYZ=             11.0790  XYZ=             -7.5876
 Hexadecapole moment (field-independent basis, Debye-Ang**3):
 XXXX=          -1022.1525 YYYY=            -44.9035 ZZZZ=            -96.9774 XXXY=             85.5499
 XXXZ=            163.3359 YYYX=             42.5417 YYYZ=            -18.4106 ZZZX=            100.4048
 ZZZY=            -21.2591 XXYY=           -164.0551 XXZZ=           -203.9364 YYZZ=            -24.4491
 XXYZ=            -31.3372 YYXZ=             32.7354 ZZXY=             24.7194
 N-N= 1.027536228800D+02 E-N=-1.419302977296D+03  KE= 5.108852792937D+02
                          Isotropic Fermi Contact Couplings
        Atom                 a.u.       MegaHertz       Gauss      10(-4) cm-1
     1  C(13)             -0.22863    -128.51131     -45.85603     -42.86676
     2  S(33)              0.11701      20.09488       7.17035       6.70293
     3  O(17)              0.28266     -85.67440     -30.57076     -28.57791
     4  H(1)               0.01783      39.84190      14.21658      13.28983
     5  H(1)               0.01885      42.13656      15.03537      14.05524
 --------------------------------------------------------
       Center         ----  Spin Dipole Couplings  ----
                      3XX-RR        3YY-RR        3ZZ-RR
 --------------------------------------------------------
     1   Atom        0.395588     -0.495035      0.099447
     2   Atom       -0.596798      0.922361     -0.325563
     3   Atom       -0.772642      1.001967     -0.229325
     4   Atom        0.041097     -0.009329     -0.031768
     5   Atom        0.026778     -0.005975     -0.020802
 --------------------------------------------------------
                        XY            XZ            YZ
 --------------------------------------------------------
     1   Atom        0.001084      0.002041      0.504513
     2   Atom        0.018433      0.031821     -1.058050
     3   Atom        0.008860      0.015002     -1.043861
     4   Atom        0.018646      0.032631     -0.019047
     5   Atom       -0.024677     -0.043180     -0.012573
 --------------------------------------------------------


 ---------------------------------------------------------------------------------
              Anisotropic Spin Dipole Couplings in Principal Axis System
 ---------------------------------------------------------------------------------

       Atom             a.u.   MegaHertz   Gauss  10(-4) cm-1        Axes

              Baa    -0.7834  -105.119   -37.509   -35.064  0.0001  0.8682 -0.4962
     1 C(13)  Bbb     0.3871    51.950    18.537    17.329 -0.2637  0.4786  0.8375
              Bcc     0.3962    53.169    18.972    17.735  0.9646  0.1308  0.2290
 
              Baa    -0.9339   -38.291   -13.663   -12.772 -0.1084  0.4931  0.8632
     2 S(33)  Bbb    -0.5928   -24.304    -8.672    -8.107  0.9941  0.0537  0.0942
              Bcc     1.5267    62.595    22.335    20.879  0.0001  0.8683 -0.4960
 
              Baa    -0.8308    60.115    21.451    20.052 -0.2870  0.4751  0.8318
     3 O(17)  Bbb    -0.7674    55.530    19.815    18.523  0.9579  0.1423  0.2493
              Bcc     1.5982  -115.645   -41.265   -38.575  0.0001  0.8683 -0.4960
 
              Baa    -0.0570   -30.437   -10.861   -10.153 -0.3576  0.4634  0.8108
     4 H(1)   Bbb     0.0016     0.831     0.297     0.277  0.0000  0.8682 -0.4962
              Bcc     0.0555    29.606    10.564     9.876  0.9339  0.1774  0.3105
 
              Baa    -0.0574   -30.614   -10.924   -10.212  0.5088  0.4271  0.7475
     5 H(1)   Bbb     0.0012     0.644     0.230     0.215  0.0001  0.8682 -0.4961
              Bcc     0.0562    29.969    10.694     9.997  0.8609 -0.2525 -0.4417
 

 ---------------------------------------------------------------------------------

 No NMR shielding tensors so no spin-rotation constants.
 Leave Link  601 at Tue Jan  3 09:07:29 2023, MaxMem=   536870912 cpu:               0.4 elap:               0.2
 (Enter /opt/software/gaussian/g16.c01/l9999.exe)

 Test job not archived.
 1\1\GINC-GRA607\Stability\UHF\Gen\C1H2O1S1\BHAVUK\03-Jan-2023\0\\#p uh
 f/gen stable=opt scf=(maxcycle=900,verytightlineq,xqc) integral=grid=u
 ltrafine symmetry=None density=current iop(99/18=-1) output=wfn\\0005_
 q000_m01_k00_opt_uwb97xd_def2svpd/0005_q000_m01_k00_force_uhf_def2svp 
 stable-force\\0,1\C,0,0.9770245042,-0.0197961728,-0.1008273286\S,0,2.5
 880021429,-0.0345660623,-0.126439068\O,0,3.1712397907,-0.7143116203,-1
 .3164938758\H,0,0.5180717789,0.4715880124,0.7588975415\H,0,0.370801788
 1,-0.4702041579,-0.8890472689\\Version=ES64L-G16RevC.01\HF=-511.11798\
 S2=0.509803\S2-1=0.\S2A=0.043684\RMSD=3.049e-09\Dipole=-1.051633,0.488
 1161,0.8544758\Quadrupole=-4.5740459,3.0383008,1.5357451,3.1087192,5.5
 736034,-1.1534343\PG=Unknown\\@

 Writing a WFN file to "0005_q000_m01_k00_force_uhf_def2svp.wfn"


 OLD AGE AND TREACHERY WILL ALWAYS PREVAIL OVER YOUTH AND SKILL.
 Job cpu time:       0 days  0 hours  0 minutes  5.1 seconds.
 Elapsed time:       0 days  0 hours  0 minutes  2.6 seconds.
 File lengths (MBytes):  RWF=     51 Int=      0 D2E=      0 Chk=      2 Scr=      1
 Normal termination of Gaussian 16 at Tue Jan  3 09:07:29 2023.
 Initial command:
 /opt/software/gaussian/g16.c01/l1.exe "/localscratch/bhavuk.2151418.0/Gau-19750.inp" -scrdir="/localscratch/bhavuk.2151418.0/"
 Entering Link 1 = /opt/software/gaussian/g16.c01/l1.exe PID=     19809.
  
 Copyright (c) 1988-2019, Gaussian, Inc.  All Rights Reserved.
  
 This is part of the Gaussian(R) 16 program.  It is based on
 the Gaussian(R) 09 system (copyright 2009, Gaussian, Inc.),
 the Gaussian(R) 03 system (copyright 2003, Gaussian, Inc.),
 the Gaussian(R) 98 system (copyright 1998, Gaussian, Inc.),
 the Gaussian(R) 94 system (copyright 1995, Gaussian, Inc.),
 the Gaussian 92(TM) system (copyright 1992, Gaussian, Inc.),
 the Gaussian 90(TM) system (copyright 1990, Gaussian, Inc.),
 the Gaussian 88(TM) system (copyright 1988, Gaussian, Inc.),
 the Gaussian 86(TM) system (copyright 1986, Carnegie Mellon
 University), and the Gaussian 82(TM) system (copyright 1983,
 Carnegie Mellon University). Gaussian is a federally registered
 trademark of Gaussian, Inc.
  
 This software contains proprietary and confidential information,
 including trade secrets, belonging to Gaussian, Inc.
  
 This software is provided under written license and may be
 used, copied, transmitted, or stored only in accord with that
 written license.
  
 The following legend is applicable only to US Government
 contracts under FAR:
  
                    RESTRICTED RIGHTS LEGEND
  
 Use, reproduction and disclosure by the US Government is
 subject to restrictions as set forth in subparagraphs (a)
 and (c) of the Commercial Computer Software - Restricted
 Rights clause in FAR 52.227-19.
  
 Gaussian, Inc.
 340 Quinnipiac St., Bldg. 40, Wallingford CT 06492
  
  
 ---------------------------------------------------------------
 Warning -- This program may not be used in any manner that
 competes with the business of Gaussian, Inc. or will provide
 assistance to any competitor of Gaussian, Inc.  The licensee
 of this program is prohibited from giving any competitor of
 Gaussian, Inc. access to this program.  By using this program,
 the user acknowledges that Gaussian, Inc. is engaged in the
 business of creating and licensing software in the field of
 computational chemistry and represents and warrants to the
 licensee that it is not a competitor of Gaussian, Inc. and that
 it will not use this program in any manner prohibited above.
 ---------------------------------------------------------------
  

 Cite this work as:
 Gaussian 16, Revision C.01,
 M. J. Frisch, G. W. Trucks, H. B. Schlegel, G. E. Scuseria, 
 M. A. Robb, J. R. Cheeseman, G. Scalmani, V. Barone, 
 G. A. Petersson, H. Nakatsuji, X. Li, M. Caricato, A. V. Marenich, 
 J. Bloino, B. G. Janesko, R. Gomperts, B. Mennucci, H. P. Hratchian, 
 J. V. Ortiz, A. F. Izmaylov, J. L. Sonnenberg, D. Williams-Young, 
 F. Ding, F. Lipparini, F. Egidi, J. Goings, B. Peng, A. Petrone, 
 T. Henderson, D. Ranasinghe, V. G. Zakrzewski, J. Gao, N. Rega, 
 G. Zheng, W. Liang, M. Hada, M. Ehara, K. Toyota, R. Fukuda, 
 J. Hasegawa, M. Ishida, T. Nakajima, Y. Honda, O. Kitao, H. Nakai, 
 T. Vreven, K. Throssell, J. A. Montgomery, Jr., J. E. Peralta, 
 F. Ogliaro, M. J. Bearpark, J. J. Heyd, E. N. Brothers, K. N. Kudin, 
 V. N. Staroverov, T. A. Keith, R. Kobayashi, J. Normand, 
 K. Raghavachari, A. P. Rendell, J. C. Burant, S. S. Iyengar, 
 J. Tomasi, M. Cossi, J. M. Millam, M. Klene, C. Adamo, R. Cammi, 
 J. W. Ochterski, R. L. Martin, K. Morokuma, O. Farkas, 
 J. B. Foresman, and D. J. Fox, Gaussian, Inc., Wallingford CT, 2019.
 
 ******************************************
 Gaussian 16:  ES64L-G16RevC.01  3-Jul-2019
                 3-Jan-2023 
 ******************************************
 %chk=0005_q000_m01_k00_force_uhf_def2svp.chk
 %nprocshared=2
 Will use up to    2 processors via shared memory.
 %mem=4GB
 ----------------------------------------------------------------------
 #p uhf/chkbasis force guess=read geom=check scf=(maxcycle=900,verytigh
 tlineq,xqc) integral=grid=ultrafine symmetry=None density=current pop=
 (cm5,hlygat,mbs,npa) output=wfx
 ----------------------------------------------------------------------
 1/10=7,29=2,30=1,38=1/1,3;
 2/12=2,15=3,40=1/2;
 3/5=7,6=2,11=2,14=-4,25=1,30=1,67=1,71=1,75=-5,116=2/1,2,3;
 4/5=1/1;
 5/5=2,7=900,8=3,13=1,17=3,38=6/2,8;
 6/7=2,8=2,9=2,10=2,15=8,20=15,22=-1,27=100,28=1,40=-1,79=1/1,2,7;
 7/29=1,30=1/1,2,3,16;
 1/10=7,30=1/3;
 99/6=200/99;
 Leave Link    1 at Tue Jan  3 09:07:29 2023, MaxMem=   536870912 cpu:               0.2 elap:               0.1
 (Enter /opt/software/gaussian/g16.c01/l101.exe)
 ----------------------------------------------------------------------
 0005_q000_m01_k00_opt_uwb97xd_def2svpd/0005_q000_m01_k00_force_uhf_def
 2svp stable-force
 ----------------------------------------------------------------------
 Structure from the checkpoint file:  "0005_q000_m01_k00_force_uhf_def2svp.chk"
 Charge =  0 Multiplicity = 1
 Z-Matrix found in chk file.
 C,0,0.9770245042,-0.0197961728,-0.1008273286
 S,0,2.5880021429,-0.0345660623,-0.126439068
 O,0,3.1712397907,-0.7143116203,-1.3164938758
 H,0,0.5180717789,0.4715880124,0.7588975415
 H,0,0.3708017881,-0.4702041579,-0.8890472689
 Recover connectivity data from disk.
 ITRead=  0  0  0  0  0
 MicOpt= -1 -1 -1 -1 -1
 NAtoms=      5 NQM=        5 NQMF=       0 NMMI=      0 NMMIF=      0
                NMic=       0 NMicF=      0.
                    Isotopes and Nuclear Properties:
 (Nuclear quadrupole moments (NQMom) in fm**2, nuclear magnetic moments (NMagM)
  in nuclear magnetons)

  Atom         1           2           3           4           5
 IAtWgt=          12          32          16           1           1
 AtmWgt=  12.0000000  31.9720718  15.9949146   1.0078250   1.0078250
 NucSpn=           0           0           0           1           1
 AtZEff=   3.6000000  13.6000000   5.6000000   1.0000000   1.0000000
 NQMom=    0.0000000   0.0000000   0.0000000   0.0000000   0.0000000
 NMagM=    0.0000000   0.0000000   0.0000000   2.7928460   2.7928460
 AtZNuc=   6.0000000  16.0000000   8.0000000   1.0000000   1.0000000
 Leave Link  101 at Tue Jan  3 09:07:29 2023, MaxMem=   536870912 cpu:               0.4 elap:               0.2
 (Enter /opt/software/gaussian/g16.c01/l103.exe)

 GradGradGradGradGradGradGradGradGradGradGradGradGradGradGradGradGradGrad
 Berny optimization.
 Initialization pass.
 Trust Radius=3.00D-01 FncErr=1.00D-07 GrdErr=1.00D-07 EigMax=2.50D+02 EigMin=1.00D-04
 Number of steps in this run=      2 maximum allowed number of steps=      2.
 GradGradGradGradGradGradGradGradGradGradGradGradGradGradGradGradGradGrad

 Leave Link  103 at Tue Jan  3 09:07:30 2023, MaxMem=   536870912 cpu:               0.1 elap:               0.0
 (Enter /opt/software/gaussian/g16.c01/l202.exe)
                          Input orientation:                          
 ---------------------------------------------------------------------
 Center     Atomic      Atomic             Coordinates (Angstroms)
 Number     Number       Type             X           Y           Z
 ---------------------------------------------------------------------
      1          6           0        0.977025   -0.019796   -0.100827
      2         16           0        2.588002   -0.034566   -0.126439
      3          8           0        3.171240   -0.714312   -1.316494
      4          1           0        0.518072    0.471588    0.758898
      5          1           0        0.370802   -0.470204   -0.889047
 ---------------------------------------------------------------------
                    Distance matrix (angstroms):
                    1          2          3          4          5
     1  C    0.000000
     2  S    1.611249   0.000000
     3  O    2.602840   1.489446   0.000000
     4  H    1.091432   2.307515   3.571121   0.000000
     5  H    1.091634   2.384812   2.843370   1.903781   0.000000
 Symmetry turned off by external request.
 Stoichiometry    CH2OS
 Rotational constants (GHZ):          39.0370487           9.3459813           7.5406507
 Leave Link  202 at Tue Jan  3 09:07:30 2023, MaxMem=   536870912 cpu:               0.0 elap:               0.0
 (Enter /opt/software/gaussian/g16.c01/l301.exe)
 Basis read from chk: "0005_q000_m01_k00_force_uhf_def2svp.chk" (5D, 7F)
 No pseudopotential information found on chk file.
    56 basis functions,   101 primitive gaussians,    59 cartesian basis functions
    16 alpha electrons       16 beta electrons
       nuclear repulsion energy       102.7536228800 Hartrees.
 IExCor=    0 DFT=F Ex=HF Corr=None ExCW=0 ScaHFX=  1.000000
 ScaDFX=  1.000000  1.000000  1.000000  1.000000 ScalE2=  1.000000  1.000000
 IRadAn=      5 IRanWt=     -1 IRanGd=            0 ICorTp=0 IEmpDi=  4
 NAtoms=    5 NActive=    5 NUniq=    5 SFac= 1.00D+00 NAtFMM=   60 NAOKFM=F Big=F
 Integral buffers will be    131072 words long.
 Raffenetti 2 integral format.
 Two-electron integral symmetry is turned off.
 No density basis found on file  20724.
 Leave Link  301 at Tue Jan  3 09:07:30 2023, MaxMem=   536870912 cpu:               0.1 elap:               0.1
 (Enter /opt/software/gaussian/g16.c01/l302.exe)
 NPDir=0 NMtPBC=     1 NCelOv=     1 NCel=       1 NClECP=     1 NCelD=      1
         NCelK=      1 NCelE2=     1 NClLst=     1 CellRange=     0.0.
 One-electron integrals computed using PRISM.
 NBasis=    56 RedAO= T EigKep=  8.61D-03  NBF=    56
 NBsUse=    56 1.00D-06 EigRej= -1.00D+00 NBFU=    56
 Leave Link  302 at Tue Jan  3 09:07:30 2023, MaxMem=   536870912 cpu:               0.2 elap:               0.1
 (Enter /opt/software/gaussian/g16.c01/l303.exe)
 DipDrv:  MaxL=1.
 Leave Link  303 at Tue Jan  3 09:07:30 2023, MaxMem=   536870912 cpu:               0.1 elap:               0.0
 (Enter /opt/software/gaussian/g16.c01/l401.exe)
 Initial guess from the checkpoint file:  "0005_q000_m01_k00_force_uhf_def2svp.chk"
 B after Tr=     0.000000    0.000000    0.000000
         Rot=    1.000000    0.000000    0.000000    0.000000 Ang=   0.00 deg.
 Guess basis will be translated and rotated to current coordinates.
 JPrj=2 DoOrth=T DoCkMO=T.
 Initial guess <Sx>= 0.0000 <Sy>= 0.0000 <Sz>= 0.0000 <S**2>= 0.5098 S= 0.3717
 Leave Link  401 at Tue Jan  3 09:07:30 2023, MaxMem=   536870912 cpu:               0.2 elap:               0.1
 (Enter /opt/software/gaussian/g16.c01/l502.exe)
 Keep R1 and R2 ints in memory in canonical form, NReq=3393544.
 FoFCou: FMM=F IPFlag=           0 FMFlag=           0 FMFlg1=           0
         NFxFlg=           0 DoJE=F BraDBF=F KetDBF=F FulRan=T
         wScrn=  0.000000 ICntrl=       600 IOpCl=  0 I1Cent=           0 NGrid=           0
         NMat0=    1 NMatS0=   1596 NMatT0=    0 NMatD0=    1 NMtDS0=    0 NMtDT0=    0
 Symmetry not used in FoFCou.
 Two-electron integral symmetry not used.
 UHF open shell SCF:
 Using DIIS extrapolation, IDIIS=  1040.
 NGot=   536870912 LenX=   534314063 LenY=   534310141
 Requested convergence on RMS density matrix=1.00D-08 within 128 cycles.
 Requested convergence on MAX density matrix=1.00D-06.
 Requested convergence on             energy=1.00D-06.
 No special actions if energy rises.

 Cycle   1  Pass 1  IDiag  1:
 E= -511.117980013555    
 DIIS: error= 8.17D-09 at cycle   1 NSaved=   1.
 NSaved= 1 IEnMin= 1 EnMin= -511.117980013555     IErMin= 1 ErrMin= 8.17D-09
 ErrMax= 8.17D-09  0.00D+00 EMaxC= 1.00D-01 BMatC= 2.38D-14 BMatP= 2.38D-14
 IDIUse=1 WtCom= 1.00D+00 WtEn= 0.00D+00
 Coeff-Com:  0.100D+01
 Coeff:      0.100D+01
 Gap=     0.497 Goal=   None    Shift=    0.000
 Gap=     0.465 Goal=   None    Shift=    0.000
 RMSDP=1.58D-09 MaxDP=2.41D-08              OVMax= 2.05D-08

 SCF Done:  E(UHF) =  -511.117980014     A.U. after    1 cycles
            NFock=  1  Conv=0.16D-08     -V/T= 2.0005
 <Sx>= 0.0000 <Sy>= 0.0000 <Sz>= 0.0000 <S**2>= 0.5098 S= 0.3717
 <L.S>=  0.00000000000    
 KE= 5.108852796974D+02 PE=-1.419302977702D+03 EE= 2.945460951115D+02
 Annihilation of the first spin contaminant:
 S**2 before annihilation     0.5098,   after     0.0437
 Leave Link  502 at Tue Jan  3 09:07:30 2023, MaxMem=   536870912 cpu:               0.3 elap:               0.2
 (Enter /opt/software/gaussian/g16.c01/l508.exe)
 QCSCF skips out because SCF is already converged.
 Leave Link  508 at Tue Jan  3 09:07:30 2023, MaxMem=   536870912 cpu:               0.0 elap:               0.0
 (Enter /opt/software/gaussian/g16.c01/l601.exe)
 Copying SCF densities to generalized density rwf, IOpCl= 1 IROHF=0.

 **********************************************************************

            Population analysis using the SCF Density.

 **********************************************************************

 Alpha  occ. eigenvalues --  -92.03746 -20.55852 -11.27534  -9.06633  -6.75767
 Alpha  occ. eigenvalues --   -6.75342  -6.75053  -1.37966  -1.05460  -0.80106
 Alpha  occ. eigenvalues --   -0.65849  -0.63599  -0.62035  -0.55430  -0.44316
 Alpha  occ. eigenvalues --   -0.40668
 Alpha virt. eigenvalues --    0.09004   0.19215   0.19875   0.26251   0.32675
 Alpha virt. eigenvalues --    0.48028   0.57691   0.66715   0.68563   0.73186
 Alpha virt. eigenvalues --    0.82132   0.85241   0.87153   0.87522   0.89109
 Alpha virt. eigenvalues --    0.94310   0.99854   1.08279   1.18898   1.27869
 Alpha virt. eigenvalues --    1.27962   1.36727   1.42347   1.46190   1.59825
 Alpha virt. eigenvalues --    1.78847   1.80990   1.92689   2.27576   2.30636
 Alpha virt. eigenvalues --    2.32745   2.50262   2.68901   2.97767   2.98284
 Alpha virt. eigenvalues --    3.07283   3.11999   3.18391   3.27469   3.68769
  Beta  occ. eigenvalues --  -92.03372 -20.53844 -11.29429  -9.06228  -6.75128
  Beta  occ. eigenvalues --   -6.74833  -6.74226  -1.33997  -1.06748  -0.80277
  Beta  occ. eigenvalues --   -0.66488  -0.63102  -0.54014  -0.53921  -0.42812
  Beta  occ. eigenvalues --   -0.38776
  Beta virt. eigenvalues --    0.07752   0.18458   0.20086   0.26677   0.32836
  Beta virt. eigenvalues --    0.48268   0.57372   0.64930   0.65257   0.68869
  Beta virt. eigenvalues --    0.83055   0.83399   0.86653   0.89223   0.89454
  Beta virt. eigenvalues --    0.98177   0.99952   1.10046   1.18975   1.28105
  Beta virt. eigenvalues --    1.34979   1.37809   1.38882   1.47082   1.60691
  Beta virt. eigenvalues --    1.78928   1.79083   1.91305   2.24062   2.28760
  Beta virt. eigenvalues --    2.29901   2.46581   2.67758   3.02525   3.02681
  Beta virt. eigenvalues --    3.07620   3.16585   3.17511   3.27518   3.70711
          Condensed to atoms (all electrons):
               1          2          3          4          5
     1  C    5.178030   0.298117  -0.045880   0.381160   0.393787
     2  S    0.298117  14.871757   0.298176  -0.017468  -0.012004
     3  O   -0.045880   0.298176   8.343139   0.002113   0.002803
     4  H    0.381160  -0.017468   0.002113   0.530888  -0.009282
     5  H    0.393787  -0.012004   0.002803  -0.009282   0.493142
          Atomic-Atomic Spin Densities.
               1          2          3          4          5
     1  C   -0.967900   0.067032   0.009056   0.006223   0.003063
     2  S    0.067032   0.475592  -0.146165  -0.002969   0.001783
     3  O    0.009056  -0.146165   0.503035   0.000022  -0.000779
     4  H    0.006223  -0.002969   0.000022   0.056892  -0.000249
     5  H    0.003063   0.001783  -0.000779  -0.000249   0.058347
 Mulliken charges and spin densities:
               1          2
     1  C   -0.205215  -0.882526
     2  S    0.561423   0.395273
     3  O   -0.600351   0.365169
     4  H    0.112590   0.059919
     5  H    0.131555   0.062164
 Sum of Mulliken charges =  -0.00000  -0.00000
[...]
    22    S    2  py     Cor( 2p)     0.99998      -6.74982
    23    S    2  py     Val( 3p)     0.71994      -0.31174
    24    S    2  py     Ryd( 4p)     0.00295       0.90718
    25    S    2  pz     Cor( 2p)     0.99996      -6.74444
    26    S    2  pz     Val( 3p)     0.56926      -0.20821
    27    S    2  pz     Ryd( 4p)     0.00412       0.93191
    28    S    2  dxy    Ryd( 3d)     0.00783       0.92682
    29    S    2  dxz    Ryd( 3d)     0.00655       1.04202
    30    S    2  dyz    Ryd( 3d)     0.00530       1.00757
    31    S    2  dx2y2  Ryd( 3d)     0.01258       1.10346
    32    S    2  dz2    Ryd( 3d)     0.00972       1.03413
 
    33    O    3  S      Cor( 1S)     0.99992     -20.36167
    34    O    3  S      Val( 2S)     0.91446      -1.25742
    35    O    3  S      Ryd( 3S)     0.00079       1.58057
    36    O    3  px     Val( 2p)     0.92675      -0.46973
    37    O    3  px     Ryd( 3p)     0.00117       1.31746
    38    O    3  py     Val( 2p)     0.92841      -0.50313
    39    O    3  py     Ryd( 3p)     0.00132       1.25990
    40    O    3  pz     Val( 2p)     0.83717      -0.45954
    41    O    3  pz     Ryd( 3p)     0.00070       1.26980
    42    O    3  dxy    Ryd( 3d)     0.00033       3.06306
    43    O    3  dxz    Ryd( 3d)     0.00072       3.20849
    44    O    3  dyz    Ryd( 3d)     0.00072       3.23935
    45    O    3  dx2y2  Ryd( 3d)     0.00032       3.02940
    46    O    3  dz2    Ryd( 3d)     0.00078       3.18969
 
    47    H    4  S      Val( 1S)     0.40720       0.09501
    48    H    4  S      Ryd( 2S)     0.00047       0.39012
    49    H    4  px     Ryd( 2p)     0.00020       2.11265
    50    H    4  py     Ryd( 2p)     0.00015       1.99816
    51    H    4  pz     Ryd( 2p)     0.00044       2.34527
 
    52    H    5  S      Val( 1S)     0.40496       0.11220
    53    H    5  S      Ryd( 2S)     0.00082       0.39267
    54    H    5  px     Ryd( 2p)     0.00024       2.21146
    55    H    5  py     Ryd( 2p)     0.00013       1.98795
    56    H    5  pz     Ryd( 2p)     0.00039       2.29064


 Summary of Natural Population Analysis:                  
                                                          
                                       Natural Population 
                Natural  -----------------------------------------------
    Atom  No    Charge         Core      Valence    Rydberg      Total
 -----------------------------------------------------------------------
      C    1    0.07533      0.99973     1.91580    0.00915     2.92467
      S    2    0.35324      4.99936     2.58262    0.06478     7.64676
      O    3   -0.61357      0.99992     3.60679    0.00686     4.61357
      H    4    0.09154      0.00000     0.40720    0.00126     0.40846
      H    5    0.09347      0.00000     0.40496    0.00158     0.40653
 =======================================================================
   * Total *    0.00000      6.99900     8.91737    0.08363    16.00000

                                 Natural Population      
 --------------------------------------------------------
   Core                       6.99900 ( 99.9858% of   7)
   Valence                    8.91737 ( 99.0819% of   9)
   Natural Minimal Basis     15.91637 ( 99.4773% of  16)
   Natural Rydberg Basis      0.08363 (  0.5227% of  16)
 --------------------------------------------------------

    Atom  No          Natural Electron Configuration
 ----------------------------------------------------------------------------
      C    1      [core]2S( 0.56)2p( 1.36)3p( 0.01)
      S    2      [core]3S( 0.77)3p( 1.81)4S( 0.01)3d( 0.04)4p( 0.01)
      O    3      [core]2S( 0.91)2p( 2.69)
      H    4            1S( 0.41)
      H    5            1S( 0.40)


 NBO analysis skipped by request.


 ***************************************************
 *******         Beta  spin orbitals         *******
 ***************************************************


 NATURAL POPULATIONS:  Natural atomic orbital occupancies 
                                                          
   NAO  Atom  No  lang   Type(AO)    Occupancy      Energy
 ----------------------------------------------------------
     1    C    1  S      Cor( 1S)     0.99971     -11.19189
     2    C    1  S      Val( 2S)     0.61366      -0.46907
     3    C    1  S      Ryd( 3S)     0.00085       0.63513
     4    C    1  px     Val( 2p)     0.57182      -0.19235
     5    C    1  px     Ryd( 3p)     0.00336       0.63081
     6    C    1  py     Val( 2p)     0.81214      -0.30566
     7    C    1  py     Ryd( 3p)     0.00358       0.70339
     8    C    1  pz     Val( 2p)     0.69148      -0.18622
     9    C    1  pz     Ryd( 3p)     0.00190       0.80779
    10    C    1  dxy    Ryd( 3d)     0.00048       2.25615
    11    C    1  dxz    Ryd( 3d)     0.00044       2.54284
    12    C    1  dyz    Ryd( 3d)     0.00016       2.40653
    13    C    1  dx2y2  Ryd( 3d)     0.00037       2.40226
    14    C    1  dz2    Ryd( 3d)     0.00032       2.34634
 
    15    S    2  S      Cor( 1S)     1.00000     -90.97890
    16    S    2  S      Cor( 2S)     0.99956      -9.87687
    17    S    2  S      Val( 3S)     0.75379      -0.76220
    18    S    2  S      Ryd( 4S)     0.01309       0.60217
    19    S    2  px     Cor( 2p)     0.99990      -6.74003
    20    S    2  px     Val( 3p)     0.49946      -0.14534
    21    S    2  px     Ryd( 4p)     0.00315       0.96867
    22    S    2  py     Cor( 2p)     0.99989      -6.73782
    23    S    2  py     Val( 3p)     0.46942      -0.17682
    24    S    2  py     Ryd( 4p)     0.00217       0.92637
    25    S    2  pz     Cor( 2p)     0.99993      -6.73985
    26    S    2  pz     Val( 3p)     0.50229      -0.16700
    27    S    2  pz     Ryd( 4p)     0.00395       0.93881
    28    S    2  dxy    Ryd( 3d)     0.00897       0.94344
    29    S    2  dxz    Ryd( 3d)     0.00754       1.04875
    30    S    2  dyz    Ryd( 3d)     0.00563       1.03972
    31    S    2  dx2y2  Ryd( 3d)     0.01229       1.12170
    32    S    2  dz2    Ryd( 3d)     0.01185       1.05154
 
    33    O    3  S      Cor( 1S)     0.99993     -20.34440
    34    O    3  S      Val( 2S)     0.90410      -1.17546
    35    O    3  S      Ryd( 3S)     0.00078       1.59368
    36    O    3  px     Val( 2p)     0.91785      -0.44211
    37    O    3  px     Ryd( 3p)     0.00121       1.32963
    38    O    3  py     Val( 2p)     0.68152      -0.27971
    39    O    3  py     Ryd( 3p)     0.00089       1.31888
    40    O    3  pz     Val( 2p)     0.75103      -0.36963
    41    O    3  pz     Ryd( 3p)     0.00042       1.29650
    42    O    3  dxy    Ryd( 3d)     0.00036       3.10105
    43    O    3  dxz    Ryd( 3d)     0.00073       3.22713
    44    O    3  dyz    Ryd( 3d)     0.00077       3.28427
    45    O    3  dx2y2  Ryd( 3d)     0.00039       3.06727
    46    O    3  dz2    Ryd( 3d)     0.00094       3.21956
 
    47    H    4  S      Val( 1S)     0.37319       0.12058
    48    H    4  S      Ryd( 2S)     0.00057       0.39115
    49    H    4  px     Ryd( 2p)     0.00015       2.11480
    50    H    4  py     Ryd( 2p)     0.00026       1.99354
    51    H    4  pz     Ryd( 2p)     0.00044       2.34366
 
    52    H    5  S      Val( 1S)     0.36954       0.13952
    53    H    5  S      Ryd( 2S)     0.00100       0.39364
    54    H    5  px     Ryd( 2p)     0.00020       2.21340
    55    H    5  py     Ryd( 2p)     0.00020       1.98399
    56    H    5  pz     Ryd( 2p)     0.00038       2.28983


 Summary of Natural Population Analysis:                  
                                                          
                                       Natural Population 
                Natural  -----------------------------------------------
    Atom  No    Charge         Core      Valence    Rydberg      Total
 -----------------------------------------------------------------------
      C    1   -0.70027      0.99971     2.68909    0.01147     3.70027
      S    2    0.70712      4.99929     2.22497    0.06863     7.29288
      O    3   -0.26092      0.99993     3.25450    0.00650     4.26092
      H    4    0.12539      0.00000     0.37319    0.00142     0.37461
      H    5    0.12869      0.00000     0.36954    0.00177     0.37131
 =======================================================================
   * Total *    0.00000      6.99893     8.91129    0.08978    16.00000

                                 Natural Population      
 --------------------------------------------------------
   Core                       6.99893 ( 99.9847% of   7)
   Valence                    8.91129 ( 99.0143% of   9)
   Natural Minimal Basis     15.91022 ( 99.4388% of  16)
   Natural Rydberg Basis      0.08978 (  0.5612% of  16)
 --------------------------------------------------------

    Atom  No          Natural Electron Configuration
 ----------------------------------------------------------------------------
      C    1      [core]2S( 0.61)2p( 2.08)3p( 0.01)
      S    2      [core]3S( 0.75)3p( 1.47)4S( 0.01)3d( 0.05)4p( 0.01)
      O    3      [core]2S( 0.90)2p( 2.35)
      H    4            1S( 0.37)
      H    5            1S( 0.37)


 NBO analysis skipped by request.
 Leave Link  607 at Tue Jan  3 09:07:33 2023, MaxMem=   536870912 cpu:               3.6 elap:               1.8
 (Enter /opt/software/gaussian/g16.c01/l701.exe)
 ... and contract with generalized density number  0.
 Compute integral first derivatives.
 Leave Link  701 at Tue Jan  3 09:07:34 2023, MaxMem=   536870912 cpu:               0.2 elap:               0.1
 (Enter /opt/software/gaussian/g16.c01/l702.exe)
 L702 exits ... SP integral derivatives will be done elsewhere.
 Leave Link  702 at Tue Jan  3 09:07:34 2023, MaxMem=   536870912 cpu:               0.1 elap:               0.0
 (Enter /opt/software/gaussian/g16.c01/l703.exe)
 Integral derivatives from FoFJK, PRISM(SPDF).
 Compute integral first derivatives, UseDBF=F ICtDFT=           0.
 Calling FoFJK, ICntrl=      2127 FMM=F ISym2X=0 I1Cent= 0 IOpClX= 1 NMat=1 NMatS=1 NMatT=0.
 FoFJK:  IHMeth= 1 ICntrl=    2127 DoSepK=F KAlg= 0 I1Cent=           0 FoldK=F
 IRaf=         0 NMat=       1 IRICut=       1 DoRegI=T DoRafI=F ISym2E= 0 IDoP0=0 IntGTp=1.
 FoFCou: FMM=F IPFlag=           0 FMFlag=      100000 FMFlg1=         800
         NFxFlg=           0 DoJE=F BraDBF=F KetDBF=F FulRan=T
         wScrn=  0.000000 ICntrl=      2127 IOpCl=  1 I1Cent=           0 NGrid=           0
         NMat0=    1 NMatS0=      1 NMatT0=    0 NMatD0=    1 NMtDS0=    0 NMtDT0=    0
 Symmetry not used in FoFCou.
 Leave Link  703 at Tue Jan  3 09:07:34 2023, MaxMem=   536870912 cpu:               0.5 elap:               0.3
 (Enter /opt/software/gaussian/g16.c01/l716.exe)
 Dipole        =-1.05163301D+00 4.88115997D-01 8.54475660D-01
 -------------------------------------------------------------------
 Center     Atomic                   Forces (Hartrees/Bohr)
 Number     Number              X              Y              Z
 -------------------------------------------------------------------
      1        6          -0.032356647   -0.002123283   -0.003720944
      2       16           0.042315695   -0.007653950   -0.013414296
      3        8          -0.015114616    0.010123218    0.017736640
      4        1           0.002161173   -0.003438017   -0.006003458
      5        1           0.002994395    0.003092033    0.005402059
 -------------------------------------------------------------------
 Cartesian Forces:  Max     0.042315695 RMS     0.016000441
 Z-matrix is all fixed cartesians, so copy forces.
 Force constants in Cartesian coordinates: 
                1             2             3             4             5 
      1  0.829676D+00
      2  0.511240D-02  0.243810D+00
      3  0.905768D-02  0.234956D+00  0.520669D+00
      4 -0.491409D+00 -0.959762D-02 -0.168745D-01  0.641682D+00
      5  0.287596D-02 -0.491361D-01 -0.278604D-01 -0.128355D+00  0.207963D+00
      6  0.496707D-02 -0.278624D-01 -0.819862D-01 -0.224638D+00  0.320470D+00
      7  0.492524D-03  0.133103D-01  0.233039D-01 -0.150309D+00  0.124519D+00
      8  0.104201D-03  0.602149D-02  0.308174D-02  0.137725D+00 -0.180658D+00
      9  0.181864D-03  0.308386D-02  0.966084D-02  0.241117D+00 -0.294338D+00
     10 -0.151987D+00  0.492920D-01  0.862296D-01  0.424157D-03  0.114682D-01
     11  0.447359D-01 -0.101753D+00 -0.113561D+00  0.975664D-04  0.365001D-02
     12  0.782568D-01 -0.113560D+00 -0.235538D+00  0.170666D-03  0.403592D-02
     13 -0.186773D+00 -0.581171D-01 -0.101717D+00 -0.388712D-03 -0.105080D-01
     14 -0.528284D-01 -0.989424D-01 -0.966159D-01  0.130067D-03  0.181809D-01
     15 -0.924634D-01 -0.966168D-01 -0.212806D+00  0.224637D-03 -0.230723D-02
                6             7             8             9            10 
      6  0.585965D+00
      7  0.217995D+00  0.149816D+00
      8 -0.294336D+00 -0.137829D+00  0.174946D+00
      9 -0.527847D+00 -0.241299D+00  0.291077D+00  0.518287D+00
     10  0.200660D-01  0.000000D+00  0.000000D+00  0.000000D+00  0.123189D+00
     11  0.403202D-02  0.000000D+00  0.453529D-02 -0.259031D-02 -0.513576D-01
     12  0.840740D-02  0.000000D+00 -0.259199D-02  0.148040D-02 -0.898457D-01
     13 -0.183902D-01  0.000000D+00  0.000000D+00  0.000000D+00  0.283742D-01
     14 -0.230345D-02  0.000000D+00 -0.484560D-02  0.276754D-02 -0.940299D-02
     15  0.154602D-01  0.000000D+00  0.276920D-02 -0.158162D-02 -0.164496D-01
               11            12            13            14            15 
     11  0.877574D-01
     12  0.120457D+00  0.229666D+00
     13  0.652373D-02  0.114185D-01  0.158787D+00
     14  0.581069D-02 -0.834082D-02  0.621018D-01  0.797964D-01
     15 -0.833779D-02 -0.401584D-02  0.108688D+00  0.104493D+00  0.202943D+00
 Leave Link  716 at Tue Jan  3 09:07:35 2023, MaxMem=   536870912 cpu:               0.1 elap:               0.0
 (Enter /opt/software/gaussian/g16.c01/l103.exe)

 GradGradGradGradGradGradGradGradGradGradGradGradGradGradGradGradGradGrad
 Berny optimization.
 Search for a local minimum.
 Step number   1 out of a maximum of    2
 All quantities printed in internal units (Hartrees-Bohrs-Radians)
 Second derivative matrix not updated -- first step.
 The second derivative matrix:
                          X1        Y1        Z1        X2        Y2
           X1           0.82968
           Y1           0.00511   0.24381
           Z1           0.00906   0.23496   0.52067
           X2          -0.49141  -0.00960  -0.01687   0.64168
           Y2           0.00288  -0.04914  -0.02786  -0.12836   0.20796
           Z2           0.00497  -0.02786  -0.08199  -0.22464   0.32047
           X3           0.00049   0.01331   0.02330  -0.15031   0.12452
           Y3           0.00010   0.00602   0.00308   0.13773  -0.18066
           Z3           0.00018   0.00308   0.00966   0.24112  -0.29434
           X4          -0.15199   0.04929   0.08623   0.00042   0.01147
           Y4           0.04474  -0.10175  -0.11356   0.00010   0.00365
           Z4           0.07826  -0.11356  -0.23554   0.00017   0.00404
           X5          -0.18677  -0.05812  -0.10172  -0.00039  -0.01051
           Y5          -0.05283  -0.09894  -0.09662   0.00013   0.01818
           Z5          -0.09246  -0.09662  -0.21281   0.00022  -0.00231
                          Z2        X3        Y3        Z3        X4
           Z2           0.58597
           X3           0.21800   0.14982
           Y3          -0.29434  -0.13783   0.17495
           Z3          -0.52785  -0.24130   0.29108   0.51829
           X4           0.02007   0.00000   0.00000  -0.00000   0.12319
           Y4           0.00403   0.00000   0.00454  -0.00259  -0.05136
           Z4           0.00841  -0.00000  -0.00259   0.00148  -0.08985
           X5          -0.01839  -0.00000  -0.00000   0.00000   0.02837
           Y5          -0.00230  -0.00000  -0.00485   0.00277  -0.00940
           Z5           0.01546   0.00000   0.00277  -0.00158  -0.01645
                          Y4        Z4        X5        Y5        Z5
           Y4           0.08776
           Z4           0.12046   0.22967
           X5           0.00652   0.01142   0.15879
           Y5           0.00581  -0.00834   0.06210   0.07980
           Z5          -0.00834  -0.00402   0.10869   0.10449   0.20294
 ITU=  0
     Eigenvalues ---    0.02243   0.03701   0.09811   0.12281   0.16471
     Eigenvalues ---    0.34496   0.86201   1.16715   1.68793
 Angle between quadratic step and forces=  63.39 degrees.
 Linear search not attempted -- first point.
 B after Tr=     0.007523    0.013250    0.023181
         Rot=    0.999997    0.000044   -0.002028    0.001141 Ang=   0.27 deg.
 Variable       Old X    -DE/DX   Delta X   Delta X   Delta X     New X
                                 (Linear)    (Quad)   (Total)
    X1        1.84631  -0.03236   0.00000   0.00079   0.00733   1.85364
    Y1       -0.03741  -0.00212   0.00000  -0.01073  -0.00171  -0.03912
    Z1       -0.19054  -0.00372   0.00000  -0.01879  -0.00310  -0.19364
    X2        4.89062   0.04232   0.00000   0.05695   0.06344   4.95406
    Y2       -0.06532  -0.00765   0.00000   0.01505   0.01699  -0.04833
    Z2       -0.23894  -0.01341   0.00000   0.02606   0.02918  -0.20976
    X3        5.99277  -0.01511   0.00000  -0.08258  -0.08827   5.90450
    Y3       -1.34985   0.01012   0.00000   0.00193   0.00149  -1.34837
    Z3       -2.48781   0.01774   0.00000   0.00370   0.00305  -2.48476
    X4        0.97901   0.00216   0.00000  -0.03039  -0.01530   0.96371
    Y4        0.89117  -0.00344   0.00000  -0.02958  -0.01839   0.87279
    Z4        1.43411  -0.00600   0.00000  -0.05099  -0.03175   1.40236
    X5        0.70071   0.00299   0.00000   0.03422   0.03280   0.73351
    Y5       -0.88856   0.00309   0.00000  -0.00981   0.00162  -0.88693
    Z5       -1.68006   0.00540   0.00000  -0.01768   0.00262  -1.67744
         Item               Value     Threshold  Converged?
 Maximum Force            0.042316     0.000450     NO 
 RMS     Force            0.016000     0.000300     NO 
 Maximum Displacement     0.088272     0.001800     NO 
 RMS     Displacement     0.032352     0.001200     NO 
 Predicted change in Energy=-1.831923D-03
 GradGradGradGradGradGradGradGradGradGradGradGradGradGradGradGradGradGrad

 Leave Link  103 at Tue Jan  3 09:07:35 2023, MaxMem=   536870912 cpu:               0.1 elap:               0.0
 (Enter /opt/software/gaussian/g16.c01/l9999.exe)
 Unable to Open any file for archive entry.
 1\1\GINC-GRA607\Force\UHF\Gen\C1H2O1S1\BHAVUK\03-Jan-2023\0\\#p uhf/ch
 kbasis force guess=read geom=check scf=(maxcycle=900,verytightlineq,xq
 c) integral=grid=ultrafine symmetry=None density=current pop=(cm5,hlyg
 at,mbs,npa) output=wfx\\0005_q000_m01_k00_opt_uwb97xd_def2svpd/0005_q0
 00_m01_k00_force_uhf_def2svp stable-force\\0,1\C,0.9770245042,-0.01979
 61728,-0.1008273286\S,2.5880021429,-0.0345660623,-0.126439068\O,3.1712
 397907,-0.7143116203,-1.3164938758\H,0.5180717789,0.4715880124,0.75889
 75415\H,0.3708017881,-0.4702041579,-0.8890472689\\Version=ES64L-G16Rev
 C.01\HF=-511.11798\S2=0.509803\S2-1=0.\S2A=0.043684\RMSD=1.579e-09\RMS
 F=1.600e-02\Dipole=-1.051633,0.488116,0.8544757\Quadrupole=-4.574046,3
 .0383008,1.5357453,3.108719,5.573603,-1.1534341\PG=Unknown\\@
 The archive entry for this job was punched.

 Writing a WFNX file to "0005_q000_m01_k00_force_uhf_def2svp.wfx"


 THOSE WHO TRY TO PASS CHEMISTRY OFF AS A NEW SCIENCE
 SHOW HOW LITTLE KNOWLEDGE THEY HAVE OF THE CHARACTER
 AND LITERATURE OF THE ANCIENTS.
   -- NICOLAS LEFEVRE
 "COURS DE CHYMIE" J.-N.LELOUP, PARIS, 1751
 Job cpu time:       0 days  0 hours  0 minutes  7.9 seconds.
 Elapsed time:       0 days  0 hours  0 minutes  3.8 seconds.
 File lengths (MBytes):  RWF=      6 Int=      0 D2E=      0 Chk=      2 Scr=      1
 Normal termination of Gaussian 16 at Tue Jan  3 09:07:35 2023.
