 Entering Gaussian System, Link 0=g16
 Input=0005_q000_m01_k00_force_uwb97xd_def2qzvp.com
 Output=0005_q000_m01_k00_force_uwb97xd_def2qzvp.log
 Initial command:
 /opt/software/gaussian/g16.c01/l1.exe "/localscratch/bhavuk.2151422.0/Gau-19995.inp" -scrdir="/localscratch/bhavuk.2151422.0/"
 Entering Link 1 = /opt/software/gaussian/g16.c01/l1.exe PID=     19996.
  
 Copyright (c) 1988-2019, Gaussian, Inc.  All Rights Reserved.
  
 This is part of the Gaussian(R) 16 program.  It is based on
 the Gaussian(R) 09 system (copyright 2009, Gaussian, Inc.),
 the Gaussian(R) 03 system (copyright 2003, Gaussian, Inc.),
 the Gaussian(R) 98 system (copyright 1998, Gaussian, Inc.),
 the Gaussian(R) 94 system (copyright 1995, Gaussian, Inc.),
 the Gaussian 92(TM) system (copyright 1992, Gaussian, Inc.),
 the Gaussian 90(TM) system (copyright 1990, Gaussian, Inc.),
 the Gaussian 88(TM) system (copyright 1988, Gaussian, Inc.),
 the Gaussian 86(TM) system (copyright 1986, Carnegie Mellon
 University), and the Gaussian 82(TM) system (copyright 1983,
 Carnegie Mellon University). Gaussian is a federally registered
 trademark of Gaussian, Inc.
  
 This software contains proprietary and confidential information,
 including trade secrets, belonging to Gaussian, Inc.
  
 This software is provided under written license and may be
 used, copied, transmitted, or stored only in accord with that
 written license.
  
 The following legend is applicable only to US Government
 contracts under FAR:
  
                    RESTRICTED RIGHTS LEGEND
  
 Use, reproduction and disclosure by the US Government is
 subject to restrictions as set forth in subparagraphs (a)
 and (c) of the Commercial Computer Software - Restricted
 Rights clause in FAR 52.227-19.
  
 Gaussian, Inc.
 340 Quinnipiac St., Bldg. 40, Wallingford CT 06492
  
  
 ---------------------------------------------------------------
 Warning -- This program may not be used in any manner that
 competes with the business of Gaussian, Inc. or will provide
 assistance to any competitor of Gaussian, Inc.  The licensee
 of this program is prohibited from giving any competitor of
 Gaussian, Inc. access to this program.  By using this program,
 the user acknowledges that Gaussian, Inc. is engaged in the
 business of creating and licensing software in the field of
 computational chemistry and represents and warrants to the
 licensee that it is not a competitor of Gaussian, Inc. and that
 it will not use this program in any manner prohibited above.
 ---------------------------------------------------------------
  

 Cite this work as:
 Gaussian 16, Revision C.01,
 M. J. Frisch, G. W. Trucks, H. B. Schlegel, G. E. Scuseria, 
 M. A. Robb, J. R. Cheeseman, G. Scalmani, V. Barone, 
 G. A. Petersson, H. Nakatsuji, X. Li, M. Caricato, A. V. Marenich, 
 J. Bloino, B. G. Janesko, R. Gomperts, B. Mennucci, H. P. Hratchian, 
 J. V. Ortiz, A. F. Izmaylov, J. L. Sonnenberg, D. Williams-Young, 
 F. Ding, F. Lipparini, F. Egidi, J. Goings, B. Peng, A. Petrone, 
 T. Henderson, D. Ranasinghe, V. G. Zakrzewski, J. Gao, N. Rega, 
 G. Zheng, W. Liang, M. Hada, M. Ehara, K. Toyota, R. Fukuda, 
 J. Hasegawa, M. Ishida, T. Nakajima, Y. Honda, O. Kitao, H. Nakai, 
 T. Vreven, K. Throssell, J. A. Montgomery, Jr., J. E. Peralta, 
 F. Ogliaro, M. J. Bearpark, J. J. Heyd, E. N. Brothers, K. N. Kudin, 
 V. N. Staroverov, T. A. Keith, R. Kobayashi, J. Normand, 
 K. Raghavachari, A. P. Rendell, J. C. Burant, S. S. Iyengar, 
 J. Tomasi, M. Cossi, J. M. Millam, M. Klene, C. Adamo, R. Cammi, 
 J. W. Ochterski, R. L. Martin, K. Morokuma, O. Farkas, 
 J. B. Foresman, and D. J. Fox, Gaussian, Inc., Wallingford CT, 2019.
 
 ******************************************
 Gaussian 16:  ES64L-G16RevC.01  3-Jul-2019
                 3-Jan-2023 
 ******************************************
 %chk=0005_q000_m01_k00_force_uwb97xd_def2qzvp.chk
 %nprocshared=2
 Will use up to    2 processors via shared memory.
 %mem=4GB
 ----------------------------------------------------------------------
 #p uwb97xd/gen stable=opt scf=(maxcycle=900,verytightlineq,xqc) integr
 al=grid=ultrafine symmetry=None density=current iop(99/18=-1) output=w
 fn
 ----------------------------------------------------------------------
 1/38=1,172=1/1;
 2/12=2,15=3,17=6,18=5,40=1/2;
 3/5=7,11=2,25=1,30=1,74=-58,75=-5,116=2/1,2,3;
 4//1;
 5/5=2,7=900,8=3,13=1,17=3,38=5/2,8;
 6/7=2,8=2,9=2,10=2,22=-1,28=1/1;
 8/6=1,10=90,11=11/1;
 9/8=-3,42=1,46=1/14;
 5/5=2,7=900,8=3,17=43,38=5/8(-2);
 6/7=2,8=2,9=2,10=2,22=-1,28=1/1;
 99/5=1,6=100,9=1,18=-1/99;
 Leave Link    1 at Tue Jan  3 09:07:38 2023, MaxMem=   536870912 cpu:               0.2 elap:               0.2
 (Enter /opt/software/gaussian/g16.c01/l101.exe)
 ----------------------------------------------------------------------
 0005_q000_m01_k00_opt_uwb97xd_def2svpd/0005_q000_m01_k00_force_uwb97xd
 _def2qzvp stable-force
 ----------------------------------------------------------------------
 Symbolic Z-matrix:
 Charge =  0 Multiplicity = 1
 C                     0.97702  -0.0198   -0.10083 
 S                     2.588    -0.03457  -0.12644 
 O                     3.17124  -0.71431  -1.31649 
 H                     0.51807   0.47159   0.7589 
 H                     0.3708   -0.4702   -0.88905 
 
 ITRead=  0  0  0  0  0
 MicOpt= -1 -1 -1 -1 -1
 NAtoms=      5 NQM=        5 NQMF=       0 NMMI=      0 NMMIF=      0
                NMic=       0 NMicF=      0.
                    Isotopes and Nuclear Properties:
 (Nuclear quadrupole moments (NQMom) in fm**2, nuclear magnetic moments (NMagM)
  in nuclear magnetons)

  Atom         1           2           3           4           5
 IAtWgt=          12          32          16           1           1
 AtmWgt=  12.0000000  31.9720718  15.9949146   1.0078250   1.0078250
 NucSpn=           0           0           0           1           1
 AtZEff=  -0.0000000  -0.0000000  -0.0000000  -0.0000000  -0.0000000
 NQMom=    0.0000000   0.0000000   0.0000000   0.0000000   0.0000000
 NMagM=    0.0000000   0.0000000   0.0000000   2.7928460   2.7928460
 AtZNuc=   6.0000000  16.0000000   8.0000000   1.0000000   1.0000000
 Leave Link  101 at Tue Jan  3 09:07:38 2023, MaxMem=   536870912 cpu:               0.5 elap:               0.2
 (Enter /opt/software/gaussian/g16.c01/l202.exe)
                          Input orientation:                          
 ---------------------------------------------------------------------
 Center     Atomic      Atomic             Coordinates (Angstroms)
 Number     Number       Type             X           Y           Z
 ---------------------------------------------------------------------
      1          6           0        0.977025   -0.019796   -0.100827
      2         16           0        2.588002   -0.034566   -0.126439
      3          8           0        3.171240   -0.714312   -1.316494
      4          1           0        0.518072    0.471588    0.758898
      5          1           0        0.370802   -0.470204   -0.889047
 ---------------------------------------------------------------------
                    Distance matrix (angstroms):
                    1          2          3          4          5
     1  C    0.000000
     2  S    1.611249   0.000000
     3  O    2.602840   1.489446   0.000000
     4  H    1.091432   2.307515   3.571121   0.000000
     5  H    1.091634   2.384812   2.843370   1.903781   0.000000
 Symmetry turned off by external request.
 Stoichiometry    CH2OS
 Rotational constants (GHZ):          39.0370487           9.3459813           7.5406507
 Leave Link  202 at Tue Jan  3 09:07:38 2023, MaxMem=   536870912 cpu:               0.0 elap:               0.0
 (Enter /opt/software/gaussian/g16.c01/l301.exe)
 General basis read from cards:  (5D, 7F)
 Centers:       4      5
 S 4 1.00
     Exponent=  1.9069169000D+02 Coefficients=  7.0815167000D-04
     Exponent=  2.8605532000D+01 Coefficients=  5.4678827000D-03
     Exponent=  6.5095943000D+00 Coefficients=  2.7966605000D-02
     Exponent=  1.8412455000D+00 Coefficients=  1.0764538000D-01
 S 1 1.00
     Exponent=  5.9853725000D-01 Coefficients=  1.0000000000D+00
 S 1 1.00
     Exponent=  2.1397624000D-01 Coefficients=  1.0000000000D+00
 S 1 1.00
     Exponent=  8.0316286000D-02 Coefficients=  1.0000000000D+00
 P 1 1.00
     Exponent=  2.2920000000D+00 Coefficients=  1.0000000000D+00
 P 1 1.00
     Exponent=  8.3800000000D-01 Coefficients=  1.0000000000D+00
 P 1 1.00
     Exponent=  2.9200000000D-01 Coefficients=  1.0000000000D+00
 D 1 1.00
     Exponent=  2.0620000000D+00 Coefficients=  1.0000000000D+00
 D 1 1.00
     Exponent=  6.6200000000D-01 Coefficients=  1.0000000000D+00
 F 1 1.00
     Exponent=  1.3970000000D+00 Coefficients=  1.0000000000D+00
 ****
 Centers:       1
 S 8 1.00
     Exponent=  6.7025071029D+04 Coefficients=  3.8736308501D-05
     Exponent=  1.0039986538D+04 Coefficients=  3.0107917575D-04
     Exponent=  2.2849316911D+03 Coefficients=  1.5787918095D-03
     Exponent=  6.4714122130D+02 Coefficients=  6.6087087195D-03
     Exponent=  2.1109472335D+02 Coefficients=  2.3367123250D-02
     Exponent=  7.6177643862D+01 Coefficients=  7.0420716898D-02
     Exponent=  2.9633839163D+01 Coefficients=  1.7360344953D-01
     Exponent=  1.2187785081D+01 Coefficients=  3.2292305648D-01
 S 2 1.00
     Exponent=  5.3026006299D+01 Coefficients=  7.4897404492D-02
     Exponent=  1.5258502776D+01 Coefficients=  7.6136220983D-01
 S 1 1.00
     Exponent=  5.2403957464D+00 Coefficients=  1.0000000000D+00
 S 1 1.00
     Exponent=  2.2905022379D+00 Coefficients=  1.0000000000D+00
 S 1 1.00
     Exponent=  6.9673283006D-01 Coefficients=  1.0000000000D+00
 S 1 1.00
     Exponent=  2.7599337363D-01 Coefficients=  1.0000000000D+00
 S 1 1.00
     Exponent=  1.0739884389D-01 Coefficients=  1.0000000000D+00
 P 5 1.00
     Exponent=  1.0512555082D+02 Coefficients=  8.4647553844D-04
     Exponent=  2.4884461066D+01 Coefficients=  6.6274038534D-03
     Exponent=  7.8637230826D+00 Coefficients=  3.0120390419D-02
     Exponent=  2.8407001835D+00 Coefficients=  9.9951435476D-02
     Exponent=  1.1227137335D+00 Coefficients=  2.3826299282D-01
 P 1 1.00
     Exponent=  4.6050725555D-01 Coefficients=  1.0000000000D+00
 P 1 1.00
     Exponent=  1.8937530913D-01 Coefficients=  1.0000000000D+00
 P 1 1.00
     Exponent=  7.5983791611D-02 Coefficients=  1.0000000000D+00
 D 1 1.00
     Exponent=  1.8480000000D+00 Coefficients=  1.0000000000D+00
 D 1 1.00
     Exponent=  6.4900000000D-01 Coefficients=  1.0000000000D+00
 D 1 1.00
     Exponent=  2.2800000000D-01 Coefficients=  1.0000000000D+00
 F 1 1.00
     Exponent=  1.4190000000D+00 Coefficients=  1.0000000000D+00
 F 1 1.00
     Exponent=  4.8500000000D-01 Coefficients=  1.0000000000D+00
 G 1 1.00
     Exponent=  1.0110000000D+00 Coefficients=  1.0000000000D+00
 ****
 Centers:       3
 S 8 1.00
     Exponent=  1.1650646908D+05 Coefficients=  4.0383857939D-05
     Exponent=  1.7504349724D+04 Coefficients=  3.1255139004D-04
     Exponent=  3.9934513230D+03 Coefficients=  1.6341473495D-03
     Exponent=  1.1330063186D+03 Coefficients=  6.8283224757D-03
     Exponent=  3.6999569594D+02 Coefficients=  2.4124410221D-02
     Exponent=  1.3362074349D+02 Coefficients=  7.2730206154D-02
     Exponent=  5.2035643649D+01 Coefficients=  1.7934429892D-01
     Exponent=  2.1461939313D+01 Coefficients=  3.3059588895D-01
 S 2 1.00
     Exponent=  8.9835051252D+01 Coefficients=  9.6468652996D-02
     Exponent=  2.6428010844D+01 Coefficients=  9.4117481120D-01
 S 1 1.00
     Exponent=  9.2822824649D+00 Coefficients=  1.0000000000D+00
 S 1 1.00
     Exponent=  4.0947728533D+00 Coefficients=  1.0000000000D+00
 S 1 1.00
     Exponent=  1.3255349078D+00 Coefficients=  1.0000000000D+00
 S 1 1.00
     Exponent=  5.1877230787D-01 Coefficients=  1.0000000000D+00
 S 1 1.00
     Exponent=  1.9772676454D-01 Coefficients=  1.0000000000D+00
 P 5 1.00
     Exponent=  1.9115255810D+02 Coefficients=  2.5115697705D-03
     Exponent=  4.5233356739D+01 Coefficients=  2.0039240864D-02
     Exponent=  1.4353465922D+01 Coefficients=  9.3609064762D-02
     Exponent=  5.2422371832D+00 Coefficients=  3.0618127124D-01
     Exponent=  2.0792418599D+00 Coefficients=  6.7810501439D-01
 P 1 1.00
     Exponent=  8.4282371424D-01 Coefficients=  1.0000000000D+00
 P 1 1.00
     Exponent=  3.3617694891D-01 Coefficients=  1.0000000000D+00
 P 1 1.00
     Exponent=  1.2863997974D-01 Coefficients=  1.0000000000D+00
 D 1 1.00
     Exponent=  3.7750000000D+00 Coefficients=  1.0000000000D+00
 D 1 1.00
     Exponent=  1.3000000000D+00 Coefficients=  1.0000000000D+00
 D 1 1.00
     Exponent=  4.4400000000D-01 Coefficients=  1.0000000000D+00
 F 1 1.00
     Exponent=  2.6660000000D+00 Coefficients=  1.0000000000D+00
 F 1 1.00
     Exponent=  8.5900000000D-01 Coefficients=  1.0000000000D+00
 G 1 1.00
     Exponent=  1.8460000000D+00 Coefficients=  1.0000000000D+00
 ****
 Centers:       2
 S 10 1.00
     Exponent=  1.2734109023D+06 Coefficients=  1.1767088246D-05
     Exponent=  1.9069783007D+05 Coefficients=  9.1478610166D-05
     Exponent=  4.3397885330D+04 Coefficients=  4.8090078640D-04
     Exponent=  1.2291809677D+04 Coefficients=  2.0257193592D-03
     Exponent=  4.0097420824D+03 Coefficients=  7.3190096406D-03
     Exponent=  1.4473531030D+03 Coefficients=  2.3300499900D-02
     Exponent=  5.6430102913D+02 Coefficients=  6.5386213610D-02
     Exponent=  2.3374506243D+02 Coefficients=  1.5614449910D-01
     Exponent=  1.0156402814D+02 Coefficients=  2.9318563787D-01
     Exponent=  4.5805907187D+01 Coefficients=  3.6287914289D-01
 S 3 1.00
     Exponent=  3.9427281503D+02 Coefficients=  1.8753305081D-02
     Exponent=  1.2172249591D+02 Coefficients=  1.6870726663D-01
     Exponent=  4.6754125963D+01 Coefficients=  6.3806830653D-01
 S 1 1.00
     Exponent=  2.0923008254D+01 Coefficients=  1.0000000000D+00
 S 1 1.00
     Exponent=  8.2685567800D+00 Coefficients=  1.0000000000D+00
 S 1 1.00
     Exponent=  3.8629345671D+00 Coefficients=  1.0000000000D+00
 S 1 1.00
     Exponent=  1.7794684781D+00 Coefficients=  1.0000000000D+00
 S 1 1.00
     Exponent=  6.1064260103D-01 Coefficients=  1.0000000000D+00
 S 1 1.00
     Exponent=  2.7412269445D-01 Coefficients=  1.0000000000D+00
 S 1 1.00
     Exponent=  1.1325939107D-01 Coefficients=  1.0000000000D+00
 P 8 1.00
     Exponent=  2.1898930459D+03 Coefficients=  2.3912552864D-04
     Exponent=  5.1894596592D+02 Coefficients=  2.0772032158D-03
     Exponent=  1.6819560151D+02 Coefficients=  1.1242420571D-02
     Exponent=  6.3745282788D+01 Coefficients=  4.4069933941D-02
     Exponent=  2.6597033077D+01 Coefficients=  1.2918778608D-01
     Exponent=  1.1774251449D+01 Coefficients=  2.6910820167D-01
     Exponent=  5.3534379024D+00 Coefficients=  3.7855928620D-01
     Exponent=  2.4701911802D+00 Coefficients=  2.9692134655D-01
 P 2 1.00
     Exponent=  8.2120288349D+01 Coefficients= -3.9420318847D-02
     Exponent=  4.9523532869D+00 Coefficients=  6.4048403090D-01
 P 1 1.00
     Exponent=  1.0828262029D+00 Coefficients=  1.0000000000D+00
 P 1 1.00
     Exponent=  4.9271277356D-01 Coefficients=  1.0000000000D+00
 P 1 1.00
     Exponent=  2.0483450942D-01 Coefficients=  1.0000000000D+00
 P 1 1.00
     Exponent=  8.0743615716D-02 Coefficients=  1.0000000000D+00
 D 1 1.00
     Exponent=  4.1590000000D+00 Coefficients=  1.0000000000D+00
 D 1 1.00
     Exponent=  1.0190000000D+00 Coefficients=  1.0000000000D+00
 D 1 1.00
     Exponent=  4.6400000000D-01 Coefficients=  1.0000000000D+00
 D 1 1.00
     Exponent=  1.9400000000D-01 Coefficients=  1.0000000000D+00
 F 1 1.00
     Exponent=  8.6900000000D-01 Coefficients=  1.0000000000D+00
 F 1 1.00
     Exponent=  3.3500000000D-01 Coefficients=  1.0000000000D+00
 G 1 1.00
     Exponent=  6.8300000000D-01 Coefficients=  1.0000000000D+00
 ****
 Ernie: Thresh=  0.10000D-02 Tol=  0.10000D-05 Strict=F.
   244 basis functions,   381 primitive gaussians,   300 cartesian basis functions
    16 alpha electrons       16 beta electrons
       nuclear repulsion energy       102.7536228800 Hartrees.
 IExCor= 4639 DFT=T Ex+Corr=wB97XD ExCW=0 ScaHFX=  1.000000
 ScaDFX=  1.000000  1.000000  1.000000  1.000000 ScalE2=  1.000000  1.000000
 IRadAn=      5 IRanWt=     -1 IRanGd=            0 ICorTp=0 IEmpDi=121
 HFx  wShort=  0.000000 wLong=  0.200000 cFull=  0.222036 cShort=  0.000000 cLong=  0.777964
 DFx  wShort=  0.000000 wLong=  0.200000 cFull=  0.000000 cShort=  0.000000 cLong=  1.000000
 NAtoms=    5 NActive=    5 NUniq=    5 SFac= 1.00D+00 NAtFMM=   60 NAOKFM=F Big=F
 Integral buffers will be    131072 words long.
 Raffenetti 2 integral format.
 Two-electron integral symmetry is turned off.
 R6Disp:  Grimme-D2 Dispersion energy=       -0.0005194017 Hartrees.
 Nuclear repulsion after empirical dispersion term =      102.7531034782 Hartrees.
 Leave Link  301 at Tue Jan  3 09:07:38 2023, MaxMem=   536870912 cpu:               0.2 elap:               0.1
 (Enter /opt/software/gaussian/g16.c01/l302.exe)
 NPDir=0 NMtPBC=     1 NCelOv=     1 NCel=       1 NClECP=     1 NCelD=      1
         NCelK=      1 NCelE2=     1 NClLst=     1 CellRange=     0.0.
 One-electron integrals computed using PRISM.
 NBasis=   244 RedAO= T EigKep=  1.40D-04  NBF=   244
 NBsUse=   244 1.00D-06 EigRej= -1.00D+00 NBFU=   244
 Precomputing XC quadrature grid using
 IXCGrd= 4 IRadAn=           5 IRanWt=          -1 IRanGd=           0 AccXCQ= 0.00D+00.
 Generated NRdTot=       0 NPtTot=           0 NUsed=           0 NTot=          32
 NSgBfM=   298   298   298   298   298 MxSgAt=     5 MxSgA2=     5.
 Leave Link  302 at Tue Jan  3 09:07:38 2023, MaxMem=   536870912 cpu:               0.5 elap:               0.3
 (Enter /opt/software/gaussian/g16.c01/l303.exe)
 DipDrv:  MaxL=1.
 Leave Link  303 at Tue Jan  3 09:07:39 2023, MaxMem=   536870912 cpu:               0.1 elap:               0.1
 (Enter /opt/software/gaussian/g16.c01/l401.exe)
 ExpMin= 7.60D-02 ExpMax= 1.27D+06 ExpMxC= 1.45D+03 IAcc=3 IRadAn=         5 AccDes= 0.00D+00
 Harris functional with IExCor= 4639 and IRadAn=       5 diagonalized for initial guess.
 HarFok:  IExCor= 4639 AccDes= 0.00D+00 IRadAn=         5 IDoV= 1 UseB2=F ITyADJ=14
 ICtDFT=  3500011 ScaDFX=  1.000000  1.000000  1.000000  1.000000
 FoFCou: FMM=F IPFlag=           0 FMFlag=      100000 FMFlg1=           0
         NFxFlg=           0 DoJE=T BraDBF=F KetDBF=T FulRan=T
         wScrn=  0.000000 ICntrl=       500 IOpCl=  0 I1Cent=   200000004 NGrid=           0
         NMat0=    1 NMatS0=      1 NMatT0=    0 NMatD0=    1 NMtDS0=    0 NMtDT0=    0
 Symmetry not used in FoFCou.
 Harris En= -501.401859800560    
 JPrj=0 DoOrth=F DoCkMO=F.
 Initial guess <Sx>= 0.0000 <Sy>= 0.0000 <Sz>= 0.0000 <S**2>=-0.0000 S=-0.0000
 Leave Link  401 at Tue Jan  3 09:07:40 2023, MaxMem=   536870912 cpu:               2.7 elap:               1.4
 (Enter /opt/software/gaussian/g16.c01/l502.exe)
 Two-electron integral symmetry not used.
 UHF open shell SCF:
 Using DIIS extrapolation, IDIIS=  1040.
 NGot=   536870912 LenX=   536687186 LenY=   536596745
 Requested convergence on RMS density matrix=1.00D-08 within 128 cycles.
 Requested convergence on MAX density matrix=1.00D-06.
 Requested convergence on             energy=1.00D-06.
 No special actions if energy rises.
 Fock matrices will be formed incrementally for  20 cycles.
 Integral accuracy reduced to 1.0D-05 until final iterations.

 Cycle   1  Pass 0  IDiag  1:
 FoFJK:  IHMeth= 1 ICntrl=       0 DoSepK=T KAlg= 0 I1Cent=           0 FoldK=F
 IRaf=         1 NMat=       1 IRICut=       1 DoRegI=T DoRafI=F ISym2E= 0 IDoP0=0 IntGTp=1.
 FoFCou: FMM=F IPFlag=           0 FMFlag=      100000 FMFlg1=           0
         NFxFlg=           0 DoJE=T BraDBF=F KetDBF=F FulRan=T
         wScrn=  0.000000 ICntrl=       500 IOpCl=  0 I1Cent=           0 NGrid=           0
         NMat0=    1 NMatS0=      1 NMatT0=    0 NMatD0=    1 NMtDS0=    0 NMtDT0=    0
 Symmetry not used in FoFCou.
 E= -512.492990731583    
 DIIS: error= 9.03D-02 at cycle   1 NSaved=   1.
 NSaved= 1 IEnMin= 1 EnMin= -512.492990731583     IErMin= 1 ErrMin= 9.03D-02
 ErrMax= 9.03D-02  0.00D+00 EMaxC= 1.00D-01 BMatC= 6.07D+00 BMatP= 6.07D+00
 IDIUse=3 WtCom= 9.66D-02 WtEn= 9.03D-01
 Coeff-Com:  0.100D+01
 Coeff-En:   0.100D+01
 Coeff:      0.100D+01
 Gap=     0.371 Goal=   None    Shift=    0.000
 Gap=     0.371 Goal=   None    Shift=    0.000
 GapD=    0.371 DampG=1.000 DampE=0.500 DampFc=0.5000 IDamp=-1.
 Damping current iteration by 5.00D-01
 RMSDP=2.85D-03 MaxDP=1.29D-01              OVMax= 3.19D-01

 Cycle   2  Pass 0  IDiag  1:
 RMSU=  1.43D-03    CP:  9.97D-01
 E= -512.598427551996     Delta-E=       -0.105436820413 Rises=F Damp=T
 DIIS: error= 3.88D-02 at cycle   2 NSaved=   2.
 NSaved= 2 IEnMin= 2 EnMin= -512.598427551996     IErMin= 2 ErrMin= 3.88D-02
 ErrMax= 3.88D-02  0.00D+00 EMaxC= 1.00D-01 BMatC= 8.91D-01 BMatP= 6.07D+00
 IDIUse=3 WtCom= 6.12D-01 WtEn= 3.88D-01
 Coeff-Com: -0.445D+00 0.144D+01
 Coeff-En:   0.000D+00 0.100D+01
 Coeff:     -0.272D+00 0.127D+01
 Gap=     0.307 Goal=   None    Shift=    0.000
 Gap=     0.307 Goal=   None    Shift=    0.000
 RMSDP=9.08D-04 MaxDP=2.99D-02 DE=-1.05D-01 OVMax= 2.26D-01

 Cycle   3  Pass 0  IDiag  1:
 RMSU=  8.27D-04    CP:  9.84D-01  1.25D+00
 E= -512.678420972602     Delta-E=       -0.079993420605 Rises=F Damp=F
 DIIS: error= 1.59D-02 at cycle   3 NSaved=   3.
 NSaved= 3 IEnMin= 3 EnMin= -512.678420972602     IErMin= 3 ErrMin= 1.59D-02
 ErrMax= 1.59D-02  0.00D+00 EMaxC= 1.00D-01 BMatC= 1.41D-01 BMatP= 8.91D-01
 IDIUse=3 WtCom= 8.41D-01 WtEn= 1.59D-01
 Coeff-Com: -0.214D+00 0.563D+00 0.650D+00
 Coeff-En:   0.000D+00 0.000D+00 0.100D+01
 Coeff:     -0.180D+00 0.474D+00 0.706D+00
 Gap=     0.370 Goal=   None    Shift=    0.000
 Gap=     0.370 Goal=   None    Shift=    0.000
 RMSDP=6.31D-04 MaxDP=2.35D-02 DE=-8.00D-02 OVMax= 1.39D-01

 Cycle   4  Pass 0  IDiag  1:
 RMSU=  3.59D-04    CP:  9.78D-01  1.54D+00  6.37D-01
 E= -512.703496609390     Delta-E=       -0.025075636789 Rises=F Damp=F
 DIIS: error= 6.95D-03 at cycle   4 NSaved=   4.
 NSaved= 4 IEnMin= 4 EnMin= -512.703496609390     IErMin= 4 ErrMin= 6.95D-03
 ErrMax= 6.95D-03  0.00D+00 EMaxC= 1.00D-01 BMatC= 4.65D-02 BMatP= 1.41D-01
 IDIUse=3 WtCom= 9.31D-01 WtEn= 6.95D-02
 Coeff-Com: -0.702D-01 0.174D+00 0.406D+00 0.490D+00
 Coeff-En:   0.000D+00 0.000D+00 0.224D+00 0.776D+00
 Coeff:     -0.653D-01 0.162D+00 0.393D+00 0.510D+00
 Gap=     0.330 Goal=   None    Shift=    0.000
 Gap=     0.330 Goal=   None    Shift=    0.000
 RMSDP=2.41D-04 MaxDP=7.96D-03 DE=-2.51D-02 OVMax= 4.71D-02

 Cycle   5  Pass 0  IDiag  1:
 RMSU=  1.14D-04    CP:  9.80D-01  1.48D+00  7.78D-01  5.74D-01
 E= -512.712804933790     Delta-E=       -0.009308324400 Rises=F Damp=F
 DIIS: error= 2.06D-03 at cycle   5 NSaved=   5.
 NSaved= 5 IEnMin= 5 EnMin= -512.712804933790     IErMin= 5 ErrMin= 2.06D-03
 ErrMax= 2.06D-03  0.00D+00 EMaxC= 1.00D-01 BMatC= 3.59D-03 BMatP= 4.65D-02
 IDIUse=3 WtCom= 9.79D-01 WtEn= 2.06D-02
 Coeff-Com: -0.107D-01 0.229D-01 0.157D+00 0.292D+00 0.539D+00
 Coeff-En:   0.000D+00 0.000D+00 0.000D+00 0.000D+00 0.100D+01
 Coeff:     -0.105D-01 0.224D-01 0.154D+00 0.286D+00 0.549D+00
 Gap=     0.334 Goal=   None    Shift=    0.000
 Gap=     0.334 Goal=   None    Shift=    0.000
 RMSDP=6.65D-05 MaxDP=2.01D-03 DE=-9.31D-03 OVMax= 6.84D-03

 Cycle   6  Pass 0  IDiag  1:
 RMSU=  3.59D-05    CP:  9.79D-01  1.49D+00  7.99D-01  6.80D-01  7.19D-01
 E= -512.713424790237     Delta-E=       -0.000619856447 Rises=F Damp=F
 DIIS: error= 3.32D-04 at cycle   6 NSaved=   6.
 NSaved= 6 IEnMin= 6 EnMin= -512.713424790237     IErMin= 6 ErrMin= 3.32D-04
 ErrMax= 3.32D-04  0.00D+00 EMaxC= 1.00D-01 BMatC= 7.57D-05 BMatP= 3.59D-03
 IDIUse=3 WtCom= 9.97D-01 WtEn= 3.32D-03
 Coeff-Com:  0.392D-02-0.918D-02-0.595D-02-0.518D-02 0.110D+00 0.907D+00
 Coeff-En:   0.000D+00 0.000D+00 0.000D+00 0.000D+00 0.000D+00 0.100D+01
 Coeff:      0.391D-02-0.915D-02-0.593D-02-0.517D-02 0.109D+00 0.907D+00
 Gap=     0.334 Goal=   None    Shift=    0.000
 Gap=     0.334 Goal=   None    Shift=    0.000
 RMSDP=2.00D-05 MaxDP=5.31D-04 DE=-6.20D-04 OVMax= 1.42D-03

 Cycle   7  Pass 0  IDiag  1:
 RMSU=  1.07D-05    CP:  9.79D-01  1.49D+00  8.08D-01  6.93D-01  8.35D-01
                    CP:  1.14D+00
 E= -512.713443059447     Delta-E=       -0.000018269209 Rises=F Damp=F
 DIIS: error= 1.00D-04 at cycle   7 NSaved=   7.
 NSaved= 7 IEnMin= 7 EnMin= -512.713443059447     IErMin= 7 ErrMin= 1.00D-04
 ErrMax= 1.00D-04  0.00D+00 EMaxC= 1.00D-01 BMatC= 4.88D-06 BMatP= 7.57D-05
 IDIUse=3 WtCom= 9.99D-01 WtEn= 1.00D-03
 Coeff-Com:  0.150D-02-0.333D-02-0.139D-01-0.308D-01-0.244D-01 0.173D+00
 Coeff-Com:  0.898D+00
 Coeff-En:   0.000D+00 0.000D+00 0.000D+00 0.000D+00 0.000D+00 0.000D+00
 Coeff-En:   0.100D+01
 Coeff:      0.150D-02-0.333D-02-0.139D-01-0.308D-01-0.244D-01 0.173D+00
 Coeff:      0.898D+00
 Gap=     0.334 Goal=   None    Shift=    0.000
 Gap=     0.334 Goal=   None    Shift=    0.000
 RMSDP=7.87D-06 MaxDP=2.65D-04 DE=-1.83D-05 OVMax= 6.39D-04

 Initial convergence to 1.0D-05 achieved.  Increase integral accuracy.
 Cycle   8  Pass 1  IDiag  1:
 E= -512.713472095657     Delta-E=       -0.000029036210 Rises=F Damp=F
 DIIS: error= 6.19D-05 at cycle   1 NSaved=   1.
 NSaved= 1 IEnMin= 1 EnMin= -512.713472095657     IErMin= 1 ErrMin= 6.19D-05
 ErrMax= 6.19D-05  0.00D+00 EMaxC= 1.00D-01 BMatC= 4.84D-06 BMatP= 4.84D-06
 IDIUse=1 WtCom= 1.00D+00 WtEn= 0.00D+00
 Coeff-Com:  0.100D+01
 Coeff:      0.100D+01
 Gap=     0.334 Goal=   None    Shift=    0.000
 Gap=     0.334 Goal=   None    Shift=    0.000
 RMSDP=7.87D-06 MaxDP=2.65D-04 DE=-2.90D-05 OVMax= 2.06D-04

 Cycle   9  Pass 1  IDiag  1:
 RMSU=  6.32D-06    CP:  1.00D+00
 E= -512.713472589041     Delta-E=       -0.000000493384 Rises=F Damp=F
 DIIS: error= 2.45D-05 at cycle   2 NSaved=   2.
 NSaved= 2 IEnMin= 2 EnMin= -512.713472589041     IErMin= 2 ErrMin= 2.45D-05
 ErrMax= 2.45D-05  0.00D+00 EMaxC= 1.00D-01 BMatC= 3.32D-07 BMatP= 4.84D-06
 IDIUse=1 WtCom= 1.00D+00 WtEn= 0.00D+00
 Coeff-Com:  0.614D-01 0.939D+00
 Coeff:      0.614D-01 0.939D+00
 Gap=     0.334 Goal=   None    Shift=    0.000
 Gap=     0.334 Goal=   None    Shift=    0.000
 RMSDP=1.44D-06 MaxDP=4.25D-05 DE=-4.93D-07 OVMax= 3.90D-04

 Cycle  10  Pass 1  IDiag  1:
 RMSU=  1.41D-06    CP:  1.00D+00  1.04D+00
 E= -512.713472577621     Delta-E=        0.000000011420 Rises=F Damp=F
 DIIS: error= 2.57D-05 at cycle   3 NSaved=   3.
 NSaved= 3 IEnMin= 2 EnMin= -512.713472589041     IErMin= 2 ErrMin= 2.45D-05
 ErrMax= 2.57D-05  0.00D+00 EMaxC= 1.00D-01 BMatC= 5.50D-07 BMatP= 3.32D-07
 IDIUse=1 WtCom= 1.00D+00 WtEn= 0.00D+00
 Coeff-Com: -0.328D-01 0.579D+00 0.454D+00
 Coeff:     -0.328D-01 0.579D+00 0.454D+00
 Gap=     0.334 Goal=   None    Shift=    0.000
 Gap=     0.334 Goal=   None    Shift=    0.000
 RMSDP=8.79D-07 MaxDP=4.07D-05 DE= 1.14D-08 OVMax= 1.32D-04

 Cycle  11  Pass 1  IDiag  1:
 RMSU=  5.86D-07    CP:  1.00D+00  1.09D+00  5.89D-01
 E= -512.713472696112     Delta-E=       -0.000000118492 Rises=F Damp=F
 DIIS: error= 5.89D-06 at cycle   4 NSaved=   4.
 NSaved= 4 IEnMin= 4 EnMin= -512.713472696112     IErMin= 4 ErrMin= 5.89D-06
 ErrMax= 5.89D-06  0.00D+00 EMaxC= 1.00D-01 BMatC= 1.87D-08 BMatP= 3.32D-07
 IDIUse=1 WtCom= 1.00D+00 WtEn= 0.00D+00
 Coeff-Com: -0.205D-01 0.245D+00 0.191D+00 0.584D+00
 Coeff:     -0.205D-01 0.245D+00 0.191D+00 0.584D+00
 Gap=     0.334 Goal=   None    Shift=    0.000
 Gap=     0.334 Goal=   None    Shift=    0.000
 RMSDP=1.97D-07 MaxDP=8.13D-06 DE=-1.18D-07 OVMax= 3.73D-05

 Cycle  12  Pass 1  IDiag  1:
 RMSU=  1.67D-07    CP:  1.00D+00  1.10D+00  6.31D-01  1.10D+00
 E= -512.713472700629     Delta-E=       -0.000000004517 Rises=F Damp=F
 DIIS: error= 2.67D-06 at cycle   5 NSaved=   5.
 NSaved= 5 IEnMin= 5 EnMin= -512.713472700629     IErMin= 5 ErrMin= 2.67D-06
 ErrMax= 2.67D-06  0.00D+00 EMaxC= 1.00D-01 BMatC= 5.72D-09 BMatP= 1.87D-08
 IDIUse=1 WtCom= 1.00D+00 WtEn= 0.00D+00
 Coeff-Com:  0.515D-02-0.104D+00-0.133D+00 0.243D+00 0.989D+00
 Coeff:      0.515D-02-0.104D+00-0.133D+00 0.243D+00 0.989D+00
 Gap=     0.334 Goal=   None    Shift=    0.000
 Gap=     0.334 Goal=   None    Shift=    0.000
 RMSDP=2.63D-07 MaxDP=1.28D-05 DE=-4.52D-09 OVMax= 3.54D-05

 Cycle  13  Pass 1  IDiag  1:
 RMSU=  6.85D-08    CP:  1.00D+00  1.11D+00  6.62D-01  1.49D+00  1.14D+00
 E= -512.713472703209     Delta-E=       -0.000000002580 Rises=F Damp=F
 DIIS: error= 9.51D-07 at cycle   6 NSaved=   6.
 NSaved= 6 IEnMin= 6 EnMin= -512.713472703209     IErMin= 6 ErrMin= 9.51D-07
 ErrMax= 9.51D-07  0.00D+00 EMaxC= 1.00D-01 BMatC= 5.23D-10 BMatP= 5.72D-09
 IDIUse=1 WtCom= 1.00D+00 WtEn= 0.00D+00
 Coeff-Com:  0.412D-02-0.626D-01-0.784D-01-0.256D-01 0.207D+00 0.955D+00
 Coeff:      0.412D-02-0.626D-01-0.784D-01-0.256D-01 0.207D+00 0.955D+00
 Gap=     0.334 Goal=   None    Shift=    0.000
 Gap=     0.334 Goal=   None    Shift=    0.000
 RMSDP=1.02D-07 MaxDP=5.48D-06 DE=-2.58D-09 OVMax= 1.37D-05

 Cycle  14  Pass 1  IDiag  1:
 RMSU=  2.38D-08    CP:  1.00D+00  1.12D+00  6.69D-01  1.63D+00  1.33D+00
                    CP:  1.36D+00
 E= -512.713472703507     Delta-E=       -0.000000000298 Rises=F Damp=F
 DIIS: error= 1.32D-07 at cycle   7 NSaved=   7.
 NSaved= 7 IEnMin= 7 EnMin= -512.713472703507     IErMin= 7 ErrMin= 1.32D-07
 ErrMax= 1.32D-07  0.00D+00 EMaxC= 1.00D-01 BMatC= 1.87D-11 BMatP= 5.23D-10
 IDIUse=1 WtCom= 1.00D+00 WtEn= 0.00D+00
 Coeff-Com: -0.169D-03 0.618D-02 0.446D-02-0.181D-01-0.832D-01 0.959D-01
 Coeff-Com:  0.995D+00
 Coeff:     -0.169D-03 0.618D-02 0.446D-02-0.181D-01-0.832D-01 0.959D-01
 Coeff:      0.995D+00
 Gap=     0.334 Goal=   None    Shift=    0.000
 Gap=     0.334 Goal=   None    Shift=    0.000
 RMSDP=2.17D-08 MaxDP=1.06D-06 DE=-2.98D-10 OVMax= 2.62D-06

 Cycle  15  Pass 1  IDiag  1:
 RMSU=  7.27D-09    CP:  1.00D+00  1.12D+00  6.68D-01  1.65D+00  1.35D+00
                    CP:  1.56D+00  1.22D+00
 E= -512.713472703517     Delta-E=       -0.000000000010 Rises=F Damp=F
 DIIS: error= 2.81D-08 at cycle   8 NSaved=   8.
 NSaved= 8 IEnMin= 8 EnMin= -512.713472703517     IErMin= 8 ErrMin= 2.81D-08
 ErrMax= 2.81D-08  0.00D+00 EMaxC= 1.00D-01 BMatC= 7.00D-13 BMatP= 1.87D-11
 IDIUse=1 WtCom= 1.00D+00 WtEn= 0.00D+00
 Coeff-Com: -0.213D-03 0.391D-02 0.434D-02-0.217D-03-0.223D-01-0.280D-01
 Coeff-Com:  0.118D+00 0.925D+00
 Coeff:     -0.213D-03 0.391D-02 0.434D-02-0.217D-03-0.223D-01-0.280D-01
 Coeff:      0.118D+00 0.925D+00
 Gap=     0.334 Goal=   None    Shift=    0.000
 Gap=     0.334 Goal=   None    Shift=    0.000
 RMSDP=4.45D-09 MaxDP=1.19D-07 DE=-9.89D-12 OVMax= 3.42D-07

 SCF Done:  E(UwB97XD) =  -512.713472704     A.U. after   15 cycles
            NFock= 15  Conv=0.45D-08     -V/T= 2.0024
 <Sx>= 0.0000 <Sy>= 0.0000 <Sz>= 0.0000 <S**2>=-0.0000 S=-0.0000
 <L.S>=  0.00000000000    
 KE= 5.115063230733D+02 PE=-1.421041125584D+03 EE= 2.940682263293D+02
 Annihilation of the first spin contaminant:
 S**2 before annihilation    -0.0000,   after     0.0000
 Leave Link  502 at Tue Jan  3 09:11:40 2023, MaxMem=   536870912 cpu:             480.7 elap:             240.5
 (Enter /opt/software/gaussian/g16.c01/l508.exe)
 QCSCF skips out because SCF is already converged.
 Leave Link  508 at Tue Jan  3 09:11:41 2023, MaxMem=   536870912 cpu:               0.0 elap:               0.0
 (Enter /opt/software/gaussian/g16.c01/l601.exe)
 Copying SCF densities to generalized density rwf, IOpCl= 1 IROHF=0.

 **********************************************************************

            Population analysis using the SCF Density.

 **********************************************************************

 Alpha  occ. eigenvalues --  -89.13395 -19.25121 -10.34175  -8.15797  -6.10490
 Alpha  occ. eigenvalues --   -6.10469  -6.10060  -1.14105  -0.89892  -0.69784
 Alpha  occ. eigenvalues --   -0.57795  -0.54890  -0.50717  -0.47497  -0.37022
 Alpha  occ. eigenvalues --   -0.35420
 Alpha virt. eigenvalues --   -0.01984   0.08425   0.09698   0.12853   0.14755
 Alpha virt. eigenvalues --    0.18972   0.19047   0.22626   0.26101   0.26587
 Alpha virt. eigenvalues --    0.27973   0.31550   0.33794   0.34647   0.37747
 Alpha virt. eigenvalues --    0.39189   0.41657   0.44043   0.44164   0.48489
 Alpha virt. eigenvalues --    0.53030   0.53122   0.59904   0.61769   0.70007
 Alpha virt. eigenvalues --    0.72449   0.74671   0.76612   0.81590   0.81923
 Alpha virt. eigenvalues --    0.85039   0.85408   0.88265   0.88297   0.93101
 Alpha virt. eigenvalues --    0.97079   0.97631   1.00211   1.00820   1.05428
 Alpha virt. eigenvalues --    1.07421   1.10107   1.11707   1.14922   1.15441
 Alpha virt. eigenvalues --    1.20051   1.22960   1.26102   1.26823   1.35650
 Alpha virt. eigenvalues --    1.43909   1.45220   1.46897   1.47439   1.51224
 Alpha virt. eigenvalues --    1.52774   1.57771   1.59843   1.66489   1.74169
 Alpha virt. eigenvalues --    1.75290   1.85015   1.85978   1.89162   1.95398
 Alpha virt. eigenvalues --    1.95558   1.97111   2.02697   2.03193   2.14751
 Alpha virt. eigenvalues --    2.20226   2.21774   2.22432   2.29178   2.32039
 Alpha virt. eigenvalues --    2.34586   2.38131   2.43154   2.51054   2.55814
 Alpha virt. eigenvalues --    2.60740   2.64766   2.65497   2.68626   2.70162
 Alpha virt. eigenvalues --    2.72883   2.77537   2.78170   2.81226   2.81414
 Alpha virt. eigenvalues --    2.90926   2.93784   2.99391   3.00092   3.05668
 Alpha virt. eigenvalues --    3.18441   3.21122   3.21303   3.22177   3.25364
 Alpha virt. eigenvalues --    3.26866   3.33423   3.37156   3.38230   3.40229
 Alpha virt. eigenvalues --    3.42552   3.49441   3.49854   3.55451   3.56342
 Alpha virt. eigenvalues --    3.60420   3.62284   3.66862   3.72653   3.75443
 Alpha virt. eigenvalues --    3.81252   3.82779   3.93297   3.99500   4.02205
 Alpha virt. eigenvalues --    4.06772   4.09467   4.15650   4.17399   4.32733
 Alpha virt. eigenvalues --    4.34642   4.51682   4.56872   4.77214   4.91401
 Alpha virt. eigenvalues --    4.98250   5.03365   5.11297   5.28624   5.30214
 Alpha virt. eigenvalues --    5.31803   5.33057   5.38494   5.38784   5.43547
 Alpha virt. eigenvalues --    5.51503   5.62155   5.77185   5.80635   5.90693
 Alpha virt. eigenvalues --    5.96406   6.02961   6.05069   6.07604   6.19542
 Alpha virt. eigenvalues --    6.28977   6.33996   6.43880   6.48491   6.55500
 Alpha virt. eigenvalues --    6.60518   6.75045   6.76576   6.90264   6.92462
 Alpha virt. eigenvalues --    7.19519   7.22330   7.32987   7.38008   7.51406
 Alpha virt. eigenvalues --    7.53883   7.54958   7.62873   7.64735   7.68652
 Alpha virt. eigenvalues --    7.89420   7.95750   8.07386   8.16766   8.25056
 Alpha virt. eigenvalues --    8.30686   8.32418   8.33452   8.41047   8.49399
 Alpha virt. eigenvalues --    8.61772   8.64746   8.69326   8.80097   8.81888
 Alpha virt. eigenvalues --    8.96686   8.96716   8.97992   8.99401   9.00501
 Alpha virt. eigenvalues --    9.07155   9.18596   9.23103   9.43934   9.50619
 Alpha virt. eigenvalues --    9.62188   9.65958   9.70807   9.83823   9.90080
 Alpha virt. eigenvalues --   10.09083  10.36997  10.50526  11.05191  11.06550
 Alpha virt. eigenvalues --   11.28495  11.30987  11.69096  11.82718  11.88739
 Alpha virt. eigenvalues --   11.92311  12.11217  12.14624  12.34904  12.45687
 Alpha virt. eigenvalues --   12.81816  12.85458  14.01569  24.70057  28.56269
 Alpha virt. eigenvalues --   28.75639  29.12023  29.51038  47.98879  84.14040
 Alpha virt. eigenvalues --  147.66402 253.06640 451.21007
  Beta  occ. eigenvalues --  -89.13395 -19.25121 -10.34175  -8.15797  -6.10490
  Beta  occ. eigenvalues --   -6.10469  -6.10060  -1.14105  -0.89892  -0.69784
  Beta  occ. eigenvalues --   -0.57795  -0.54890  -0.50717  -0.47497  -0.37022
  Beta  occ. eigenvalues --   -0.35420
  Beta virt. eigenvalues --   -0.01984   0.08425   0.09698   0.12853   0.14755
  Beta virt. eigenvalues --    0.18972   0.19047   0.22626   0.26101   0.26587
  Beta virt. eigenvalues --    0.27973   0.31550   0.33794   0.34647   0.37747
  Beta virt. eigenvalues --    0.39189   0.41657   0.44043   0.44164   0.48489
  Beta virt. eigenvalues --    0.53030   0.53122   0.59904   0.61769   0.70007
  Beta virt. eigenvalues --    0.72449   0.74671   0.76612   0.81590   0.81923
  Beta virt. eigenvalues --    0.85039   0.85408   0.88265   0.88297   0.93101
  Beta virt. eigenvalues --    0.97079   0.97631   1.00211   1.00820   1.05428
  Beta virt. eigenvalues --    1.07421   1.10107   1.11707   1.14922   1.15441
  Beta virt. eigenvalues --    1.20051   1.22960   1.26102   1.26823   1.35650
  Beta virt. eigenvalues --    1.43909   1.45220   1.46897   1.47439   1.51224
  Beta virt. eigenvalues --    1.52774   1.57771   1.59843   1.66489   1.74169
  Beta virt. eigenvalues --    1.75290   1.85015   1.85978   1.89162   1.95398
  Beta virt. eigenvalues --    1.95558   1.97111   2.02697   2.03193   2.14751
  Beta virt. eigenvalues --    2.20226   2.21774   2.22432   2.29178   2.32039
  Beta virt. eigenvalues --    2.34586   2.38131   2.43154   2.51054   2.55814
  Beta virt. eigenvalues --    2.60740   2.64766   2.65497   2.68626   2.70162
  Beta virt. eigenvalues --    2.72883   2.77537   2.78170   2.81226   2.81414
  Beta virt. eigenvalues --    2.90926   2.93784   2.99391   3.00092   3.05668
  Beta virt. eigenvalues --    3.18441   3.21122   3.21303   3.22177   3.25364
  Beta virt. eigenvalues --    3.26866   3.33423   3.37156   3.38230   3.40229
  Beta virt. eigenvalues --    3.42552   3.49441   3.49854   3.55451   3.56342
  Beta virt. eigenvalues --    3.60420   3.62284   3.66862   3.72653   3.75443
  Beta virt. eigenvalues --    3.81252   3.82779   3.93297   3.99500   4.02205
  Beta virt. eigenvalues --    4.06772   4.09467   4.15650   4.17399   4.32733
  Beta virt. eigenvalues --    4.34642   4.51682   4.56872   4.77214   4.91401
  Beta virt. eigenvalues --    4.98250   5.03365   5.11297   5.28624   5.30214
  Beta virt. eigenvalues --    5.31803   5.33057   5.38494   5.38784   5.43547
  Beta virt. eigenvalues --    5.51503   5.62155   5.77185   5.80635   5.90693
  Beta virt. eigenvalues --    5.96406   6.02961   6.05069   6.07604   6.19542
  Beta virt. eigenvalues --    6.28977   6.33996   6.43880   6.48491   6.55500
  Beta virt. eigenvalues --    6.60518   6.75045   6.76576   6.90264   6.92462
  Beta virt. eigenvalues --    7.19519   7.22330   7.32987   7.38008   7.51406
  Beta virt. eigenvalues --    7.53883   7.54958   7.62873   7.64735   7.68652
  Beta virt. eigenvalues --    7.89420   7.95750   8.07386   8.16766   8.25056
  Beta virt. eigenvalues --    8.30686   8.32418   8.33452   8.41047   8.49399
  Beta virt. eigenvalues --    8.61772   8.64746   8.69326   8.80097   8.81888
  Beta virt. eigenvalues --    8.96686   8.96716   8.97992   8.99401   9.00501
  Beta virt. eigenvalues --    9.07155   9.18596   9.23103   9.43934   9.50619
  Beta virt. eigenvalues --    9.62188   9.65958   9.70807   9.83823   9.90080
  Beta virt. eigenvalues --   10.09083  10.36997  10.50526  11.05191  11.06550
  Beta virt. eigenvalues --   11.28495  11.30987  11.69096  11.82718  11.88739
  Beta virt. eigenvalues --   11.92311  12.11217  12.14624  12.34904  12.45687
  Beta virt. eigenvalues --   12.81816  12.85458  14.01569  24.70057  28.56269
  Beta virt. eigenvalues --   28.75639  29.12023  29.51038  47.98879  84.14040
  Beta virt. eigenvalues --  147.66402 253.06640 451.21007
          Condensed to atoms (all electrons):
               1          2          3          4          5
     1  C    5.029770   0.459831  -0.087065   0.358533   0.409307
     2  S    0.459831  14.662780   0.530591  -0.003586  -0.023749
     3  O   -0.087065   0.530591   8.001802   0.005369  -0.002135
     4  H    0.358533  -0.003586   0.005369   0.565797  -0.028613
     5  H    0.409307  -0.023749  -0.002135  -0.028613   0.502882
          Atomic-Atomic Spin Densities.
               1          2          3          4          5
     1  C   -0.000000  -0.000000   0.000000   0.000000   0.000000
     2  S   -0.000000   0.000000  -0.000000  -0.000000   0.000000
     3  O    0.000000  -0.000000  -0.000000  -0.000000  -0.000000
     4  H    0.000000  -0.000000  -0.000000   0.000000   0.000000
     5  H    0.000000   0.000000  -0.000000   0.000000   0.000000
 Mulliken charges and spin densities:
               1          2
     1  C   -0.170377  -0.000000
     2  S    0.374132   0.000000
     3  O   -0.448563  -0.000000
     4  H    0.102500   0.000000
     5  H    0.142307   0.000000
 Sum of Mulliken charges =  -0.00000   0.00000
 Mulliken charges and spin densities with hydrogens summed into heavy atoms:
               1          2
     1  C    0.074431  -0.000000
     2  S    0.374132   0.000000
     3  O   -0.448563  -0.000000
 Electronic spatial extent (au):  <R**2>=            827.5488
 Charge=             -0.0000 electrons
 Dipole moment (field-independent basis, Debye):
    X=             -2.3895    Y=              1.0885    Z=              1.9054  Tot=              3.2442
 Quadrupole moment (field-independent basis, Debye-Ang):
   XX=            -33.6372   YY=            -25.3705   ZZ=            -26.9239
   XY=              3.7223   XZ=              6.6746   YZ=             -1.1747
 Traceless Quadrupole moment (field-independent basis, Debye-Ang):
   XX=             -4.9933   YY=              3.2734   ZZ=              1.7199
   XY=              3.7223   XZ=              6.6746   YZ=             -1.1747
 Octapole moment (field-independent basis, Debye-Ang**2):
  XXX=           -196.9836  YYY=             13.8387  ZZZ=             32.8579  XYY=            -57.4213
  XXY=             16.6001  XXZ=             31.2823  XZZ=            -65.5863  YZZ=              7.2756
  YYZ=             10.8242  XYZ=             -6.4301
 Hexadecapole moment (field-independent basis, Debye-Ang**3):
 XXXX=           -993.5500 YYYY=            -47.1612 ZZZZ=            -98.0026 XXXY=             81.0205
 XXXZ=            154.8360 YYYX=             42.8305 YYYZ=            -18.4737 ZZZX=             97.4566
 ZZZY=            -20.2144 XXYY=           -161.9985 XXZZ=           -197.1526 YYZZ=            -24.6360
 XXYZ=            -27.5269 YYXZ=             31.8763 ZZXY=             22.3494
 N-N= 1.027531034782D+02 E-N=-1.421041130093D+03  KE= 5.115063230733D+02
                          Isotropic Fermi Contact Couplings
        Atom                 a.u.       MegaHertz       Gauss      10(-4) cm-1
     1  C(13)             -0.00000      -0.00000      -0.00000      -0.00000
     2  S(33)             -0.00000      -0.00000      -0.00000      -0.00000
     3  O(17)              0.00000      -0.00000      -0.00000      -0.00000
     4  H(1)              -0.00000      -0.00000      -0.00000      -0.00000
     5  H(1)              -0.00000      -0.00000      -0.00000      -0.00000
 --------------------------------------------------------
       Center         ----  Spin Dipole Couplings  ----
                      3XX-RR        3YY-RR        3ZZ-RR
 --------------------------------------------------------
     1   Atom        0.000000      0.000000     -0.000000
     2   Atom       -0.000000      0.000000      0.000000
     3   Atom       -0.000000      0.000000     -0.000000
     4   Atom        0.000000      0.000000     -0.000000
     5   Atom        0.000000      0.000000     -0.000000
 --------------------------------------------------------
                        XY            XZ            YZ
 --------------------------------------------------------
     1   Atom       -0.000000     -0.000000     -0.000000
     2   Atom        0.000000     -0.000000     -0.000000
     3   Atom        0.000000      0.000000     -0.000000
     4   Atom        0.000000      0.000000     -0.000000
     5   Atom       -0.000000     -0.000000     -0.000000
 --------------------------------------------------------


 ---------------------------------------------------------------------------------
              Anisotropic Spin Dipole Couplings in Principal Axis System
 ---------------------------------------------------------------------------------

       Atom             a.u.   MegaHertz   Gauss  10(-4) cm-1        Axes

              Baa    -0.0000    -0.000    -0.000    -0.000  0.3428  0.4951  0.7984
     1 C(13)  Bbb     0.0000     0.000     0.000     0.000 -0.6561  0.7344 -0.1737
              Bcc     0.0000     0.000     0.000     0.000  0.6724  0.4642 -0.5765
 
              Baa    -0.0000    -0.000    -0.000    -0.000  0.9991  0.0035  0.0418
     2 S(33)  Bbb     0.0000     0.000     0.000     0.000 -0.0203  0.9121  0.4095
              Bcc     0.0000     0.000     0.000     0.000 -0.0367 -0.4100  0.9114
 
              Baa    -0.0000     0.000     0.000     0.000 -0.5440  0.2787  0.7915
     3 O(17)  Bbb     0.0000    -0.000    -0.000    -0.000  0.7940  0.4759  0.3782
              Bcc     0.0000    -0.000    -0.000    -0.000 -0.2713  0.8342 -0.4802
 
              Baa    -0.0000    -0.000    -0.000    -0.000 -0.4303  0.4171  0.8005
     4 H(1)   Bbb     0.0000     0.000     0.000     0.000  0.8664  0.4398  0.2366
              Bcc     0.0000     0.000     0.000     0.000 -0.2533  0.7954 -0.5506
 
              Baa    -0.0000    -0.000    -0.000    -0.000  0.5252  0.4306  0.7340
     5 H(1)   Bbb     0.0000     0.000     0.000     0.000  0.7688 -0.6098 -0.1925
              Bcc     0.0000     0.000     0.000     0.000  0.3647  0.6654 -0.6513
 

 ---------------------------------------------------------------------------------

 No NMR shielding tensors so no spin-rotation constants.
 Leave Link  601 at Tue Jan  3 09:11:41 2023, MaxMem=   536870912 cpu:               0.8 elap:               0.4
 (Enter /opt/software/gaussian/g16.c01/l801.exe)
 DoSCS=F DFT=T ScalE2(SS,OS)=  1.000000  1.000000
 Range of M.O.s used for correlation:     1   244
 NBasis=   244 NAE=    16 NBE=    16 NFC=     0 NFV=     0
 NROrb=    244 NOA=    16 NOB=    16 NVA=   228 NVB=   228

 **** Warning!!: The largest alpha MO coefficient is  0.21651986D+02


 **** Warning!!: The largest beta MO coefficient is  0.21651986D+02

 Leave Link  801 at Tue Jan  3 09:11:41 2023, MaxMem=   536870912 cpu:               0.1 elap:               0.0
 (Enter /opt/software/gaussian/g16.c01/l914.exe)
 UHF ground state
 Doing stability rather than CIS.
 Two-electron integral symmetry not used.
 MDV=   536870912 DFT=T DoStab=T Mixed=T DoRPA=F DoScal=F NonHer=F
 Making orbital integer symmetry assigments:
    12 initial guesses have been made.
 Convergence on wavefunction:    0.001000000000000
 Davidson Disk Diagonalization:  ConvIn= 1.00D-03 SkipCon=T Conv= 1.00D-03.
 Max sub-space:  2000 roots to seek:    12 dimension of matrix:         7296
 Iteration     1 Dimension    12 NMult     0 NNew     12
 CISAX will form    12 AO SS matrices at one time.
 NMat=    12 NSing=    12 JSym2X= 0.
 FoFJK:  IHMeth= 1 ICntrl=       0 DoSepK=T KAlg= 0 I1Cent=           0 FoldK=F
 IRaf=         1 NMat=      12 IRICut=       1 DoRegI=T DoRafI=F ISym2E= 0 IDoP0=3 IntGTp=3.
 FoFCou: FMM=F IPFlag=           0 FMFlag=      100000 FMFlg1=           0
         NFxFlg=           0 DoJE=F BraDBF=F KetDBF=F FulRan=T
         wScrn=  0.000000 ICntrl=       500 IOpCl=  0 I1Cent=           0 NGrid=           0
         NMat0=   12 NMatS0=     12 NMatT0=    0 NMatD0=   12 NMtDS0=    0 NMtDT0=    0
 Symmetry not used in FoFCou.
 Excitation Energies [eV] at current iteration:
 Root      1 :     1.661362982597588
 Root      2 :     3.334305710546430
 Root      3 :     4.647671077156646
 Root      4 :     5.895754894307680
 Root      5 :     6.338974117955451
 Root      6 :     6.550310102710993
 Root      7 :     6.580664522412603
 Root      8 :     7.409711031836801
 Root      9 :     7.806525146868076
 Root     10 :     7.808419765458797
 Root     11 :     8.067366769862199
 Root     12 :    11.941085596642266
 Iteration     2 Dimension    24 NMult    12 NNew     12
 CISAX will form    12 AO SS matrices at one time.
 NMat=    12 NSing=    12 JSym2X= 0.
 Root      1 not converged, maximum delta is    0.076973962015382
 Excitation Energies [eV] at current iteration:
 Root      1 :     1.136233937278894   Change is   -0.525129045318694
 Root      2 :     2.987514333817580   Change is   -0.346791376728850
 Root      3 :     4.328540828456473   Change is   -0.319130248700174
 Root      4 :     5.478350282403097   Change is   -0.417404611904583
 Root      5 :     5.700823745571893   Change is   -0.638150372383558
 Root      6 :     6.047596498831177   Change is   -5.893489097811089
 Root      7 :     6.309285908412713   Change is   -0.241024194298280
 Root      8 :     6.387596510023934   Change is   -0.193068012388670
 Root      9 :     7.277961695697731   Change is   -0.131749336139071
 Root     10 :     7.445664630110881   Change is   -0.362755135347916
 Root     11 :     7.453252249701151   Change is   -0.353272897166924
 Root     12 :     7.859142573388213   Change is   -0.208224196473986
 Iteration     3 Dimension    27 NMult    24 NNew      3
 CISAX will form     3 AO SS matrices at one time.
 NMat=     3 NSing=     3 JSym2X= 0.
 Root      1 not converged, maximum delta is    0.016553124609276
 Excitation Energies [eV] at current iteration:
 Root      1 :     1.121891898450653   Change is   -0.014342038828241
 Root      2 :     2.975386086473582   Change is   -0.012128247343998
 Root      3 :     4.302105209154050   Change is   -0.026435619302423
 Iteration     4 Dimension    30 NMult    27 NNew      3
 CISAX will form     3 AO SS matrices at one time.
 NMat=     3 NSing=     3 JSym2X= 0.
 Root      1 not converged, maximum delta is    0.007029383273547
 Excitation Energies [eV] at current iteration:
 Root      1 :     1.120389829086287   Change is   -0.001502069364367
 Root      2 :     2.974249747483872   Change is   -0.001136338989711
 Root      3 :     4.300540535665691   Change is   -0.001564673488358
 Iteration     5 Dimension    33 NMult    30 NNew      3
 CISAX will form     3 AO SS matrices at one time.
 NMat=     3 NSing=     3 JSym2X= 0.
 Root      1 not converged, maximum delta is    0.001676072316533
 Excitation Energies [eV] at current iteration:
 Root      1 :     1.120276524984281   Change is   -0.000113304102006
 Root      2 :     2.974187312425626   Change is   -0.000062435058245
 Root      3 :     4.300427346779506   Change is   -0.000113188886185
 Iteration     6 Dimension    36 NMult    33 NNew      3
 CISAX will form     3 AO SS matrices at one time.
 NMat=     3 NSing=     3 JSym2X= 0.
 Root      1 has converged.
 Excitation Energies [eV] at current iteration:
 Root      1 :     1.120267636755606   Change is   -0.000008888228675
 Root      2 :     2.974185010071634   Change is   -0.000002302353992
 Root      3 :     4.300420800713368   Change is   -0.000006546066138
 Convergence achieved on expansion vectors.
 ***********************************************************************
 Stability analysis using <AA,BB:AA,BB> singles matrix:
 ***********************************************************************
 1PDM for each excited state written to RWF  633
 Ground to excited state transition densities written to RWF  633

 Eigenvectors of the stability matrix:
 
 Excited state symmetry could not be determined.
 Eigenvector   1:  3.000-?Sym  Eigenvalue= 0.0411691  <S**2>=2.000
     16A -> 17A       -0.69031
     16B -> 17B        0.69031
 The wavefunction is stable under the perturbations considered.
 Leave Link  914 at Tue Jan  3 09:19:30 2023, MaxMem=   536870912 cpu:             936.8 elap:             468.5
 (Enter /opt/software/gaussian/g16.c01/l508.exe)
 The wavefunction is already stable.
 Leave Link  508 at Tue Jan  3 09:19:30 2023, MaxMem=   536870912 cpu:               0.0 elap:               0.0
 (Enter /opt/software/gaussian/g16.c01/l601.exe)
 Copying SCF densities to generalized density rwf, IOpCl= 1 IROHF=0.

 **********************************************************************

            Population analysis using the SCF Density.

 **********************************************************************

 Alpha  occ. eigenvalues --  -89.13395 -19.25121 -10.34175  -8.15797  -6.10490
 Alpha  occ. eigenvalues --   -6.10469  -6.10060  -1.14105  -0.89892  -0.69784
 Alpha  occ. eigenvalues --   -0.57795  -0.54890  -0.50717  -0.47497  -0.37022
 Alpha  occ. eigenvalues --   -0.35420
 Alpha virt. eigenvalues --   -0.01984   0.08425   0.09698   0.12853   0.14755
 Alpha virt. eigenvalues --    0.18972   0.19047   0.22626   0.26101   0.26587
 Alpha virt. eigenvalues --    0.27973   0.31550   0.33794   0.34647   0.37747
 Alpha virt. eigenvalues --    0.39189   0.41657   0.44043   0.44164   0.48489
 Alpha virt. eigenvalues --    0.53030   0.53122   0.59904   0.61769   0.70007
 Alpha virt. eigenvalues --    0.72449   0.74671   0.76612   0.81590   0.81923
 Alpha virt. eigenvalues --    0.85039   0.85408   0.88265   0.88297   0.93101
 Alpha virt. eigenvalues --    0.97079   0.97631   1.00211   1.00820   1.05428
 Alpha virt. eigenvalues --    1.07421   1.10107   1.11707   1.14922   1.15441
 Alpha virt. eigenvalues --    1.20051   1.22960   1.26102   1.26823   1.35650
 Alpha virt. eigenvalues --    1.43909   1.45220   1.46897   1.47439   1.51224
 Alpha virt. eigenvalues --    1.52774   1.57771   1.59843   1.66489   1.74169
 Alpha virt. eigenvalues --    1.75290   1.85015   1.85978   1.89162   1.95398
 Alpha virt. eigenvalues --    1.95558   1.97111   2.02697   2.03193   2.14751
 Alpha virt. eigenvalues --    2.20226   2.21774   2.22432   2.29178   2.32039
 Alpha virt. eigenvalues --    2.34586   2.38131   2.43154   2.51054   2.55814
 Alpha virt. eigenvalues --    2.60740   2.64766   2.65497   2.68626   2.70162
 Alpha virt. eigenvalues --    2.72883   2.77537   2.78170   2.81226   2.81414
 Alpha virt. eigenvalues --    2.90926   2.93784   2.99391   3.00092   3.05668
 Alpha virt. eigenvalues --    3.18441   3.21122   3.21303   3.22177   3.25364
 Alpha virt. eigenvalues --    3.26866   3.33423   3.37156   3.38230   3.40229
 Alpha virt. eigenvalues --    3.42552   3.49441   3.49854   3.55451   3.56342
 Alpha virt. eigenvalues --    3.60420   3.62284   3.66862   3.72653   3.75443
 Alpha virt. eigenvalues --    3.81252   3.82779   3.93297   3.99500   4.02205
 Alpha virt. eigenvalues --    4.06772   4.09467   4.15650   4.17399   4.32733
 Alpha virt. eigenvalues --    4.34642   4.51682   4.56872   4.77214   4.91401
 Alpha virt. eigenvalues --    4.98250   5.03365   5.11297   5.28624   5.30214
 Alpha virt. eigenvalues --    5.31803   5.33057   5.38494   5.38784   5.43547
 Alpha virt. eigenvalues --    5.51503   5.62155   5.77185   5.80635   5.90693
 Alpha virt. eigenvalues --    5.96406   6.02961   6.05069   6.07604   6.19542
 Alpha virt. eigenvalues --    6.28977   6.33996   6.43880   6.48491   6.55500
 Alpha virt. eigenvalues --    6.60518   6.75045   6.76576   6.90264   6.92462
 Alpha virt. eigenvalues --    7.19519   7.22330   7.32987   7.38008   7.51406
 Alpha virt. eigenvalues --    7.53883   7.54958   7.62873   7.64735   7.68652
 Alpha virt. eigenvalues --    7.89420   7.95750   8.07386   8.16766   8.25056
 Alpha virt. eigenvalues --    8.30686   8.32418   8.33452   8.41047   8.49399
 Alpha virt. eigenvalues --    8.61772   8.64746   8.69326   8.80097   8.81888
 Alpha virt. eigenvalues --    8.96686   8.96716   8.97992   8.99401   9.00501
 Alpha virt. eigenvalues --    9.07155   9.18596   9.23103   9.43934   9.50619
 Alpha virt. eigenvalues --    9.62188   9.65958   9.70807   9.83823   9.90080
 Alpha virt. eigenvalues --   10.09083  10.36997  10.50526  11.05191  11.06550
 Alpha virt. eigenvalues --   11.28495  11.30987  11.69096  11.82718  11.88739
 Alpha virt. eigenvalues --   11.92311  12.11217  12.14624  12.34904  12.45687
 Alpha virt. eigenvalues --   12.81816  12.85458  14.01569  24.70057  28.56269
 Alpha virt. eigenvalues --   28.75639  29.12023  29.51038  47.98879  84.14040
 Alpha virt. eigenvalues --  147.66402 253.06640 451.21007
  Beta  occ. eigenvalues --  -89.13395 -19.25121 -10.34175  -8.15797  -6.10490
  Beta  occ. eigenvalues --   -6.10469  -6.10060  -1.14105  -0.89892  -0.69784
  Beta  occ. eigenvalues --   -0.57795  -0.54890  -0.50717  -0.47497  -0.37022
  Beta  occ. eigenvalues --   -0.35420
  Beta virt. eigenvalues --   -0.01984   0.08425   0.09698   0.12853   0.14755
  Beta virt. eigenvalues --    0.18972   0.19047   0.22626   0.26101   0.26587
  Beta virt. eigenvalues --    0.27973   0.31550   0.33794   0.34647   0.37747
  Beta virt. eigenvalues --    0.39189   0.41657   0.44043   0.44164   0.48489
  Beta virt. eigenvalues --    0.53030   0.53122   0.59904   0.61769   0.70007
  Beta virt. eigenvalues --    0.72449   0.74671   0.76612   0.81590   0.81923
  Beta virt. eigenvalues --    0.85039   0.85408   0.88265   0.88297   0.93101
  Beta virt. eigenvalues --    0.97079   0.97631   1.00211   1.00820   1.05428
  Beta virt. eigenvalues --    1.07421   1.10107   1.11707   1.14922   1.15441
  Beta virt. eigenvalues --    1.20051   1.22960   1.26102   1.26823   1.35650
  Beta virt. eigenvalues --    1.43909   1.45220   1.46897   1.47439   1.51224
  Beta virt. eigenvalues --    1.52774   1.57771   1.59843   1.66489   1.74169
  Beta virt. eigenvalues --    1.75290   1.85015   1.85978   1.89162   1.95398
  Beta virt. eigenvalues --    1.95558   1.97111   2.02697   2.03193   2.14751
  Beta virt. eigenvalues --    2.20226   2.21774   2.22432   2.29178   2.32039
  Beta virt. eigenvalues --    2.34586   2.38131   2.43154   2.51054   2.55814
  Beta virt. eigenvalues --    2.60740   2.64766   2.65497   2.68626   2.70162
  Beta virt. eigenvalues --    2.72883   2.77537   2.78170   2.81226   2.81414
  Beta virt. eigenvalues --    2.90926   2.93784   2.99391   3.00092   3.05668
  Beta virt. eigenvalues --    3.18441   3.21122   3.21303   3.22177   3.25364
  Beta virt. eigenvalues --    3.26866   3.33423   3.37156   3.38230   3.40229
  Beta virt. eigenvalues --    3.42552   3.49441   3.49854   3.55451   3.56342
  Beta virt. eigenvalues --    3.60420   3.62284   3.66862   3.72653   3.75443
  Beta virt. eigenvalues --    3.81252   3.82779   3.93297   3.99500   4.02205
  Beta virt. eigenvalues --    4.06772   4.09467   4.15650   4.17399   4.32733
  Beta virt. eigenvalues --    4.34642   4.51682   4.56872   4.77214   4.91401
  Beta virt. eigenvalues --    4.98250   5.03365   5.11297   5.28624   5.30214
  Beta virt. eigenvalues --    5.31803   5.33057   5.38494   5.38784   5.43547
  Beta virt. eigenvalues --    5.51503   5.62155   5.77185   5.80635   5.90693
  Beta virt. eigenvalues --    5.96406   6.02961   6.05069   6.07604   6.19542
  Beta virt. eigenvalues --    6.28977   6.33996   6.43880   6.48491   6.55500
  Beta virt. eigenvalues --    6.60518   6.75045   6.76576   6.90264   6.92462
  Beta virt. eigenvalues --    7.19519   7.22330   7.32987   7.38008   7.51406
  Beta virt. eigenvalues --    7.53883   7.54958   7.62873   7.64735   7.68652
  Beta virt. eigenvalues --    7.89420   7.95750   8.07386   8.16766   8.25056
  Beta virt. eigenvalues --    8.30686   8.32418   8.33452   8.41047   8.49399
  Beta virt. eigenvalues --    8.61772   8.64746   8.69326   8.80097   8.81888
  Beta virt. eigenvalues --    8.96686   8.96716   8.97992   8.99401   9.00501
  Beta virt. eigenvalues --    9.07155   9.18596   9.23103   9.43934   9.50619
  Beta virt. eigenvalues --    9.62188   9.65958   9.70807   9.83823   9.90080
  Beta virt. eigenvalues --   10.09083  10.36997  10.50526  11.05191  11.06550
  Beta virt. eigenvalues --   11.28495  11.30987  11.69096  11.82718  11.88739
  Beta virt. eigenvalues --   11.92311  12.11217  12.14624  12.34904  12.45687
  Beta virt. eigenvalues --   12.81816  12.85458  14.01569  24.70057  28.56269
  Beta virt. eigenvalues --   28.75639  29.12023  29.51038  47.98879  84.14040
  Beta virt. eigenvalues --  147.66402 253.06640 451.21007
          Condensed to atoms (all electrons):
               1          2          3          4          5
     1  C    5.029770   0.459831  -0.087065   0.358533   0.409307
     2  S    0.459831  14.662780   0.530591  -0.003586  -0.023749
     3  O   -0.087065   0.530591   8.001802   0.005369  -0.002135
     4  H    0.358533  -0.003586   0.005369   0.565797  -0.028613
     5  H    0.409307  -0.023749  -0.002135  -0.028613   0.502882
          Atomic-Atomic Spin Densities.
               1          2          3          4          5
     1  C   -0.000000  -0.000000   0.000000   0.000000   0.000000
     2  S   -0.000000   0.000000  -0.000000  -0.000000   0.000000
     3  O    0.000000  -0.000000  -0.000000  -0.000000  -0.000000
     4  H    0.000000  -0.000000  -0.000000   0.000000   0.000000
     5  H    0.000000   0.000000  -0.000000   0.000000   0.000000
 Mulliken charges and spin densities:
               1          2
     1  C   -0.170377  -0.000000
     2  S    0.374132   0.000000
     3  O   -0.448563  -0.000000
     4  H    0.102500   0.000000
     5  H    0.142307   0.000000
 Sum of Mulliken charges =  -0.00000   0.00000
 Mulliken charges and spin densities with hydrogens summed into heavy atoms:
               1          2
     1  C    0.074431  -0.000000
     2  S    0.374132   0.000000
     3  O   -0.448563  -0.000000
 Electronic spatial extent (au):  <R**2>=            827.5488
 Charge=             -0.0000 electrons
 Dipole moment (field-independent basis, Debye):
    X=             -2.3895    Y=              1.0885    Z=              1.9054  Tot=              3.2442
 Quadrupole moment (field-independent basis, Debye-Ang):
   XX=            -33.6372   YY=            -25.3705   ZZ=            -26.9239
   XY=              3.7223   XZ=              6.6746   YZ=             -1.1747
 Traceless Quadrupole moment (field-independent basis, Debye-Ang):
   XX=             -4.9933   YY=              3.2734   ZZ=              1.7199
   XY=              3.7223   XZ=              6.6746   YZ=             -1.1747
 Octapole moment (field-independent basis, Debye-Ang**2):
  XXX=           -196.9836  YYY=             13.8387  ZZZ=             32.8579  XYY=            -57.4213
  XXY=             16.6001  XXZ=             31.2823  XZZ=            -65.5863  YZZ=              7.2756
  YYZ=             10.8242  XYZ=             -6.4301
 Hexadecapole moment (field-independent basis, Debye-Ang**3):
 XXXX=           -993.5500 YYYY=            -47.1612 ZZZZ=            -98.0026 XXXY=             81.0205
 XXXZ=            154.8360 YYYX=             42.8305 YYYZ=            -18.4737 ZZZX=             97.4566
 ZZZY=            -20.2144 XXYY=           -161.9985 XXZZ=           -197.1526 YYZZ=            -24.6360
 XXYZ=            -27.5269 YYXZ=             31.8763 ZZXY=             22.3494
 N-N= 1.027531034782D+02 E-N=-1.421041130093D+03  KE= 5.115063230733D+02
                          Isotropic Fermi Contact Couplings
        Atom                 a.u.       MegaHertz       Gauss      10(-4) cm-1
     1  C(13)             -0.00000      -0.00000      -0.00000      -0.00000
     2  S(33)             -0.00000      -0.00000      -0.00000      -0.00000
     3  O(17)              0.00000      -0.00000      -0.00000      -0.00000
     4  H(1)              -0.00000      -0.00000      -0.00000      -0.00000
     5  H(1)              -0.00000      -0.00000      -0.00000      -0.00000
 --------------------------------------------------------
       Center         ----  Spin Dipole Couplings  ----
                      3XX-RR        3YY-RR        3ZZ-RR
 --------------------------------------------------------
     1   Atom        0.000000      0.000000     -0.000000
     2   Atom       -0.000000      0.000000      0.000000
     3   Atom       -0.000000      0.000000     -0.000000
     4   Atom        0.000000      0.000000     -0.000000
     5   Atom        0.000000      0.000000     -0.000000
 --------------------------------------------------------
                        XY            XZ            YZ
 --------------------------------------------------------
     1   Atom       -0.000000     -0.000000     -0.000000
     2   Atom        0.000000     -0.000000     -0.000000
     3   Atom        0.000000      0.000000     -0.000000
     4   Atom        0.000000      0.000000     -0.000000
     5   Atom       -0.000000     -0.000000     -0.000000
 --------------------------------------------------------


 ---------------------------------------------------------------------------------
              Anisotropic Spin Dipole Couplings in Principal Axis System
 ---------------------------------------------------------------------------------

       Atom             a.u.   MegaHertz   Gauss  10(-4) cm-1        Axes

              Baa    -0.0000    -0.000    -0.000    -0.000  0.3428  0.4951  0.7984
     1 C(13)  Bbb     0.0000     0.000     0.000     0.000 -0.6561  0.7344 -0.1737
              Bcc     0.0000     0.000     0.000     0.000  0.6724  0.4642 -0.5765
 
              Baa    -0.0000    -0.000    -0.000    -0.000  0.9991  0.0035  0.0418
     2 S(33)  Bbb     0.0000     0.000     0.000     0.000 -0.0203  0.9121  0.4095
              Bcc     0.0000     0.000     0.000     0.000 -0.0367 -0.4100  0.9114
 
              Baa    -0.0000     0.000     0.000     0.000 -0.5440  0.2787  0.7915
     3 O(17)  Bbb     0.0000    -0.000    -0.000    -0.000  0.7940  0.4759  0.3782
              Bcc     0.0000    -0.000    -0.000    -0.000 -0.2713  0.8342 -0.4802
 
              Baa    -0.0000    -0.000    -0.000    -0.000 -0.4303  0.4171  0.8005
     4 H(1)   Bbb     0.0000     0.000     0.000     0.000  0.8664  0.4398  0.2366
              Bcc     0.0000     0.000     0.000     0.000 -0.2533  0.7954 -0.5506
 
              Baa    -0.0000    -0.000    -0.000    -0.000  0.5252  0.4306  0.7340
     5 H(1)   Bbb     0.0000     0.000     0.000     0.000  0.7688 -0.6098 -0.1925
              Bcc     0.0000     0.000     0.000     0.000  0.3647  0.6654 -0.6513
 

 ---------------------------------------------------------------------------------

 No NMR shielding tensors so no spin-rotation constants.
 Leave Link  601 at Tue Jan  3 09:19:30 2023, MaxMem=   536870912 cpu:               0.8 elap:               0.4
 (Enter /opt/software/gaussian/g16.c01/l9999.exe)

 Test job not archived.
 1\1\GINC-GRA607\Stability\UwB97XD\Gen\C1H2O1S1\BHAVUK\03-Jan-2023\0\\#
 p uwb97xd/gen stable=opt scf=(maxcycle=900,verytightlineq,xqc) integra
 l=grid=ultrafine symmetry=None density=current iop(99/18=-1) output=wf
 n\\0005_q000_m01_k00_opt_uwb97xd_def2svpd/0005_q000_m01_k00_force_uwb9
 7xd_def2qzvp stable-force\\0,1\C,0,0.9770245042,-0.0197961728,-0.10082
 73286\S,0,2.5880021429,-0.0345660623,-0.126439068\O,0,3.1712397907,-0.
 7143116203,-1.3164938758\H,0,0.5180717789,0.4715880124,0.7588975415\H,
 0,0.3708017881,-0.4702041579,-0.8890472689\\Version=ES64L-G16RevC.01\H
 F=-512.7134727\S2=0.\S2-1=0.\S2A=0.\RMSD=4.450e-09\Dipole=-0.9400866,0
 .4282313,0.7496314\Quadrupole=-3.7124011,2.4336714,1.2787297,2.76747,4
 .962376,-0.8733557\PG=Unknown\\@

 Writing a WFN file to "0005_q000_m01_k00_force_uwb97xd_def2qzvp.wfn"


 WERE I TO AWAIT PERFECTION, MY BOOK WOULD NEVER BE FINISHED.
                                    -- HISTORY OF CHINESE WRITING

                                       TAI T'UNG, 13TH CENTURY
 Job cpu time:       0 days  0 hours 23 minutes 44.2 seconds.
 Elapsed time:       0 days  0 hours 11 minutes 52.3 seconds.
 File lengths (MBytes):  RWF=    185 Int=      0 D2E=      0 Chk=      9 Scr=      1
 Normal termination of Gaussian 16 at Tue Jan  3 09:19:30 2023.
 Initial command:
 /opt/software/gaussian/g16.c01/l1.exe "/localscratch/bhavuk.2151422.0/Gau-19995.inp" -scrdir="/localscratch/bhavuk.2151422.0/"
 Entering Link 1 = /opt/software/gaussian/g16.c01/l1.exe PID=     24725.
  
 Copyright (c) 1988-2019, Gaussian, Inc.  All Rights Reserved.
  
 This is part of the Gaussian(R) 16 program.  It is based on
 the Gaussian(R) 09 system (copyright 2009, Gaussian, Inc.),
 the Gaussian(R) 03 system (copyright 2003, Gaussian, Inc.),
 the Gaussian(R) 98 system (copyright 1998, Gaussian, Inc.),
 the Gaussian(R) 94 system (copyright 1995, Gaussian, Inc.),
 the Gaussian 92(TM) system (copyright 1992, Gaussian, Inc.),
 the Gaussian 90(TM) system (copyright 1990, Gaussian, Inc.),
 the Gaussian 88(TM) system (copyright 1988, Gaussian, Inc.),
 the Gaussian 86(TM) system (copyright 1986, Carnegie Mellon
 University), and the Gaussian 82(TM) system (copyright 1983,
 Carnegie Mellon University). Gaussian is a federally registered
 trademark of Gaussian, Inc.
  
 This software contains proprietary and confidential information,
 including trade secrets, belonging to Gaussian, Inc.
  
 This software is provided under written license and may be
 used, copied, transmitted, or stored only in accord with that
 written license.
  
 The following legend is applicable only to US Government
 contracts under FAR:
  
                    RESTRICTED RIGHTS LEGEND
  
 Use, reproduction and disclosure by the US Government is
 subject to restrictions as set forth in subparagraphs (a)
 and (c) of the Commercial Computer Software - Restricted
 Rights clause in FAR 52.227-19.
  
 Gaussian, Inc.
 340 Quinnipiac St., Bldg. 40, Wallingford CT 06492
  
  
 ---------------------------------------------------------------
 Warning -- This program may not be used in any manner that
 competes with the business of Gaussian, Inc. or will provide
 assistance to any competitor of Gaussian, Inc.  The licensee
 of this program is prohibited from giving any competitor of
 Gaussian, Inc. access to this program.  By using this program,
 the user acknowledges that Gaussian, Inc. is engaged in the
 business of creating and licensing software in the field of
 computational chemistry and represents and warrants to the
 licensee that it is not a competitor of Gaussian, Inc. and that
 it will not use this program in any manner prohibited above.
 ---------------------------------------------------------------
  

 Cite this work as:
 Gaussian 16, Revision C.01,
 M. J. Frisch, G. W. Trucks, H. B. Schlegel, G. E. Scuseria, 
 M. A. Robb, J. R. Cheeseman, G. Scalmani, V. Barone, 
 G. A. Petersson, H. Nakatsuji, X. Li, M. Caricato, A. V. Marenich, 
 J. Bloino, B. G. Janesko, R. Gomperts, B. Mennucci, H. P. Hratchian, 
 J. V. Ortiz, A. F. Izmaylov, J. L. Sonnenberg, D. Williams-Young, 
 F. Ding, F. Lipparini, F. Egidi, J. Goings, B. Peng, A. Petrone, 
 T. Henderson, D. Ranasinghe, V. G. Zakrzewski, J. Gao, N. Rega, 
 G. Zheng, W. Liang, M. Hada, M. Ehara, K. Toyota, R. Fukuda, 
 J. Hasegawa, M. Ishida, T. Nakajima, Y. Honda, O. Kitao, H. Nakai, 
 T. Vreven, K. Throssell, J. A. Montgomery, Jr., J. E. Peralta, 
 F. Ogliaro, M. J. Bearpark, J. J. Heyd, E. N. Brothers, K. N. Kudin, 
 V. N. Staroverov, T. A. Keith, R. Kobayashi, J. Normand, 
 K. Raghavachari, A. P. Rendell, J. C. Burant, S. S. Iyengar, 
 J. Tomasi, M. Cossi, J. M. Millam, M. Klene, C. Adamo, R. Cammi, 
 J. W. Ochterski, R. L. Martin, K. Morokuma, O. Farkas, 
 J. B. Foresman, and D. J. Fox, Gaussian, Inc., Wallingford CT, 2019.
 
 ******************************************
 Gaussian 16:  ES64L-G16RevC.01  3-Jul-2019
                 3-Jan-2023 
 ******************************************
 %chk=0005_q000_m01_k00_force_uwb97xd_def2qzvp.chk
 %nprocshared=2
 Will use up to    2 processors via shared memory.
 %mem=4GB
 ----------------------------------------------------------------------
 #p uwb97xd/chkbasis force guess=read geom=check scf=(maxcycle=900,very
 tightlineq,xqc) integral=grid=ultrafine symmetry=None density=current 
 pop=(cm5,hlygat,mbs,npa) output=wfx
 ----------------------------------------------------------------------
 1/10=7,29=2,30=1,38=1/1,3;
 2/12=2,15=3,40=1/2;
 3/5=7,6=2,11=2,14=-4,25=1,30=1,67=1,71=1,74=-58,75=-5,116=2/1,2,3;
 4/5=1/1;
 5/5=2,7=900,8=3,13=1,17=3,38=6/2,8;
 6/7=2,8=2,9=2,10=2,15=8,20=15,22=-1,27=100,28=1,40=-1,79=1/1,2,7;
 7/29=1,30=1/1,2,3,16;
 1/10=7,30=1/3;
 99/6=200/99;
 Leave Link    1 at Tue Jan  3 09:19:30 2023, MaxMem=   536870912 cpu:               0.2 elap:               0.1
 (Enter /opt/software/gaussian/g16.c01/l101.exe)
 ----------------------------------------------------------------------
 0005_q000_m01_k00_opt_uwb97xd_def2svpd/0005_q000_m01_k00_force_uwb97xd
 _def2qzvp stable-force
 ----------------------------------------------------------------------
 Structure from the checkpoint file:  "0005_q000_m01_k00_force_uwb97xd_def2qzvp.chk"
 Charge =  0 Multiplicity = 1
 Z-Matrix found in chk file.
 C,0,0.9770245042,-0.0197961728,-0.1008273286
 S,0,2.5880021429,-0.0345660623,-0.126439068
 O,0,3.1712397907,-0.7143116203,-1.3164938758
 H,0,0.5180717789,0.4715880124,0.7588975415
 H,0,0.3708017881,-0.4702041579,-0.8890472689
 Recover connectivity data from disk.
 ITRead=  0  0  0  0  0
 MicOpt= -1 -1 -1 -1 -1
 NAtoms=      5 NQM=        5 NQMF=       0 NMMI=      0 NMMIF=      0
                NMic=       0 NMicF=      0.
                    Isotopes and Nuclear Properties:
 (Nuclear quadrupole moments (NQMom) in fm**2, nuclear magnetic moments (NMagM)
  in nuclear magnetons)

  Atom         1           2           3           4           5
 IAtWgt=          12          32          16           1           1
 AtmWgt=  12.0000000  31.9720718  15.9949146   1.0078250   1.0078250
 NucSpn=           0           0           0           1           1
 AtZEff=   3.6000000  13.6000000   5.6000000   1.0000000   1.0000000
 NQMom=    0.0000000   0.0000000   0.0000000   0.0000000   0.0000000
 NMagM=    0.0000000   0.0000000   0.0000000   2.7928460   2.7928460
 AtZNuc=   6.0000000  16.0000000   8.0000000   1.0000000   1.0000000
 Leave Link  101 at Tue Jan  3 09:19:31 2023, MaxMem=   536870912 cpu:               0.4 elap:               0.2
 (Enter /opt/software/gaussian/g16.c01/l103.exe)

 GradGradGradGradGradGradGradGradGradGradGradGradGradGradGradGradGradGrad
 Berny optimization.
 Initialization pass.
 Trust Radius=3.00D-01 FncErr=1.00D-07 GrdErr=1.00D-07 EigMax=2.50D+02 EigMin=1.00D-04
 Number of steps in this run=      2 maximum allowed number of steps=      2.
 GradGradGradGradGradGradGradGradGradGradGradGradGradGradGradGradGradGrad

 Leave Link  103 at Tue Jan  3 09:19:31 2023, MaxMem=   536870912 cpu:               0.1 elap:               0.0
 (Enter /opt/software/gaussian/g16.c01/l202.exe)
                          Input orientation:                          
 ---------------------------------------------------------------------
 Center     Atomic      Atomic             Coordinates (Angstroms)
 Number     Number       Type             X           Y           Z
 ---------------------------------------------------------------------
      1          6           0        0.977025   -0.019796   -0.100827
      2         16           0        2.588002   -0.034566   -0.126439
      3          8           0        3.171240   -0.714312   -1.316494
      4          1           0        0.518072    0.471588    0.758898
      5          1           0        0.370802   -0.470204   -0.889047
 ---------------------------------------------------------------------
                    Distance matrix (angstroms):
                    1          2          3          4          5
     1  C    0.000000
     2  S    1.611249   0.000000
     3  O    2.602840   1.489446   0.000000
     4  H    1.091432   2.307515   3.571121   0.000000
     5  H    1.091634   2.384812   2.843370   1.903781   0.000000
 Symmetry turned off by external request.
 Stoichiometry    CH2OS
 Rotational constants (GHZ):          39.0370487           9.3459813           7.5406507
 Leave Link  202 at Tue Jan  3 09:19:31 2023, MaxMem=   536870912 cpu:               0.0 elap:               0.0
 (Enter /opt/software/gaussian/g16.c01/l301.exe)
 Basis read from chk: "0005_q000_m01_k00_force_uwb97xd_def2qzvp.chk" (5D, 7F)
 No pseudopotential information found on chk file.
   244 basis functions,   381 primitive gaussians,   300 cartesian basis functions
    16 alpha electrons       16 beta electrons
       nuclear repulsion energy       102.7536228800 Hartrees.
 IExCor= 4639 DFT=T Ex+Corr=wB97XD ExCW=0 ScaHFX=  1.000000
 ScaDFX=  1.000000  1.000000  1.000000  1.000000 ScalE2=  1.000000  1.000000
 IRadAn=      5 IRanWt=     -1 IRanGd=            0 ICorTp=0 IEmpDi=121
 HFx  wShort=  0.000000 wLong=  0.200000 cFull=  0.222036 cShort=  0.000000 cLong=  0.777964
 DFx  wShort=  0.000000 wLong=  0.200000 cFull=  0.000000 cShort=  0.000000 cLong=  1.000000
 NAtoms=    5 NActive=    5 NUniq=    5 SFac= 1.00D+00 NAtFMM=   60 NAOKFM=F Big=F
 Integral buffers will be    131072 words long.
 Raffenetti 2 integral format.
 Two-electron integral symmetry is turned off.
 R6Disp:  Grimme-D2 Dispersion energy=       -0.0005194017 Hartrees.
 Nuclear repulsion after empirical dispersion term =      102.7531034782 Hartrees.
 No density basis found on file  20724.
 Leave Link  301 at Tue Jan  3 09:19:31 2023, MaxMem=   536870912 cpu:               0.1 elap:               0.1
 (Enter /opt/software/gaussian/g16.c01/l302.exe)
 NPDir=0 NMtPBC=     1 NCelOv=     1 NCel=       1 NClECP=     1 NCelD=      1
         NCelK=      1 NCelE2=     1 NClLst=     1 CellRange=     0.0.
 One-electron integrals computed using PRISM.
 NBasis=   244 RedAO= T EigKep=  1.40D-04  NBF=   244
 NBsUse=   244 1.00D-06 EigRej= -1.00D+00 NBFU=   244
 Precomputing XC quadrature grid using
 IXCGrd= 4 IRadAn=           5 IRanWt=          -1 IRanGd=           0 AccXCQ= 0.00D+00.
 Generated NRdTot=       0 NPtTot=           0 NUsed=           0 NTot=          32
 NSgBfM=   298   298   298   298   298 MxSgAt=     5 MxSgA2=     5.
 Leave Link  302 at Tue Jan  3 09:19:31 2023, MaxMem=   536870912 cpu:               0.5 elap:               0.2
 (Enter /opt/software/gaussian/g16.c01/l303.exe)
 DipDrv:  MaxL=1.
 Leave Link  303 at Tue Jan  3 09:19:31 2023, MaxMem=   536870912 cpu:               0.1 elap:               0.1
 (Enter /opt/software/gaussian/g16.c01/l401.exe)
 Initial guess from the checkpoint file:  "0005_q000_m01_k00_force_uwb97xd_def2qzvp.chk"
 B after Tr=     0.000000    0.000000    0.000000
         Rot=    1.000000    0.000000    0.000000    0.000000 Ang=   0.00 deg.
 Guess basis will be translated and rotated to current coordinates.
 JPrj=2 DoOrth=T DoCkMO=T.
 Initial guess <Sx>= 0.0000 <Sy>= 0.0000 <Sz>= 0.0000 <S**2>= 0.0000 S= 0.0000
 Leave Link  401 at Tue Jan  3 09:19:31 2023, MaxMem=   536870912 cpu:               0.4 elap:               0.2
 (Enter /opt/software/gaussian/g16.c01/l502.exe)
 Two-electron integral symmetry not used.
 UHF open shell SCF:
 Using DIIS extrapolation, IDIIS=  1040.
 NGot=   536870912 LenX=   536687186 LenY=   536596745
 Requested convergence on RMS density matrix=1.00D-08 within 128 cycles.
 Requested convergence on MAX density matrix=1.00D-06.
 Requested convergence on             energy=1.00D-06.
 No special actions if energy rises.
 Fock matrices will be formed incrementally for  20 cycles.

 Cycle   1  Pass 1  IDiag  1:
 FoFJK:  IHMeth= 1 ICntrl=       0 DoSepK=T KAlg= 0 I1Cent=           0 FoldK=F
 IRaf=         1 NMat=       1 IRICut=       1 DoRegI=T DoRafI=F ISym2E= 0 IDoP0=0 IntGTp=1.
 FoFCou: FMM=F IPFlag=           0 FMFlag=      100000 FMFlg1=           0
         NFxFlg=           0 DoJE=T BraDBF=F KetDBF=F FulRan=T
         wScrn=  0.000000 ICntrl=       500 IOpCl=  0 I1Cent=           0 NGrid=           0
         NMat0=    1 NMatS0=      1 NMatT0=    0 NMatD0=    1 NMtDS0=    0 NMtDT0=    0
 Symmetry not used in FoFCou.
 E= -512.713472703518    
 DIIS: error= 7.68D-09 at cycle   1 NSaved=   1.
 NSaved= 1 IEnMin= 1 EnMin= -512.713472703518     IErMin= 1 ErrMin= 7.68D-09
 ErrMax= 7.68D-09  0.00D+00 EMaxC= 1.00D-01 BMatC= 6.32D-14 BMatP= 6.32D-14
 IDIUse=1 WtCom= 1.00D+00 WtEn= 0.00D+00
 Coeff-Com:  0.100D+01
 Coeff:      0.100D+01
 Gap=     0.334 Goal=   None    Shift=    0.000
 Gap=     0.334 Goal=   None    Shift=    0.000
 RMSDP=1.47D-09 MaxDP=4.02D-08              OVMax= 9.73D-08

[...]
   124    S    2  g(C3)  Ryd( 5g)     0.00001       3.61914
   125    S    2  g(S3)  Ryd( 5g)     0.00001       3.67482
   126    S    2  g(C4)  Ryd( 5g)     0.00002       3.60823
   127    S    2  g(S4)  Ryd( 5g)     0.00001       3.62061
 
   128    O    3  S      Cor( 1S)     0.99994     -19.05243
   129    O    3  S      Val( 2S)     0.91628      -1.05702
   130    O    3  S      Ryd( 3S)     0.00023       3.64616
   131    O    3  S      Ryd( 4S)     0.00003       5.50042
   132    O    3  S      Ryd( 5S)     0.00000      28.72534
   133    O    3  S      Ryd( 6S)     0.00000      81.64283
   134    O    3  S      Ryd( 7S)     0.00000     198.16136
   135    O    3  px     Val( 2p)     0.89983      -0.36738
   136    O    3  px     Ryd( 3p)     0.00110       0.75064
   137    O    3  px     Ryd( 4p)     0.00002       1.93872
   138    O    3  px     Ryd( 5p)     0.00001       5.06213
   139    O    3  py     Val( 2p)     0.82018      -0.35237
   140    O    3  py     Ryd( 3p)     0.00067       0.72707
   141    O    3  py     Ryd( 4p)     0.00002       1.85787
   142    O    3  py     Ryd( 5p)     0.00001       5.08750
   143    O    3  pz     Val( 2p)     0.78378      -0.36473
   144    O    3  pz     Ryd( 3p)     0.00044       1.05933
   145    O    3  pz     Ryd( 4p)     0.00005       2.22927
   146    O    3  pz     Ryd( 5p)     0.00002       5.35166
   147    O    3  dxy    Ryd( 3d)     0.00201       1.26561
   148    O    3  dxy    Ryd( 4d)     0.00001       4.00790
   149    O    3  dxy    Ryd( 5d)     0.00000      12.12428
   150    O    3  dxz    Ryd( 3d)     0.00470       1.37950
   151    O    3  dxz    Ryd( 4d)     0.00002       4.25860
   152    O    3  dxz    Ryd( 5d)     0.00000      12.23042
   153    O    3  dyz    Ryd( 3d)     0.00541       1.41369
   154    O    3  dyz    Ryd( 4d)     0.00002       4.28346
   155    O    3  dyz    Ryd( 5d)     0.00000      12.24630
   156    O    3  dx2y2  Ryd( 3d)     0.00198       1.26661
   157    O    3  dx2y2  Ryd( 4d)     0.00001       3.98397
   158    O    3  dx2y2  Ryd( 5d)     0.00000      12.12421
   159    O    3  dz2    Ryd( 3d)     0.00581       1.39907
   160    O    3  dz2    Ryd( 4d)     0.00003       4.22457
   161    O    3  dz2    Ryd( 5d)     0.00000      12.23481
   162    O    3  f(0)   Ryd( 4f)     0.00011       4.11824
   163    O    3  f(0)   Ryd( 5f)     0.00000      11.25991
   164    O    3  f(C1)  Ryd( 4f)     0.00013       4.07899
   165    O    3  f(C1)  Ryd( 5f)     0.00000      11.24965
   166    O    3  f(S1)  Ryd( 4f)     0.00013       4.20417
   167    O    3  f(S1)  Ryd( 5f)     0.00000      11.27177
   168    O    3  f(C2)  Ryd( 4f)     0.00010       3.95951
   169    O    3  f(C2)  Ryd( 5f)     0.00000      11.21332
   170    O    3  f(S2)  Ryd( 4f)     0.00012       4.02717
   171    O    3  f(S2)  Ryd( 5f)     0.00000      11.22604
   172    O    3  f(C3)  Ryd( 4f)     0.00003       3.52347
   173    O    3  f(C3)  Ryd( 5f)     0.00000      11.11373
   174    O    3  f(S3)  Ryd( 4f)     0.00003       3.52580
   175    O    3  f(S3)  Ryd( 5f)     0.00000      11.11303
   176    O    3  g(0)   Ryd( 5g)     0.00000       9.13647
   177    O    3  g(C1)  Ryd( 5g)     0.00000       9.13398
   178    O    3  g(S1)  Ryd( 5g)     0.00001       9.15384
   179    O    3  g(C2)  Ryd( 5g)     0.00000       9.13662
   180    O    3  g(S2)  Ryd( 5g)     0.00001       9.15213
   181    O    3  g(C3)  Ryd( 5g)     0.00000       9.09498
   182    O    3  g(S3)  Ryd( 5g)     0.00000       9.09536
   183    O    3  g(C4)  Ryd( 5g)     0.00000       8.99364
   184    O    3  g(S4)  Ryd( 5g)     0.00000       8.99413
 
   185    H    4  S      Val( 1S)     0.37989       0.00929
   186    H    4  S      Ryd( 3S)     0.00024       1.47836
   187    H    4  S      Ryd( 2S)     0.00007       1.42310
   188    H    4  S      Ryd( 4S)     0.00000       5.61047
   189    H    4  px     Ryd( 2p)     0.00036       1.27843
   190    H    4  px     Ryd( 3p)     0.00001       4.20256
   191    H    4  px     Ryd( 4p)     0.00001       7.67328
   192    H    4  py     Ryd( 2p)     0.00023       1.08178
   193    H    4  py     Ryd( 3p)     0.00003       4.13354
   194    H    4  py     Ryd( 4p)     0.00000       7.36299
   195    H    4  pz     Ryd( 2p)     0.00068       1.27094
   196    H    4  pz     Ryd( 3p)     0.00003       4.99356
   197    H    4  pz     Ryd( 4p)     0.00000       7.74739
   198    H    4  dxy    Ryd( 3d)     0.00001       3.86191
   199    H    4  dxy    Ryd( 4d)     0.00000       7.46486
   200    H    4  dxz    Ryd( 3d)     0.00002       4.42208
   201    H    4  dxz    Ryd( 4d)     0.00000       7.77027
   202    H    4  dyz    Ryd( 3d)     0.00002       4.41866
   203    H    4  dyz    Ryd( 4d)     0.00000       7.75480
   204    H    4  dx2y2  Ryd( 3d)     0.00001       4.01422
   205    H    4  dx2y2  Ryd( 4d)     0.00000       7.46820
   206    H    4  dz2    Ryd( 3d)     0.00003       4.52595
   207    H    4  dz2    Ryd( 4d)     0.00000       7.81811
   208    H    4  f(0)   Ryd( 4f)     0.00000       6.77427
   209    H    4  f(C1)  Ryd( 4f)     0.00001       6.65726
   210    H    4  f(S1)  Ryd( 4f)     0.00002       6.64733
   211    H    4  f(C2)  Ryd( 4f)     0.00000       6.57310
   212    H    4  f(S2)  Ryd( 4f)     0.00002       6.47476
   213    H    4  f(C3)  Ryd( 4f)     0.00000       6.34645
   214    H    4  f(S3)  Ryd( 4f)     0.00000       6.33644
 
   215    H    5  S      Val( 1S)     0.37558       0.02211
   216    H    5  S      Ryd( 3S)     0.00042       1.52369
   217    H    5  S      Ryd( 2S)     0.00009       1.20934
   218    H    5  S      Ryd( 4S)     0.00001       5.59820
   219    H    5  px     Ryd( 2p)     0.00055       1.42261
   220    H    5  px     Ryd( 3p)     0.00001       4.07698
   221    H    5  px     Ryd( 4p)     0.00001       8.07015
   222    H    5  py     Ryd( 2p)     0.00027       1.17311
   223    H    5  py     Ryd( 3p)     0.00003       3.54471
   224    H    5  py     Ryd( 4p)     0.00000       7.86354
   225    H    5  pz     Ryd( 2p)     0.00068       1.38939
   226    H    5  pz     Ryd( 3p)     0.00002       4.41930
   227    H    5  pz     Ryd( 4p)     0.00001       8.07253
   228    H    5  dxy    Ryd( 3d)     0.00001       4.40365
   229    H    5  dxy    Ryd( 4d)     0.00000       7.08277
   230    H    5  dxz    Ryd( 3d)     0.00002       4.83667
   231    H    5  dxz    Ryd( 4d)     0.00000       7.37795
   232    H    5  dyz    Ryd( 3d)     0.00001       4.72270
   233    H    5  dyz    Ryd( 4d)     0.00000       7.21743
   234    H    5  dx2y2  Ryd( 3d)     0.00001       4.57751
   235    H    5  dx2y2  Ryd( 4d)     0.00000       7.08685
   236    H    5  dz2    Ryd( 3d)     0.00001       4.86355
   237    H    5  dz2    Ryd( 4d)     0.00000       7.32094
   238    H    5  f(0)   Ryd( 4f)     0.00000       6.71889
   239    H    5  f(C1)  Ryd( 4f)     0.00001       6.65158
   240    H    5  f(S1)  Ryd( 4f)     0.00001       6.61362
   241    H    5  f(C2)  Ryd( 4f)     0.00000       6.56209
   242    H    5  f(S2)  Ryd( 4f)     0.00002       6.43260
   243    H    5  f(C3)  Ryd( 4f)     0.00000       6.44204
   244    H    5  f(S3)  Ryd( 4f)     0.00000       6.41341

 WARNING:  Population inversion found on atom  C    1
           Population inversion found on atom  S    2
           Population inversion found on atom  H    4
           Population inversion found on atom  H    5


 Summary of Natural Population Analysis:                  
                                                          
                                       Natural Population 
                Natural  -----------------------------------------------
    Atom  No    Charge         Core      Valence    Rydberg      Total
 -----------------------------------------------------------------------
      C    1   -0.37636      0.99979     2.36057    0.01601     3.37636
      S    2    0.57918      4.99928     2.34920    0.07234     7.42082
      O    3   -0.44330      0.99994     3.42008    0.02329     4.44330
      H    4    0.11829      0.00000     0.37989    0.00182     0.38171
      H    5    0.12220      0.00000     0.37558    0.00222     0.37780
 =======================================================================
   * Total *    0.00000      6.99901     8.88532    0.11567    16.00000

                                 Natural Population      
 --------------------------------------------------------
   Core                       6.99901 ( 99.9858% of   7)
   Valence                    8.88532 ( 98.7258% of   9)
   Natural Minimal Basis     15.88433 ( 99.2770% of  16)
   Natural Rydberg Basis      0.11567 (  0.7230% of  16)
 --------------------------------------------------------

    Atom  No          Natural Electron Configuration
 ----------------------------------------------------------------------------
      C    1      [core]2S( 0.60)2p( 1.76)3p( 0.01)3d( 0.01)
      S    2      [core]3S( 0.78)3p( 1.57)4S( 0.02)3d( 0.05)4p( 0.01)
      O    3      [core]2S( 0.92)2p( 2.50)3d( 0.02)
      H    4            1S( 0.38)
      H    5            1S( 0.38)


 NBO analysis skipped by request.
 Leave Link  607 at Tue Jan  3 09:19:53 2023, MaxMem=   536870912 cpu:               3.8 elap:               1.9
 (Enter /opt/software/gaussian/g16.c01/l701.exe)
 ... and contract with generalized density number  0.
 Compute integral first derivatives.
 R6Disp: Adding Grimme-D2 dispersion energy 1st derivatives to the gradient.
 Leave Link  701 at Tue Jan  3 09:19:54 2023, MaxMem=   536870912 cpu:               0.5 elap:               0.2
 (Enter /opt/software/gaussian/g16.c01/l702.exe)
 L702 exits ... SP integral derivatives will be done elsewhere.
 Leave Link  702 at Tue Jan  3 09:19:54 2023, MaxMem=   536870912 cpu:               0.1 elap:               0.0
 (Enter /opt/software/gaussian/g16.c01/l703.exe)
 Integral derivatives from FoFJK, PRISM(SPDF).
 Compute integral first derivatives, UseDBF=F ICtDFT=           0.
 Calling FoFJK, ICntrl=      2127 FMM=F ISym2X=0 I1Cent= 0 IOpClX= 1 NMat=1 NMatS=1 NMatT=0.
 FoFJK:  IHMeth= 1 ICntrl=    2127 DoSepK=T KAlg= 0 I1Cent=           0 FoldK=F
 IRaf=         1 NMat=       1 IRICut=       1 DoRegI=T DoRafI=F ISym2E= 0 IDoP0=0 IntGTp=1.
 FoFCou: FMM=F IPFlag=           0 FMFlag=      100000 FMFlg1=         800
         NFxFlg=           0 DoJE=F BraDBF=F KetDBF=F FulRan=T
         wScrn=  0.000000 ICntrl=      2527 IOpCl=  0 I1Cent=           0 NGrid=           0
         NMat0=    1 NMatS0=      1 NMatT0=    0 NMatD0=    1 NMtDS0=    0 NMtDT0=    0
 Symmetry not used in FoFCou.
 Leave Link  703 at Tue Jan  3 09:21:28 2023, MaxMem=   536870912 cpu:             189.3 elap:              94.7
 (Enter /opt/software/gaussian/g16.c01/l716.exe)
 Dipole        =-9.40086943D-01 4.28231442D-01 7.49631674D-01
 -------------------------------------------------------------------
 Center     Atomic                   Forces (Hartrees/Bohr)
 Number     Number              X              Y              Z
 -------------------------------------------------------------------
      1        6           0.006160425    0.000517679    0.000908609
      2       16          -0.001064588   -0.015694703   -0.027484439
      3        8          -0.011840119    0.015292948    0.026771666
      4        1           0.002809616   -0.003253736   -0.005675247
      5        1           0.003934665    0.003137812    0.005479410
 -------------------------------------------------------------------
 Cartesian Forces:  Max     0.027484439 RMS     0.012216713
 Z-matrix is all fixed cartesians, so copy forces.
 Force constants in Cartesian coordinates: 
                1             2             3             4             5 
      1  0.829676D+00
      2  0.511240D-02  0.243810D+00
      3  0.905768D-02  0.234956D+00  0.520669D+00
      4 -0.491409D+00 -0.959762D-02 -0.168745D-01  0.641682D+00
      5  0.287596D-02 -0.491361D-01 -0.278604D-01 -0.128355D+00  0.207963D+00
      6  0.496707D-02 -0.278624D-01 -0.819862D-01 -0.224638D+00  0.320470D+00
      7  0.492524D-03  0.133103D-01  0.233039D-01 -0.150309D+00  0.124519D+00
      8  0.104201D-03  0.602149D-02  0.308174D-02  0.137725D+00 -0.180658D+00
      9  0.181864D-03  0.308386D-02  0.966084D-02  0.241117D+00 -0.294338D+00
     10 -0.151987D+00  0.492920D-01  0.862296D-01  0.424157D-03  0.114682D-01
     11  0.447359D-01 -0.101753D+00 -0.113561D+00  0.975664D-04  0.365001D-02
     12  0.782568D-01 -0.113560D+00 -0.235538D+00  0.170666D-03  0.403592D-02
     13 -0.186773D+00 -0.581171D-01 -0.101717D+00 -0.388712D-03 -0.105080D-01
     14 -0.528284D-01 -0.989424D-01 -0.966159D-01  0.130067D-03  0.181809D-01
     15 -0.924634D-01 -0.966168D-01 -0.212806D+00  0.224637D-03 -0.230723D-02
                6             7             8             9            10 
      6  0.585965D+00
      7  0.217995D+00  0.149816D+00
      8 -0.294336D+00 -0.137829D+00  0.174946D+00
      9 -0.527847D+00 -0.241299D+00  0.291077D+00  0.518287D+00
     10  0.200660D-01  0.000000D+00  0.000000D+00  0.000000D+00  0.123189D+00
     11  0.403202D-02  0.000000D+00  0.453529D-02 -0.259031D-02 -0.513576D-01
     12  0.840740D-02  0.000000D+00 -0.259199D-02  0.148040D-02 -0.898457D-01
     13 -0.183902D-01  0.000000D+00  0.000000D+00  0.000000D+00  0.283742D-01
     14 -0.230345D-02  0.000000D+00 -0.484560D-02  0.276754D-02 -0.940299D-02
     15  0.154602D-01  0.000000D+00  0.276920D-02 -0.158162D-02 -0.164496D-01
               11            12            13            14            15 
     11  0.877574D-01
     12  0.120457D+00  0.229666D+00
     13  0.652373D-02  0.114185D-01  0.158787D+00
     14  0.581069D-02 -0.834082D-02  0.621018D-01  0.797964D-01
     15 -0.833779D-02 -0.401584D-02  0.108688D+00  0.104493D+00  0.202943D+00
 Leave Link  716 at Tue Jan  3 09:21:29 2023, MaxMem=   536870912 cpu:               0.1 elap:               0.1
 (Enter /opt/software/gaussian/g16.c01/l103.exe)

 GradGradGradGradGradGradGradGradGradGradGradGradGradGradGradGradGradGrad
 Berny optimization.
 Search for a local minimum.
 Step number   1 out of a maximum of    2
 All quantities printed in internal units (Hartrees-Bohrs-Radians)
 Second derivative matrix not updated -- first step.
 The second derivative matrix:
                          X1        Y1        Z1        X2        Y2
           X1           0.82968
           Y1           0.00511   0.24381
           Z1           0.00906   0.23496   0.52067
           X2          -0.49141  -0.00960  -0.01687   0.64168
           Y2           0.00288  -0.04914  -0.02786  -0.12836   0.20796
           Z2           0.00497  -0.02786  -0.08199  -0.22464   0.32047
           X3           0.00049   0.01331   0.02330  -0.15031   0.12452
           Y3           0.00010   0.00602   0.00308   0.13773  -0.18066
           Z3           0.00018   0.00308   0.00966   0.24112  -0.29434
           X4          -0.15199   0.04929   0.08623   0.00042   0.01147
           Y4           0.04474  -0.10175  -0.11356   0.00010   0.00365
           Z4           0.07826  -0.11356  -0.23554   0.00017   0.00404
           X5          -0.18677  -0.05812  -0.10172  -0.00039  -0.01051
           Y5          -0.05283  -0.09894  -0.09662   0.00013   0.01818
           Z5          -0.09246  -0.09662  -0.21281   0.00022  -0.00231
                          Z2        X3        Y3        Z3        X4
           Z2           0.58597
           X3           0.21800   0.14982
           Y3          -0.29434  -0.13783   0.17495
           Z3          -0.52785  -0.24130   0.29108   0.51829
           X4           0.02007   0.00000   0.00000  -0.00000   0.12319
           Y4           0.00403   0.00000   0.00454  -0.00259  -0.05136
           Z4           0.00841  -0.00000  -0.00259   0.00148  -0.08985
           X5          -0.01839  -0.00000  -0.00000   0.00000   0.02837
           Y5          -0.00230  -0.00000  -0.00485   0.00277  -0.00940
           Z5           0.01546   0.00000   0.00277  -0.00158  -0.01645
                          Y4        Z4        X5        Y5        Z5
           Y4           0.08776
           Z4           0.12046   0.22967
           X5           0.00652   0.01142   0.15879
           Y5           0.00581  -0.00834   0.06210   0.07980
           Z5          -0.00834  -0.00402   0.10869   0.10449   0.20294
 ITU=  0
     Eigenvalues ---    0.02243   0.03701   0.09811   0.12281   0.16471
     Eigenvalues ---    0.34496   0.86201   1.16715   1.68793
 Angle between quadratic step and forces=  42.92 degrees.
 Linear search not attempted -- first point.
 B after Tr=    -0.007796   -0.002130   -0.003747
         Rot=    1.000000    0.000038    0.000366   -0.000224 Ang=   0.05 deg.
 Variable       Old X    -DE/DX   Delta X   Delta X   Delta X     New X
                                 (Linear)    (Quad)   (Total)
    X1        1.84631   0.00616   0.00000   0.01321   0.00558   1.85188
    Y1       -0.03741   0.00052   0.00000  -0.00176  -0.00307  -0.04048
    Z1       -0.19054   0.00091   0.00000  -0.00310  -0.00549  -0.19602
    X2        4.89062  -0.00106   0.00000  -0.01332  -0.02089   4.86972
    Y2       -0.06532  -0.01569   0.00000  -0.00909  -0.00906  -0.07438
    Z2       -0.23894  -0.02748   0.00000  -0.01617  -0.01634  -0.25527
    X3        5.99277  -0.01184   0.00000  -0.00833  -0.01373   5.97905
    Y3       -1.34985   0.01529   0.00000   0.01389   0.01426  -1.33560
    Z3       -2.48781   0.02677   0.00000   0.02460   0.02534  -2.46248
    X4        0.97901   0.00281   0.00000   0.03004   0.02081   0.99982
    Y4        0.89117  -0.00325   0.00000  -0.00943  -0.01100   0.88017
    Z4        1.43411  -0.00568   0.00000  -0.01581  -0.01889   1.41522
    X5        0.70071   0.00393   0.00000   0.01442   0.00824   0.70895
    Y5       -0.88856   0.00314   0.00000   0.01081   0.00888  -0.87968
    Z5       -1.68006   0.00548   0.00000   0.01853   0.01537  -1.66468
         Item               Value     Threshold  Converged?
 Maximum Force            0.027484     0.000450     NO 
 RMS     Force            0.012217     0.000300     NO 
 Maximum Displacement     0.025336     0.001800     NO 
 RMS     Displacement     0.014568     0.001200     NO 
 Predicted change in Energy=-1.022832D-03
 GradGradGradGradGradGradGradGradGradGradGradGradGradGradGradGradGradGrad

 Leave Link  103 at Tue Jan  3 09:21:29 2023, MaxMem=   536870912 cpu:               0.2 elap:               0.1
 (Enter /opt/software/gaussian/g16.c01/l9999.exe)
 Unable to Open any file for archive entry.
 1\1\GINC-GRA607\Force\UwB97XD\Gen\C1H2O1S1\BHAVUK\03-Jan-2023\0\\#p uw
 b97xd/chkbasis force guess=read geom=check scf=(maxcycle=900,verytight
 lineq,xqc) integral=grid=ultrafine symmetry=None density=current pop=(
 cm5,hlygat,mbs,npa) output=wfx\\0005_q000_m01_k00_opt_uwb97xd_def2svpd
 /0005_q000_m01_k00_force_uwb97xd_def2qzvp stable-force\\0,1\C,0.977024
 5042,-0.0197961728,-0.1008273286\S,2.5880021429,-0.0345660623,-0.12643
 9068\O,3.1712397907,-0.7143116203,-1.3164938758\H,0.5180717789,0.47158
 80124,0.7588975415\H,0.3708017881,-0.4702041579,-0.8890472689\\Version
 =ES64L-G16RevC.01\HF=-512.7134727\S2=0.\S2-1=0.\S2A=0.\RMSD=1.472e-09\
 RMSF=1.222e-02\Dipole=-0.9400869,0.4282314,0.7496317\Quadrupole=-3.712
 403,2.4336727,1.2787304,2.7674707,4.9623771,-0.8733563\PG=Unknown\\@
 The archive entry for this job was punched.

 Writing a WFNX file to "0005_q000_m01_k00_force_uwb97xd_def2qzvp.wfx"


 The number of Unix installations has grown to 10,
  with more expected.
                  -- The Unix Programmer's Manual,
                     2nd Edition, June, 1972.
 Job cpu time:       0 days  0 hours  3 minutes 56.1 seconds.
 Elapsed time:       0 days  0 hours  1 minutes 57.9 seconds.
 File lengths (MBytes):  RWF=     61 Int=      0 D2E=      0 Chk=      9 Scr=      1
 Normal termination of Gaussian 16 at Tue Jan  3 09:21:29 2023.
