 Entering Gaussian System, Link 0=g16
 Input=0001_q000_m01_k00_force_uhf_def2qzvp.com
 Output=0001_q000_m01_k00_force_uhf_def2qzvp.log
 Initial command:
 /opt/software/gaussian/g16.c01/l1.exe "/localscratch/bhavuk.2151338.0/Gau-12878.inp" -scrdir="/localscratch/bhavuk.2151338.0/"
 Entering Link 1 = /opt/software/gaussian/g16.c01/l1.exe PID=     12879.
  
 Copyright (c) 1988-2019, Gaussian, Inc.  All Rights Reserved.
  
 This is part of the Gaussian(R) 16 program.  It is based on
 the Gaussian(R) 09 system (copyright 2009, Gaussian, Inc.),
 the Gaussian(R) 03 system (copyright 2003, Gaussian, Inc.),
 the Gaussian(R) 98 system (copyright 1998, Gaussian, Inc.),
 the Gaussian(R) 94 system (copyright 1995, Gaussian, Inc.),
 the Gaussian 92(TM) system (copyright 1992, Gaussian, Inc.),
 the Gaussian 90(TM) system (copyright 1990, Gaussian, Inc.),
 the Gaussian 88(TM) system (copyright 1988, Gaussian, Inc.),
 the Gaussian 86(TM) system (copyright 1986, Carnegie Mellon
 University), and the Gaussian 82(TM) system (copyright 1983,
 Carnegie Mellon University). Gaussian is a federally registered
 trademark of Gaussian, Inc.
  
 This software contains proprietary and confidential information,
 including trade secrets, belonging to Gaussian, Inc.
  
 This software is provided under written license and may be
 used, copied, transmitted, or stored only in accord with that
 written license.
  
 The following legend is applicable only to US Government
 contracts under FAR:
  
                    RESTRICTED RIGHTS LEGEND
  
 Use, reproduction and disclosure by the US Government is
 subject to restrictions as set forth in subparagraphs (a)
 and (c) of the Commercial Computer Software - Restricted
 Rights clause in FAR 52.227-19.
  
 Gaussian, Inc.
 340 Quinnipiac St., Bldg. 40, Wallingford CT 06492
  
  
 ---------------------------------------------------------------
 Warning -- This program may not be used in any manner that
 competes with the business of Gaussian, Inc. or will provide
 assistance to any competitor of Gaussian, Inc.  The licensee
 of this program is prohibited from giving any competitor of
 Gaussian, Inc. access to this program.  By using this program,
 the user acknowledges that Gaussian, Inc. is engaged in the
 business of creating and licensing software in the field of
 computational chemistry and represents and warrants to the
 licensee that it is not a competitor of Gaussian, Inc. and that
 it will not use this program in any manner prohibited above.
 ---------------------------------------------------------------
  

 Cite this work as:
 Gaussian 16, Revision C.01,
 M. J. Frisch, G. W. Trucks, H. B. Schlegel, G. E. Scuseria, 
 M. A. Robb, J. R. Cheeseman, G. Scalmani, V. Barone, 
 G. A. Petersson, H. Nakatsuji, X. Li, M. Caricato, A. V. Marenich, 
 J. Bloino, B. G. Janesko, R. Gomperts, B. Mennucci, H. P. Hratchian, 
 J. V. Ortiz, A. F. Izmaylov, J. L. Sonnenberg, D. Williams-Young, 
 F. Ding, F. Lipparini, F. Egidi, J. Goings, B. Peng, A. Petrone, 
 T. Henderson, D. Ranasinghe, V. G. Zakrzewski, J. Gao, N. Rega, 
 G. Zheng, W. Liang, M. Hada, M. Ehara, K. Toyota, R. Fukuda, 
 J. Hasegawa, M. Ishida, T. Nakajima, Y. Honda, O. Kitao, H. Nakai, 
 T. Vreven, K. Throssell, J. A. Montgomery, Jr., J. E. Peralta, 
 F. Ogliaro, M. J. Bearpark, J. J. Heyd, E. N. Brothers, K. N. Kudin, 
 V. N. Staroverov, T. A. Keith, R. Kobayashi, J. Normand, 
 K. Raghavachari, A. P. Rendell, J. C. Burant, S. S. Iyengar, 
 J. Tomasi, M. Cossi, J. M. Millam, M. Klene, C. Adamo, R. Cammi, 
 J. W. Ochterski, R. L. Martin, K. Morokuma, O. Farkas, 
 J. B. Foresman, and D. J. Fox, Gaussian, Inc., Wallingford CT, 2019.
 
 ******************************************
 Gaussian 16:  ES64L-G16RevC.01  3-Jul-2019
                 3-Jan-2023 
 ******************************************
 %chk=0001_q000_m01_k00_force_uhf_def2qzvp.chk
 %nprocshared=2
 Will use up to    2 processors via shared memory.
 %mem=4GB
 ----------------------------------------------------------------------
 #p uhf/gen stable=opt scf=(maxcycle=900,verytightlineq,xqc) integral=g
 rid=ultrafine symmetry=None density=current iop(99/18=-1) output=wfn
 ----------------------------------------------------------------------
 1/38=1,172=1/1;
 2/12=2,15=3,17=6,18=5,40=1/2;
 3/5=7,11=2,25=1,30=1,75=-5,116=2/1,2,3;
 4//1;
 5/5=2,7=900,8=3,13=1,17=3,38=5/2,8;
 6/7=2,8=2,9=2,10=2,22=-1,28=1/1;
 8/6=1,10=90,11=11/1;
 9/8=-3,42=1,46=1/14;
 5/5=2,7=900,8=3,17=43,38=5/8(-2);
 6/7=2,8=2,9=2,10=2,22=-1,28=1/1;
 99/5=1,6=100,9=1,18=-1/99;
 Leave Link    1 at Tue Jan  3 09:03:26 2023, MaxMem=   536870912 cpu:               0.4 elap:               0.3
 (Enter /opt/software/gaussian/g16.c01/l101.exe)
 ----------------------------------------------------------------------
 0001_q000_m01_k00_opt_uwb97xd_def2svpd/0001_q000_m01_k00_force_uhf_def
 2qzvp stable-force
 ----------------------------------------------------------------------
 Symbolic Z-matrix:
 Charge =  0 Multiplicity = 1
 C                     1.07262  -0.0702   -0.15301 
 N                     2.37794  -0.08975  -0.25439 
 N                     3.08336  -0.36847  -1.30873 
 H                     4.06405  -0.29267  -1.04764 
 H                     0.63996   0.18515   0.80853 
 H                     0.48304  -0.30998  -1.03372 
 H                     2.8675    0.14588   0.61313 
 
 ITRead=  0  0  0  0  0  0  0
 MicOpt= -1 -1 -1 -1 -1 -1 -1
 NAtoms=      7 NQM=        7 NQMF=       0 NMMI=      0 NMMIF=      0
                NMic=       0 NMicF=      0.
                    Isotopes and Nuclear Properties:
 (Nuclear quadrupole moments (NQMom) in fm**2, nuclear magnetic moments (NMagM)
  in nuclear magnetons)

  Atom         1           2           3           4           5           6           7
 IAtWgt=          12          14          14           1           1           1           1
 AtmWgt=  12.0000000  14.0030740  14.0030740   1.0078250   1.0078250   1.0078250   1.0078250
 NucSpn=           0           2           2           1           1           1           1
 AtZEff=  -0.0000000  -0.0000000  -0.0000000  -0.0000000  -0.0000000  -0.0000000  -0.0000000
 NQMom=    0.0000000   2.0440000   2.0440000   0.0000000   0.0000000   0.0000000   0.0000000
 NMagM=    0.0000000   0.4037610   0.4037610   2.7928460   2.7928460   2.7928460   2.7928460
 AtZNuc=   6.0000000   7.0000000   7.0000000   1.0000000   1.0000000   1.0000000   1.0000000
 Leave Link  101 at Tue Jan  3 09:03:26 2023, MaxMem=   536870912 cpu:               0.5 elap:               0.3
 (Enter /opt/software/gaussian/g16.c01/l202.exe)
                          Input orientation:                          
 ---------------------------------------------------------------------
 Center     Atomic      Atomic             Coordinates (Angstroms)
 Number     Number       Type             X           Y           Z
 ---------------------------------------------------------------------
      1          6           0        1.072617   -0.070199   -0.153013
      2          7           0        2.377944   -0.089746   -0.254385
      3          7           0        3.083355   -0.368470   -1.308729
      4          1           0        4.064049   -0.292670   -1.047637
      5          1           0        0.639963    0.185154    0.808526
      6          1           0        0.483044   -0.309980   -1.033725
      7          1           0        2.867498    0.145880    0.613132
 ---------------------------------------------------------------------
                    Distance matrix (angstroms):
                    1          2          3          4          5
     1  C    0.000000
     2  N    1.309403   0.000000
     3  N    2.338315   1.298820   0.000000
     4  H    3.130258   1.874401   1.017681   0.000000
     5  H    1.084874   2.055706   3.280158   3.924032   0.000000
     6  H    1.086621   2.060708   2.615467   3.581074   1.914071
     7  H    1.963483   1.023606   2.001175   2.093374   2.236433
                    6          7
     6  H    0.000000
     7  H    2.933525   0.000000
 Symmetry turned off by external request.
 Stoichiometry    CH4N2
 Rotational constants (GHZ):          71.2642239          11.2793619           9.7380671
 Leave Link  202 at Tue Jan  3 09:03:26 2023, MaxMem=   536870912 cpu:               0.0 elap:               0.0
 (Enter /opt/software/gaussian/g16.c01/l301.exe)
 General basis read from cards:  (5D, 7F)
 Centers:       4      5      6      7
 S 4 1.00
     Exponent=  1.9069169000D+02 Coefficients=  7.0815167000D-04
     Exponent=  2.8605532000D+01 Coefficients=  5.4678827000D-03
     Exponent=  6.5095943000D+00 Coefficients=  2.7966605000D-02
     Exponent=  1.8412455000D+00 Coefficients=  1.0764538000D-01
 S 1 1.00
     Exponent=  5.9853725000D-01 Coefficients=  1.0000000000D+00
 S 1 1.00
     Exponent=  2.1397624000D-01 Coefficients=  1.0000000000D+00
 S 1 1.00
     Exponent=  8.0316286000D-02 Coefficients=  1.0000000000D+00
 P 1 1.00
     Exponent=  2.2920000000D+00 Coefficients=  1.0000000000D+00
 P 1 1.00
     Exponent=  8.3800000000D-01 Coefficients=  1.0000000000D+00
 P 1 1.00
     Exponent=  2.9200000000D-01 Coefficients=  1.0000000000D+00
 D 1 1.00
     Exponent=  2.0620000000D+00 Coefficients=  1.0000000000D+00
 D 1 1.00
     Exponent=  6.6200000000D-01 Coefficients=  1.0000000000D+00
 F 1 1.00
     Exponent=  1.3970000000D+00 Coefficients=  1.0000000000D+00
 ****
 Centers:       1
 S 8 1.00
     Exponent=  6.7025071029D+04 Coefficients=  3.8736308501D-05
     Exponent=  1.0039986538D+04 Coefficients=  3.0107917575D-04
     Exponent=  2.2849316911D+03 Coefficients=  1.5787918095D-03
     Exponent=  6.4714122130D+02 Coefficients=  6.6087087195D-03
     Exponent=  2.1109472335D+02 Coefficients=  2.3367123250D-02
     Exponent=  7.6177643862D+01 Coefficients=  7.0420716898D-02
     Exponent=  2.9633839163D+01 Coefficients=  1.7360344953D-01
     Exponent=  1.2187785081D+01 Coefficients=  3.2292305648D-01
 S 2 1.00
     Exponent=  5.3026006299D+01 Coefficients=  7.4897404492D-02
     Exponent=  1.5258502776D+01 Coefficients=  7.6136220983D-01
 S 1 1.00
     Exponent=  5.2403957464D+00 Coefficients=  1.0000000000D+00
 S 1 1.00
     Exponent=  2.2905022379D+00 Coefficients=  1.0000000000D+00
 S 1 1.00
     Exponent=  6.9673283006D-01 Coefficients=  1.0000000000D+00
 S 1 1.00
     Exponent=  2.7599337363D-01 Coefficients=  1.0000000000D+00
 S 1 1.00
     Exponent=  1.0739884389D-01 Coefficients=  1.0000000000D+00
 P 5 1.00
     Exponent=  1.0512555082D+02 Coefficients=  8.4647553844D-04
     Exponent=  2.4884461066D+01 Coefficients=  6.6274038534D-03
     Exponent=  7.8637230826D+00 Coefficients=  3.0120390419D-02
     Exponent=  2.8407001835D+00 Coefficients=  9.9951435476D-02
     Exponent=  1.1227137335D+00 Coefficients=  2.3826299282D-01
 P 1 1.00
     Exponent=  4.6050725555D-01 Coefficients=  1.0000000000D+00
 P 1 1.00
     Exponent=  1.8937530913D-01 Coefficients=  1.0000000000D+00
 P 1 1.00
     Exponent=  7.5983791611D-02 Coefficients=  1.0000000000D+00
 D 1 1.00
     Exponent=  1.8480000000D+00 Coefficients=  1.0000000000D+00
 D 1 1.00
     Exponent=  6.4900000000D-01 Coefficients=  1.0000000000D+00
 D 1 1.00
     Exponent=  2.2800000000D-01 Coefficients=  1.0000000000D+00
 F 1 1.00
     Exponent=  1.4190000000D+00 Coefficients=  1.0000000000D+00
 F 1 1.00
     Exponent=  4.8500000000D-01 Coefficients=  1.0000000000D+00
 G 1 1.00
     Exponent=  1.0110000000D+00 Coefficients=  1.0000000000D+00
 ****
 Centers:       2      3
 S 8 1.00
     Exponent=  9.0726889210D+04 Coefficients=  3.9257887368D-05
     Exponent=  1.3590528801D+04 Coefficients=  3.0513316455D-04
     Exponent=  3.0929883781D+03 Coefficients=  1.6000560446D-03
     Exponent=  8.7599876362D+02 Coefficients=  6.6982937306D-03
     Exponent=  2.8574469982D+02 Coefficients=  2.3690078765D-02
     Exponent=  1.0311913417D+02 Coefficients=  7.1455405268D-02
     Exponent=  4.0128556777D+01 Coefficients=  1.7632774876D-01
     Exponent=  1.6528095704D+01 Coefficients=  3.2677592815D-01
 S 2 1.00
     Exponent=  6.9390960983D+01 Coefficients=  8.0052094386D-02
     Exponent=  2.0428200596D+01 Coefficients=  7.8268063538D-01
 S 1 1.00
     Exponent=  7.1292587972D+00 Coefficients=  1.0000000000D+00
 S 1 1.00
     Exponent=  3.1324304893D+00 Coefficients=  1.0000000000D+00
 S 1 1.00
     Exponent=  9.8755778723D-01 Coefficients=  1.0000000000D+00
 S 1 1.00
     Exponent=  3.8765721307D-01 Coefficients=  1.0000000000D+00
 S 1 1.00
     Exponent=  1.4909883075D-01 Coefficients=  1.0000000000D+00
 P 5 1.00
     Exponent=  1.5005742670D+02 Coefficients= -8.6216165986D-04
     Exponent=  3.5491599483D+01 Coefficients= -6.8571273236D-03
     Exponent=  1.1247864223D+01 Coefficients= -3.1795688855D-02
     Exponent=  4.0900305195D+00 Coefficients= -1.0537396822D-01
     Exponent=  1.6220573146D+00 Coefficients= -2.4519708041D-01
 P 1 1.00
     Exponent=  6.6442261530D-01 Coefficients=  1.0000000000D+00
 P 1 1.00
     Exponent=  2.7099770070D-01 Coefficients=  1.0000000000D+00
 P 1 1.00
     Exponent=  1.0688749984D-01 Coefficients=  1.0000000000D+00
 D 1 1.00
     Exponent=  2.8370000000D+00 Coefficients=  1.0000000000D+00
 D 1 1.00
     Exponent=  9.6800000000D-01 Coefficients=  1.0000000000D+00
 D 1 1.00
     Exponent=  3.3500000000D-01 Coefficients=  1.0000000000D+00
 F 1 1.00
     Exponent=  2.0270000000D+00 Coefficients=  1.0000000000D+00
 F 1 1.00
     Exponent=  6.8500000000D-01 Coefficients=  1.0000000000D+00
 G 1 1.00
     Exponent=  1.4270000000D+00 Coefficients=  1.0000000000D+00
 ****
 Ernie: Thresh=  0.10000D-02 Tol=  0.10000D-05 Strict=F.
   291 basis functions,   428 primitive gaussians,   356 cartesian basis functions
    12 alpha electrons       12 beta electrons
       nuclear repulsion energy        73.3825490640 Hartrees.
 IExCor=    0 DFT=F Ex=HF Corr=None ExCW=0 ScaHFX=  1.000000
 ScaDFX=  1.000000  1.000000  1.000000  1.000000 ScalE2=  1.000000  1.000000
 IRadAn=      5 IRanWt=     -1 IRanGd=            0 ICorTp=0 IEmpDi=  4
 NAtoms=    7 NActive=    7 NUniq=    7 SFac= 1.00D+00 NAtFMM=   60 NAOKFM=F Big=F
 Integral buffers will be    131072 words long.
 Raffenetti 2 integral format.
 Two-electron integral symmetry is turned off.
 Leave Link  301 at Tue Jan  3 09:03:27 2023, MaxMem=   536870912 cpu:               0.2 elap:               0.1
 (Enter /opt/software/gaussian/g16.c01/l302.exe)
 NPDir=0 NMtPBC=     1 NCelOv=     1 NCel=       1 NClECP=     1 NCelD=      1
         NCelK=      1 NCelE2=     1 NClLst=     1 CellRange=     0.0.
 One-electron integrals computed using PRISM.
 NBasis=   291 RedAO= T EigKep=  1.01D-04  NBF=   291
 NBsUse=   291 1.00D-06 EigRej= -1.00D+00 NBFU=   291
 Leave Link  302 at Tue Jan  3 09:03:27 2023, MaxMem=   536870912 cpu:               0.5 elap:               0.2
 (Enter /opt/software/gaussian/g16.c01/l303.exe)
 DipDrv:  MaxL=1.
 Leave Link  303 at Tue Jan  3 09:03:27 2023, MaxMem=   536870912 cpu:               0.1 elap:               0.1
 (Enter /opt/software/gaussian/g16.c01/l401.exe)
 ExpMin= 7.60D-02 ExpMax= 9.07D+04 ExpMxC= 8.76D+02 IAcc=3 IRadAn=         5 AccDes= 0.00D+00
 Harris functional with IExCor=  205 and IRadAn=       5 diagonalized for initial guess.
 HarFok:  IExCor=  205 AccDes= 0.00D+00 IRadAn=         5 IDoV= 1 UseB2=F ITyADJ=14
 ICtDFT=  3500011 ScaDFX=  1.000000  1.000000  1.000000  1.000000
 FoFCou: FMM=F IPFlag=           0 FMFlag=      100000 FMFlg1=           0
         NFxFlg=           0 DoJE=T BraDBF=F KetDBF=T FulRan=T
         wScrn=  0.000000 ICntrl=       500 IOpCl=  0 I1Cent=   200000004 NGrid=           0
         NMat0=    1 NMatS0=      1 NMatT0=    0 NMatD0=    1 NMtDS0=    0 NMtDT0=    0
 Symmetry not used in FoFCou.
 Harris En= -149.285323373813    
 JPrj=0 DoOrth=F DoCkMO=F.
 Initial guess <Sx>= 0.0000 <Sy>= 0.0000 <Sz>= 0.0000 <S**2>=-0.0000 S=-0.0000
 Leave Link  401 at Tue Jan  3 09:03:28 2023, MaxMem=   536870912 cpu:               2.1 elap:               1.0
 (Enter /opt/software/gaussian/g16.c01/l502.exe)
 Two-electron integral symmetry not used.
 UHF open shell SCF:
 Using DIIS extrapolation, IDIIS=  1040.
 NGot=   536870912 LenX=   536612994 LenY=   536485817
 Requested convergence on RMS density matrix=1.00D-08 within 128 cycles.
 Requested convergence on MAX density matrix=1.00D-06.
 Requested convergence on             energy=1.00D-06.
 No special actions if energy rises.
 Fock matrices will be formed incrementally for  20 cycles.
 Integral accuracy reduced to 1.0D-05 until final iterations.

 Cycle   1  Pass 0  IDiag  1:
 FoFJK:  IHMeth= 1 ICntrl=       0 DoSepK=F KAlg= 0 I1Cent=           0 FoldK=F
 IRaf= 980000000 NMat=       1 IRICut=       1 DoRegI=T DoRafI=F ISym2E= 0 IDoP0=0 IntGTp=1.
 FoFCou: FMM=F IPFlag=           0 FMFlag=      100000 FMFlg1=           0
         NFxFlg=           0 DoJE=F BraDBF=F KetDBF=F FulRan=T
         wScrn=  0.000000 ICntrl=         0 IOpCl=  1 I1Cent=           0 NGrid=           0
         NMat0=    1 NMatS0=      1 NMatT0=    0 NMatD0=    1 NMtDS0=    0 NMtDT0=    0
 Symmetry not used in FoFCou.
 E= -148.890178800439    
 DIIS: error= 3.84D-02 at cycle   1 NSaved=   1.
 NSaved= 1 IEnMin= 1 EnMin= -148.890178800439     IErMin= 1 ErrMin= 3.84D-02
 ErrMax= 3.84D-02  0.00D+00 EMaxC= 1.00D-01 BMatC= 1.48D+00 BMatP= 1.48D+00
 IDIUse=3 WtCom= 6.16D-01 WtEn= 3.84D-01
 Coeff-Com:  0.100D+01
 Coeff-En:   0.100D+01
 Coeff:      0.100D+01
 Gap=     0.387 Goal=   None    Shift=    0.000
 Gap=     0.387 Goal=   None    Shift=    0.000
 GapD=    0.387 DampG=1.000 DampE=0.500 DampFc=0.5000 IDamp=-1.
 Damping current iteration by 5.00D-01
 RMSDP=1.06D-03 MaxDP=4.13D-02              OVMax= 1.48D-01

 Cycle   2  Pass 0  IDiag  1:
 RMSU=  5.24D-04    CP:  9.86D-01
 E= -148.973618981982     Delta-E=       -0.083440181543 Rises=F Damp=T
 DIIS: error= 1.96D-02 at cycle   2 NSaved=   2.
 NSaved= 2 IEnMin= 2 EnMin= -148.973618981982     IErMin= 2 ErrMin= 1.96D-02
 ErrMax= 1.96D-02  0.00D+00 EMaxC= 1.00D-01 BMatC= 3.30D-01 BMatP= 1.48D+00
 IDIUse=3 WtCom= 8.04D-01 WtEn= 1.96D-01
 Coeff-Com: -0.689D+00 0.169D+01
 Coeff-En:   0.000D+00 0.100D+01
 Coeff:     -0.554D+00 0.155D+01
 Gap=     0.386 Goal=   None    Shift=    0.000
 Gap=     0.386 Goal=   None    Shift=    0.000
 RMSDP=3.29D-04 MaxDP=1.23D-02 DE=-8.34D-02 OVMax= 4.81D-02

 Cycle   3  Pass 0  IDiag  1:
 RMSU=  2.86D-04    CP:  9.78D-01  1.30D+00
 E= -149.046752263039     Delta-E=       -0.073133281057 Rises=F Damp=F
 DIIS: error= 2.67D-03 at cycle   3 NSaved=   3.
 NSaved= 3 IEnMin= 3 EnMin= -149.046752263039     IErMin= 3 ErrMin= 2.67D-03
 ErrMax= 2.67D-03  0.00D+00 EMaxC= 1.00D-01 BMatC= 8.86D-03 BMatP= 3.30D-01
 IDIUse=3 WtCom= 9.73D-01 WtEn= 2.67D-02
 Coeff-Com: -0.164D+00 0.288D+00 0.876D+00
 Coeff-En:   0.000D+00 0.000D+00 0.100D+01
 Coeff:     -0.160D+00 0.281D+00 0.879D+00
 Gap=     0.372 Goal=   None    Shift=    0.000
 Gap=     0.372 Goal=   None    Shift=    0.000
 RMSDP=9.39D-05 MaxDP=5.85D-03 DE=-7.31D-02 OVMax= 1.27D-02

 Cycle   4  Pass 0  IDiag  1:
 RMSU=  7.07D-05    CP:  9.79D-01  1.42D+00  9.90D-01
 E= -149.048262148822     Delta-E=       -0.001509885782 Rises=F Damp=F
 DIIS: error= 1.34D-03 at cycle   4 NSaved=   4.
 NSaved= 4 IEnMin= 4 EnMin= -149.048262148822     IErMin= 4 ErrMin= 1.34D-03
 ErrMax= 1.34D-03  0.00D+00 EMaxC= 1.00D-01 BMatC= 8.30D-04 BMatP= 8.86D-03
 IDIUse=3 WtCom= 9.87D-01 WtEn= 1.34D-02
 Coeff-Com: -0.332D-01 0.476D-01 0.274D+00 0.712D+00
 Coeff-En:   0.000D+00 0.000D+00 0.000D+00 0.100D+01
 Coeff:     -0.327D-01 0.470D-01 0.270D+00 0.715D+00
 Gap=     0.371 Goal=   None    Shift=    0.000
 Gap=     0.371 Goal=   None    Shift=    0.000
 RMSDP=3.63D-05 MaxDP=1.15D-03 DE=-1.51D-03 OVMax= 9.12D-03

 Cycle   5  Pass 0  IDiag  1:
 RMSU=  2.89D-05    CP:  9.79D-01  1.41D+00  1.05D+00  8.39D-01
 E= -149.048490664028     Delta-E=       -0.000228515206 Rises=F Damp=F
 DIIS: error= 4.87D-04 at cycle   5 NSaved=   5.
 NSaved= 5 IEnMin= 5 EnMin= -149.048490664028     IErMin= 5 ErrMin= 4.87D-04
 ErrMax= 4.87D-04  0.00D+00 EMaxC= 1.00D-01 BMatC= 1.05D-04 BMatP= 8.30D-04
 IDIUse=3 WtCom= 9.95D-01 WtEn= 4.87D-03
 Coeff-Com:  0.152D-01-0.268D-01-0.966D-01 0.105D+00 0.100D+01
 Coeff-En:   0.000D+00 0.000D+00 0.000D+00 0.000D+00 0.100D+01
 Coeff:      0.152D-01-0.267D-01-0.961D-01 0.105D+00 0.100D+01
 Gap=     0.372 Goal=   None    Shift=    0.000
 Gap=     0.372 Goal=   None    Shift=    0.000
 RMSDP=1.96D-05 MaxDP=1.27D-03 DE=-2.29D-04 OVMax= 1.70D-03

 Cycle   6  Pass 0  IDiag  1:
 RMSU=  8.32D-06    CP:  9.80D-01  1.41D+00  1.07D+00  1.02D+00  1.33D+00
 E= -149.048531159825     Delta-E=       -0.000040495797 Rises=F Damp=F
 DIIS: error= 2.12D-04 at cycle   6 NSaved=   6.
 NSaved= 6 IEnMin= 6 EnMin= -149.048531159825     IErMin= 6 ErrMin= 2.12D-04
 ErrMax= 2.12D-04  0.00D+00 EMaxC= 1.00D-01 BMatC= 1.19D-05 BMatP= 1.05D-04
 IDIUse=3 WtCom= 9.98D-01 WtEn= 2.12D-03
 Coeff-Com:  0.538D-02-0.825D-02-0.452D-01-0.361D-01-0.503D-02 0.109D+01
 Coeff-En:   0.000D+00 0.000D+00 0.000D+00 0.000D+00 0.000D+00 0.100D+01
 Coeff:      0.537D-02-0.823D-02-0.451D-01-0.361D-01-0.502D-02 0.109D+01
 Gap=     0.372 Goal=   None    Shift=    0.000
 Gap=     0.372 Goal=   None    Shift=    0.000
 RMSDP=1.07D-05 MaxDP=6.78D-04 DE=-4.05D-05 OVMax= 2.18D-03

 Cycle   7  Pass 0  IDiag  1:
 RMSU=  3.83D-06    CP:  9.80D-01  1.41D+00  1.08D+00  1.09D+00  1.57D+00
                    CP:  1.54D+00
 E= -149.048540209396     Delta-E=       -0.000009049571 Rises=F Damp=F
 DIIS: error= 9.50D-05 at cycle   7 NSaved=   7.
 NSaved= 7 IEnMin= 7 EnMin= -149.048540209396     IErMin= 7 ErrMin= 9.50D-05
 ErrMax= 9.50D-05  0.00D+00 EMaxC= 1.00D-01 BMatC= 4.26D-06 BMatP= 1.19D-05
 IDIUse=1 WtCom= 1.00D+00 WtEn= 0.00D+00
 Coeff-Com: -0.219D-02 0.409D-02 0.108D-01-0.822D-02-0.258D+00 0.276D+00
 Coeff-Com:  0.978D+00
 Coeff:     -0.219D-02 0.409D-02 0.108D-01-0.822D-02-0.258D+00 0.276D+00
 Coeff:      0.978D+00
 Gap=     0.372 Goal=   None    Shift=    0.000
 Gap=     0.372 Goal=   None    Shift=    0.000
 RMSDP=5.50D-06 MaxDP=3.75D-04 DE=-9.05D-06 OVMax= 1.01D-03

 Initial convergence to 1.0D-05 achieved.  Increase integral accuracy.
 Cycle   8  Pass 1  IDiag  1:
 E= -149.048542806257     Delta-E=       -0.000002596861 Rises=F Damp=F
 DIIS: error= 3.55D-05 at cycle   1 NSaved=   1.
 NSaved= 1 IEnMin= 1 EnMin= -149.048542806257     IErMin= 1 ErrMin= 3.55D-05
 ErrMax= 3.55D-05  0.00D+00 EMaxC= 1.00D-01 BMatC= 6.14D-07 BMatP= 6.14D-07
 IDIUse=1 WtCom= 1.00D+00 WtEn= 0.00D+00
 Coeff-Com:  0.100D+01
 Coeff:      0.100D+01
 Gap=     0.372 Goal=   None    Shift=    0.000
 Gap=     0.372 Goal=   None    Shift=    0.000
 RMSDP=5.50D-06 MaxDP=3.75D-04 DE=-2.60D-06 OVMax= 3.29D-04

 Cycle   9  Pass 1  IDiag  1:
 RMSU=  2.77D-06    CP:  1.00D+00
 E= -149.048543208413     Delta-E=       -0.000000402156 Rises=F Damp=F
 DIIS: error= 3.26D-05 at cycle   2 NSaved=   2.
 NSaved= 2 IEnMin= 2 EnMin= -149.048543208413     IErMin= 2 ErrMin= 3.26D-05
 ErrMax= 3.26D-05  0.00D+00 EMaxC= 1.00D-01 BMatC= 1.64D-07 BMatP= 6.14D-07
 IDIUse=1 WtCom= 1.00D+00 WtEn= 0.00D+00
 Coeff-Com: -0.117D+00 0.112D+01
 Coeff:     -0.117D+00 0.112D+01
 Gap=     0.372 Goal=   None    Shift=    0.000
 Gap=     0.372 Goal=   None    Shift=    0.000
 RMSDP=1.18D-06 MaxDP=3.86D-05 DE=-4.02D-07 OVMax= 3.31D-04

 Cycle  10  Pass 1  IDiag  1:
 RMSU=  7.85D-07    CP:  1.00D+00  1.32D+00
 E= -149.048543378751     Delta-E=       -0.000000170338 Rises=F Damp=F
 DIIS: error= 1.49D-05 at cycle   3 NSaved=   3.
 NSaved= 3 IEnMin= 3 EnMin= -149.048543378751     IErMin= 3 ErrMin= 1.49D-05
 ErrMax= 1.49D-05  0.00D+00 EMaxC= 1.00D-01 BMatC= 1.19D-07 BMatP= 1.64D-07
 IDIUse=1 WtCom= 1.00D+00 WtEn= 0.00D+00
 Coeff-Com: -0.532D+00 0.393D+00 0.114D+01
 Coeff:     -0.532D+00 0.393D+00 0.114D+01
 Gap=     0.372 Goal=   None    Shift=    0.000
 Gap=     0.372 Goal=   None    Shift=    0.000
 RMSDP=1.33D-06 MaxDP=4.22D-05 DE=-1.70D-07 OVMax= 2.73D-04

 Cycle  11  Pass 1  IDiag  1:
 RMSU=  4.67D-07    CP:  1.00D+00  1.68D+00  1.92D+00
 E= -149.048543473821     Delta-E=       -0.000000095070 Rises=F Damp=F
 DIIS: error= 5.63D-06 at cycle   4 NSaved=   4.
 NSaved= 4 IEnMin= 4 EnMin= -149.048543473821     IErMin= 4 ErrMin= 5.63D-06
 ErrMax= 5.63D-06  0.00D+00 EMaxC= 1.00D-01 BMatC= 4.73D-09 BMatP= 1.19D-07
 IDIUse=1 WtCom= 1.00D+00 WtEn= 0.00D+00
 Coeff-Com: -0.287D-01-0.852D-01 0.290D-03 0.111D+01
 Coeff:     -0.287D-01-0.852D-01 0.290D-03 0.111D+01
 Gap=     0.372 Goal=   None    Shift=    0.000
 Gap=     0.372 Goal=   None    Shift=    0.000
 RMSDP=3.54D-07 MaxDP=1.26D-05 DE=-9.51D-08 OVMax= 9.80D-05

 Cycle  12  Pass 1  IDiag  1:
 RMSU=  1.17D-07    CP:  1.00D+00  1.74D+00  2.27D+00  1.22D+00
 E= -149.048543480636     Delta-E=       -0.000000006815 Rises=F Damp=F
 DIIS: error= 1.22D-06 at cycle   5 NSaved=   5.
 NSaved= 5 IEnMin= 5 EnMin= -149.048543480636     IErMin= 5 ErrMin= 1.22D-06
 ErrMax= 1.22D-06  0.00D+00 EMaxC= 1.00D-01 BMatC= 1.03D-09 BMatP= 4.73D-09
 IDIUse=1 WtCom= 1.00D+00 WtEn= 0.00D+00
 Coeff-Com:  0.383D-01-0.555D-01-0.123D+00 0.288D+00 0.852D+00
 Coeff:      0.383D-01-0.555D-01-0.123D+00 0.288D+00 0.852D+00
 Gap=     0.372 Goal=   None    Shift=    0.000
 Gap=     0.372 Goal=   None    Shift=    0.000
 RMSDP=8.99D-08 MaxDP=5.14D-06 DE=-6.81D-09 OVMax= 1.73D-05

 Cycle  13  Pass 1  IDiag  1:
 RMSU=  3.23D-08    CP:  1.00D+00  1.75D+00  2.35D+00  1.31D+00  1.25D+00
 E= -149.048543481085     Delta-E=       -0.000000000449 Rises=F Damp=F
 DIIS: error= 4.30D-07 at cycle   6 NSaved=   6.
 NSaved= 6 IEnMin= 6 EnMin= -149.048543481085     IErMin= 6 ErrMin= 4.30D-07
 ErrMax= 4.30D-07  0.00D+00 EMaxC= 1.00D-01 BMatC= 5.70D-11 BMatP= 1.03D-09
 IDIUse=1 WtCom= 1.00D+00 WtEn= 0.00D+00
 Coeff-Com:  0.791D-02 0.109D-01-0.127D-01-0.110D+00 0.589D-01 0.105D+01
 Coeff:      0.791D-02 0.109D-01-0.127D-01-0.110D+00 0.589D-01 0.105D+01
 Gap=     0.372 Goal=   None    Shift=    0.000
 Gap=     0.372 Goal=   None    Shift=    0.000
 RMSDP=2.92D-08 MaxDP=1.50D-06 DE=-4.49D-10 OVMax= 2.65D-06

 Cycle  14  Pass 1  IDiag  1:
 RMSU=  8.36D-09    CP:  1.00D+00  1.74D+00  2.35D+00  1.31D+00  1.44D+00
                    CP:  1.30D+00
 E= -149.048543481112     Delta-E=       -0.000000000028 Rises=F Damp=F
 DIIS: error= 1.05D-07 at cycle   7 NSaved=   7.
 NSaved= 7 IEnMin= 7 EnMin= -149.048543481112     IErMin= 7 ErrMin= 1.05D-07
 ErrMax= 1.05D-07  0.00D+00 EMaxC= 1.00D-01 BMatC= 9.54D-12 BMatP= 5.70D-11
 IDIUse=1 WtCom= 1.00D+00 WtEn= 0.00D+00
 Coeff-Com: -0.137D-02 0.654D-02 0.714D-02-0.522D-01-0.721D-01 0.280D+00
 Coeff-Com:  0.832D+00
 Coeff:     -0.137D-02 0.654D-02 0.714D-02-0.522D-01-0.721D-01 0.280D+00
 Coeff:      0.832D+00
 Gap=     0.372 Goal=   None    Shift=    0.000
 Gap=     0.372 Goal=   None    Shift=    0.000
 RMSDP=7.69D-09 MaxDP=4.24D-07 DE=-2.79D-11 OVMax= 9.53D-07

 SCF Done:  E(UHF) =  -149.048543481     A.U. after   14 cycles
            NFock= 14  Conv=0.77D-08     -V/T= 2.0018
 <Sx>= 0.0000 <Sy>= 0.0000 <Sz>= 0.0000 <S**2>=-0.0000 S=-0.0000
 <L.S>=  0.00000000000    
 KE= 1.487860125715D+02 PE=-4.953687043085D+02 EE= 1.241515991918D+02
 Annihilation of the first spin contaminant:
 S**2 before annihilation    -0.0000,   after     0.0000
 Leave Link  502 at Tue Jan  3 09:07:20 2023, MaxMem=   536870912 cpu:             464.7 elap:             232.4
 (Enter /opt/software/gaussian/g16.c01/l508.exe)
 QCSCF skips out because SCF is already converged.
 Leave Link  508 at Tue Jan  3 09:07:20 2023, MaxMem=   536870912 cpu:               0.0 elap:               0.0
 (Enter /opt/software/gaussian/g16.c01/l601.exe)
 Copying SCF densities to generalized density rwf, IOpCl= 1 IROHF=0.

 **********************************************************************

            Population analysis using the SCF Density.

 **********************************************************************

 Alpha  occ. eigenvalues --  -15.70975 -15.53643 -11.26669  -1.36661  -1.07805
 Alpha  occ. eigenvalues --   -0.86836  -0.75875  -0.66018  -0.58560  -0.58380
 Alpha  occ. eigenvalues --   -0.43556  -0.28996
 Alpha virt. eigenvalues --    0.08224   0.10429   0.12937   0.14683   0.17297
 Alpha virt. eigenvalues --    0.21076   0.24284   0.27913   0.29204   0.30563
 Alpha virt. eigenvalues --    0.34779   0.38295   0.39734   0.40539   0.44731
 Alpha virt. eigenvalues --    0.47557   0.47615   0.50499   0.54554   0.54848
 Alpha virt. eigenvalues --    0.57836   0.61958   0.64173   0.65278   0.71673
 Alpha virt. eigenvalues --    0.75459   0.78614   0.78806   0.83143   0.85922
 Alpha virt. eigenvalues --    0.87860   0.90775   0.94065   0.94863   0.97369
 Alpha virt. eigenvalues --    0.97641   0.99093   1.02511   1.06477   1.13234
 Alpha virt. eigenvalues --    1.15274   1.15623   1.18419   1.20253   1.23888
 Alpha virt. eigenvalues --    1.26931   1.27979   1.33701   1.34303   1.40578
 Alpha virt. eigenvalues --    1.41729   1.44294   1.44807   1.49706   1.57493
 Alpha virt. eigenvalues --    1.57507   1.62738   1.66494   1.73572   1.78379
 Alpha virt. eigenvalues --    1.92054   1.93814   1.96876   1.99113   2.01983
 Alpha virt. eigenvalues --    2.08987   2.10603   2.13746   2.15561   2.22066
 Alpha virt. eigenvalues --    2.22985   2.23362   2.33573   2.34682   2.39020
 Alpha virt. eigenvalues --    2.40446   2.44661   2.46570   2.50528   2.51689
 Alpha virt. eigenvalues --    2.52925   2.60495   2.61220   2.62765   2.66368
 Alpha virt. eigenvalues --    2.69399   2.71777   2.72725   2.76293   2.78281
 Alpha virt. eigenvalues --    2.82894   2.83903   2.87563   2.89433   2.93948
 Alpha virt. eigenvalues --    2.95006   2.99073   3.00464   3.03783   3.05209
 Alpha virt. eigenvalues --    3.09264   3.13764   3.15082   3.20604   3.23339
 Alpha virt. eigenvalues --    3.31854   3.35142   3.35303   3.43022   3.46993
 Alpha virt. eigenvalues --    3.56885   3.57894   3.58264   3.61587   3.64340
 Alpha virt. eigenvalues --    3.70248   3.78215   3.80603   3.82384   3.84279
 Alpha virt. eigenvalues --    3.89106   3.90213   3.96551   4.04858   4.07649
 Alpha virt. eigenvalues --    4.14758   4.18257   4.22291   4.37304   4.39368
 Alpha virt. eigenvalues --    4.49254   4.53182   4.61275   4.66840   4.70861
 Alpha virt. eigenvalues --    4.76916   4.94572   5.04857   5.21524   5.31200
 Alpha virt. eigenvalues --    5.38469   5.50993   5.56134   5.66398   5.72809
 Alpha virt. eigenvalues --    5.77709   5.80671   5.87115   5.88066   5.90538
 Alpha virt. eigenvalues --    6.06130   6.08062   6.12083   6.12580   6.21838
 Alpha virt. eigenvalues --    6.23039   6.27613   6.30002   6.32867   6.43581
 Alpha virt. eigenvalues --    6.45931   6.46827   6.59885   6.63755   6.70118
 Alpha virt. eigenvalues --    6.72288   6.74023   6.77118   6.90983   6.92053
 Alpha virt. eigenvalues --    6.93210   6.94650   7.06041   7.10700   7.14738
 Alpha virt. eigenvalues --    7.21558   7.24206   7.29109   7.32501   7.38331
 Alpha virt. eigenvalues --    7.40370   7.43588   7.53442   7.56443   7.59717
 Alpha virt. eigenvalues --    7.60782   7.61402   7.70265   7.73170   7.76629
 Alpha virt. eigenvalues --    7.78979   7.81888   7.82879   7.84351   7.88574
 Alpha virt. eigenvalues --    7.94435   8.02275   8.04560   8.09854   8.11085
 Alpha virt. eigenvalues --    8.16392   8.18982   8.22847   8.27321   8.31693
 Alpha virt. eigenvalues --    8.36294   8.38098   8.39308   8.43584   8.47228
 Alpha virt. eigenvalues --    8.47718   8.49295   8.54639   8.59060   8.61933
 Alpha virt. eigenvalues --    8.66462   8.67314   8.73338   8.78550   8.81202
 Alpha virt. eigenvalues --    8.81267   8.91840   8.99663   9.00860   9.05609
 Alpha virt. eigenvalues --    9.06379   9.08047   9.11965   9.24114   9.30412
 Alpha virt. eigenvalues --    9.33300   9.35421   9.41173   9.45583   9.55335
 Alpha virt. eigenvalues --    9.59656   9.60296   9.65120   9.70813   9.72926
 Alpha virt. eigenvalues --    9.82724   9.84400   9.86446   9.97655  10.08959
 Alpha virt. eigenvalues --   10.10164  10.15537  10.21030  10.24117  10.30086
 Alpha virt. eigenvalues --   10.36586  10.39237  10.62940  10.78300  10.84455
 Alpha virt. eigenvalues --   11.10095  11.17409  11.37417  11.44123  11.71336
 Alpha virt. eigenvalues --   11.75314  11.91788  12.04918  12.10963  12.12706
 Alpha virt. eigenvalues --   12.23087  12.34374  12.56960  12.79053  13.45160
 Alpha virt. eigenvalues --   13.75200  15.23607  15.24044  29.64924  38.76975
 Alpha virt. eigenvalues --   39.18584 150.05979 199.66720 200.08207
  Beta  occ. eigenvalues --  -15.70975 -15.53643 -11.26669  -1.36661  -1.07805
  Beta  occ. eigenvalues --   -0.86836  -0.75875  -0.66018  -0.58560  -0.58380
  Beta  occ. eigenvalues --   -0.43556  -0.28996
  Beta virt. eigenvalues --    0.08224   0.10429   0.12937   0.14683   0.17297
  Beta virt. eigenvalues --    0.21076   0.24284   0.27913   0.29204   0.30563
  Beta virt. eigenvalues --    0.34779   0.38295   0.39734   0.40539   0.44731
  Beta virt. eigenvalues --    0.47557   0.47615   0.50499   0.54554   0.54848
  Beta virt. eigenvalues --    0.57836   0.61958   0.64173   0.65278   0.71673
  Beta virt. eigenvalues --    0.75459   0.78614   0.78806   0.83143   0.85922
  Beta virt. eigenvalues --    0.87860   0.90775   0.94065   0.94863   0.97369
  Beta virt. eigenvalues --    0.97641   0.99093   1.02511   1.06477   1.13234
  Beta virt. eigenvalues --    1.15274   1.15623   1.18419   1.20253   1.23888
  Beta virt. eigenvalues --    1.26931   1.27979   1.33701   1.34303   1.40578
  Beta virt. eigenvalues --    1.41729   1.44294   1.44807   1.49706   1.57493
  Beta virt. eigenvalues --    1.57507   1.62738   1.66494   1.73572   1.78379
  Beta virt. eigenvalues --    1.92054   1.93814   1.96876   1.99113   2.01983
  Beta virt. eigenvalues --    2.08987   2.10603   2.13746   2.15561   2.22066
  Beta virt. eigenvalues --    2.22985   2.23362   2.33573   2.34682   2.39020
  Beta virt. eigenvalues --    2.40446   2.44661   2.46570   2.50528   2.51689
  Beta virt. eigenvalues --    2.52925   2.60495   2.61220   2.62765   2.66368
  Beta virt. eigenvalues --    2.69399   2.71777   2.72725   2.76293   2.78281
  Beta virt. eigenvalues --    2.82894   2.83903   2.87563   2.89433   2.93948
  Beta virt. eigenvalues --    2.95006   2.99073   3.00464   3.03783   3.05209
  Beta virt. eigenvalues --    3.09264   3.13764   3.15082   3.20604   3.23339
  Beta virt. eigenvalues --    3.31854   3.35142   3.35303   3.43022   3.46993
  Beta virt. eigenvalues --    3.56885   3.57894   3.58264   3.61587   3.64340
  Beta virt. eigenvalues --    3.70248   3.78215   3.80603   3.82384   3.84279
  Beta virt. eigenvalues --    3.89106   3.90213   3.96551   4.04858   4.07649
  Beta virt. eigenvalues --    4.14758   4.18257   4.22291   4.37304   4.39368
  Beta virt. eigenvalues --    4.49254   4.53182   4.61275   4.66840   4.70861
  Beta virt. eigenvalues --    4.76916   4.94572   5.04857   5.21524   5.31200
  Beta virt. eigenvalues --    5.38469   5.50993   5.56134   5.66398   5.72809
  Beta virt. eigenvalues --    5.77709   5.80671   5.87115   5.88066   5.90538
  Beta virt. eigenvalues --    6.06130   6.08062   6.12083   6.12580   6.21838
  Beta virt. eigenvalues --    6.23039   6.27613   6.30002   6.32867   6.43581
  Beta virt. eigenvalues --    6.45931   6.46827   6.59885   6.63755   6.70118
  Beta virt. eigenvalues --    6.72288   6.74023   6.77118   6.90983   6.92053
  Beta virt. eigenvalues --    6.93210   6.94650   7.06041   7.10700   7.14738
  Beta virt. eigenvalues --    7.21558   7.24206   7.29109   7.32501   7.38331
  Beta virt. eigenvalues --    7.40370   7.43588   7.53442   7.56443   7.59717
  Beta virt. eigenvalues --    7.60782   7.61402   7.70265   7.73170   7.76629
  Beta virt. eigenvalues --    7.78979   7.81888   7.82879   7.84351   7.88574
  Beta virt. eigenvalues --    7.94435   8.02275   8.04560   8.09854   8.11085
  Beta virt. eigenvalues --    8.16392   8.18982   8.22847   8.27321   8.31693
  Beta virt. eigenvalues --    8.36294   8.38098   8.39308   8.43584   8.47228
  Beta virt. eigenvalues --    8.47718   8.49295   8.54639   8.59060   8.61933
  Beta virt. eigenvalues --    8.66462   8.67314   8.73338   8.78550   8.81202
  Beta virt. eigenvalues --    8.81267   8.91840   8.99663   9.00860   9.05609
  Beta virt. eigenvalues --    9.06379   9.08047   9.11965   9.24114   9.30412
  Beta virt. eigenvalues --    9.33300   9.35421   9.41173   9.45583   9.55335
  Beta virt. eigenvalues --    9.59656   9.60296   9.65120   9.70813   9.72926
  Beta virt. eigenvalues --    9.82724   9.84400   9.86446   9.97655  10.08959
  Beta virt. eigenvalues --   10.10164  10.15537  10.21030  10.24117  10.30086
  Beta virt. eigenvalues --   10.36586  10.39237  10.62940  10.78300  10.84455
  Beta virt. eigenvalues --   11.10095  11.17409  11.37417  11.44123  11.71336
  Beta virt. eigenvalues --   11.75314  11.91788  12.04918  12.10963  12.12706
  Beta virt. eigenvalues --   12.23087  12.34374  12.56960  12.79053  13.45160
  Beta virt. eigenvalues --   13.75200  15.23607  15.24044  29.64924  38.76975
  Beta virt. eigenvalues --   39.18584 150.05979 199.66720 200.08207
          Condensed to atoms (all electrons):
               1          2          3          4          5          6
     1  C    4.990341   0.542734  -0.166529   0.006940   0.425835   0.438934
     2  N    0.542734   5.756311   0.359376  -0.042438  -0.037261  -0.028543
     3  N   -0.166529   0.359376   7.004901   0.323583   0.005361  -0.001370
     4  H    0.006940  -0.042438   0.323583   0.588673  -0.000995  -0.001073
     5  H    0.425835  -0.037261   0.005361  -0.000995   0.534419  -0.033878
     6  H    0.438934  -0.028543  -0.001370  -0.001073  -0.033878   0.484314
     7  H   -0.049212   0.391851  -0.036392  -0.023327  -0.007240   0.006097
               7
     1  C   -0.049212
     2  N    0.391851
     3  N   -0.036392
     4  H   -0.023327
     5  H   -0.007240
     6  H    0.006097
     7  H    0.496132
          Atomic-Atomic Spin Densities.
               1          2          3          4          5          6
     1  C    0.000000   0.000000   0.000000   0.000000   0.000000   0.000000
     2  N    0.000000   0.000000   0.000000   0.000000   0.000000   0.000000
     3  N    0.000000   0.000000   0.000000   0.000000   0.000000   0.000000
     4  H    0.000000   0.000000   0.000000   0.000000   0.000000   0.000000
     5  H    0.000000   0.000000   0.000000   0.000000   0.000000   0.000000
     6  H    0.000000   0.000000   0.000000   0.000000   0.000000   0.000000
     7  H    0.000000   0.000000   0.000000   0.000000   0.000000   0.000000
               7
     1  C    0.000000
     2  N    0.000000
     3  N    0.000000
     4  H    0.000000
     5  H    0.000000
     6  H    0.000000
     7  H    0.000000
 Mulliken charges and spin densities:
               1          2
     1  C   -0.189043   0.000000
     2  N    0.057970   0.000000
     3  N   -0.488930   0.000000
     4  H    0.148636   0.000000
     5  H    0.113758   0.000000
     6  H    0.135518   0.000000
     7  H    0.222092   0.000000
 Sum of Mulliken charges =  -0.00000   0.00000
 Mulliken charges and spin densities with hydrogens summed into heavy atoms:
               1          2
     1  C    0.060233   0.000000
     2  N    0.280061   0.000000
     3  N   -0.340294   0.000000
 Electronic spatial extent (au):  <R**2>=            600.6037
 Charge=             -0.0000 electrons
 Dipole moment (field-independent basis, Debye):
    X=             -0.1590    Y=              0.9221    Z=              3.4408  Tot=              3.5658
 Quadrupole moment (field-independent basis, Debye-Ang):
   XX=            -15.9124   YY=            -21.8523   ZZ=            -23.3179
   XY=              2.7427   XZ=             10.0754   YZ=             -0.4963
 Traceless Quadrupole moment (field-independent basis, Debye-Ang):
   XX=              4.4485   YY=             -1.4914   ZZ=             -2.9571
   XY=              2.7427   XZ=             10.0754   YZ=             -0.4963
 Octapole moment (field-independent basis, Debye-Ang**2):
  XXX=            -97.0762  YYY=             11.3662  ZZZ=             42.9505  XYY=            -47.1452
  XXY=             10.3849  XXZ=             36.6990  XZZ=            -55.1341  YZZ=              5.5293
  YYZ=             12.5890  XYZ=             -2.5558
 Hexadecapole moment (field-independent basis, Debye-Ang**3):
 XXXX=           -505.4158 YYYY=            -31.6304 ZZZZ=           -118.2935 XXXY=             42.9217
 XXXZ=            149.8436 YYYX=             31.6235 YYYZ=            -12.7795 ZZZX=            123.3121
 ZZZY=            -13.9980 XXYY=           -130.5299 XXZZ=           -162.6078 YYZZ=            -24.6285
 XXYZ=            -10.2431 YYXZ=             36.6587 ZZXY=             15.2781
 N-N= 7.338254906404D+01 E-N=-4.953687056778D+02  KE= 1.487860125715D+02
                          Isotropic Fermi Contact Couplings
        Atom                 a.u.       MegaHertz       Gauss      10(-4) cm-1
     1  C(13)              0.00000       0.00000       0.00000       0.00000
     2  N(14)              0.00000       0.00000       0.00000       0.00000
     3  N(14)              0.00000       0.00000       0.00000       0.00000
     4  H(1)               0.00000       0.00000       0.00000       0.00000
     5  H(1)               0.00000       0.00000       0.00000       0.00000
     6  H(1)               0.00000       0.00000       0.00000       0.00000
     7  H(1)               0.00000       0.00000       0.00000       0.00000
 --------------------------------------------------------
       Center         ----  Spin Dipole Couplings  ----
                      3XX-RR        3YY-RR        3ZZ-RR
 --------------------------------------------------------
     1   Atom        0.000000      0.000000      0.000000
     2   Atom        0.000000      0.000000      0.000000
     3   Atom        0.000000      0.000000      0.000000
     4   Atom        0.000000      0.000000      0.000000
     5   Atom        0.000000      0.000000      0.000000
     6   Atom        0.000000      0.000000      0.000000
     7   Atom        0.000000      0.000000      0.000000
 --------------------------------------------------------
                        XY            XZ            YZ
 --------------------------------------------------------
     1   Atom        0.000000      0.000000      0.000000
     2   Atom        0.000000      0.000000      0.000000
     3   Atom        0.000000      0.000000      0.000000
     4   Atom        0.000000      0.000000      0.000000
     5   Atom        0.000000      0.000000      0.000000
     6   Atom        0.000000      0.000000      0.000000
     7   Atom        0.000000      0.000000      0.000000
 --------------------------------------------------------


 ---------------------------------------------------------------------------------
              Anisotropic Spin Dipole Couplings in Principal Axis System
 ---------------------------------------------------------------------------------

       Atom             a.u.   MegaHertz   Gauss  10(-4) cm-1        Axes

              Baa     0.0000     0.000     0.000     0.000  1.0000  0.0000  0.0000
     1 C(13)  Bbb     0.0000     0.000     0.000     0.000 -0.0000  1.0000  0.0000
              Bcc     0.0000     0.000     0.000     0.000  0.0000  0.0000  1.0000
 
              Baa     0.0000     0.000     0.000     0.000  1.0000  0.0000  0.0000
     2 N(14)  Bbb     0.0000     0.000     0.000     0.000 -0.0000  1.0000  0.0000
              Bcc     0.0000     0.000     0.000     0.000  0.0000  0.0000  1.0000
 
              Baa     0.0000     0.000     0.000     0.000  1.0000  0.0000  0.0000
     3 N(14)  Bbb     0.0000     0.000     0.000     0.000 -0.0000  1.0000  0.0000
              Bcc     0.0000     0.000     0.000     0.000  0.0000  0.0000  1.0000
 
              Baa     0.0000     0.000     0.000     0.000  1.0000  0.0000  0.0000
     4 H(1)   Bbb     0.0000     0.000     0.000     0.000 -0.0000  1.0000  0.0000
              Bcc     0.0000     0.000     0.000     0.000  0.0000  0.0000  1.0000
 
              Baa     0.0000     0.000     0.000     0.000  1.0000  0.0000  0.0000
     5 H(1)   Bbb     0.0000     0.000     0.000     0.000 -0.0000  1.0000  0.0000
              Bcc     0.0000     0.000     0.000     0.000  0.0000  0.0000  1.0000
 
              Baa     0.0000     0.000     0.000     0.000  1.0000  0.0000  0.0000
     6 H(1)   Bbb     0.0000     0.000     0.000     0.000 -0.0000  1.0000  0.0000
              Bcc     0.0000     0.000     0.000     0.000  0.0000  0.0000  1.0000
 
              Baa     0.0000     0.000     0.000     0.000  1.0000  0.0000  0.0000
     7 H(1)   Bbb     0.0000     0.000     0.000     0.000 -0.0000  1.0000  0.0000
              Bcc     0.0000     0.000     0.000     0.000  0.0000  0.0000  1.0000
 

 ---------------------------------------------------------------------------------

 No NMR shielding tensors so no spin-rotation constants.
 Leave Link  601 at Tue Jan  3 09:07:21 2023, MaxMem=   536870912 cpu:               0.6 elap:               0.3
 (Enter /opt/software/gaussian/g16.c01/l801.exe)
 Range of M.O.s used for correlation:     1   291
 NBasis=   291 NAE=    12 NBE=    12 NFC=     0 NFV=     0
 NROrb=    291 NOA=    12 NOB=    12 NVA=   279 NVB=   279

 **** Warning!!: The largest alpha MO coefficient is  0.18275361D+02


 **** Warning!!: The largest beta MO coefficient is  0.18275361D+02

 Leave Link  801 at Tue Jan  3 09:07:21 2023, MaxMem=   536870912 cpu:               0.1 elap:               0.0
 (Enter /opt/software/gaussian/g16.c01/l914.exe)
 UHF ground state
 Doing stability rather than CIS.
 Two-electron integral symmetry not used.
 MDV=   536870912 DFT=F DoStab=T Mixed=F DoRPA=F DoScal=F NonHer=F
 Making orbital integer symmetry assigments:
 FoFJK:  IHMeth= 1 ICntrl=       0 DoSepK=F KAlg= 0 I1Cent=           0 FoldK=F
 IRaf=         0 NMat=       2 IRICut=       1 DoRegI=T DoRafI=F ISym2E= 0 IDoP0=0 IntGTp=1.
 FoFCou: FMM=F IPFlag=           0 FMFlag=      100000 FMFlg1=           0
         NFxFlg=           0 DoJE=F BraDBF=F KetDBF=F FulRan=T
         wScrn=  0.000000 ICntrl=         0 IOpCl=  1 I1Cent=           0 NGrid=           0
         NMat0=    2 NMatS0=      2 NMatT0=    0 NMatD0=    2 NMtDS0=    0 NMtDT0=    0
 Symmetry not used in FoFCou.
    12 initial guesses have been made.
 Convergence on wavefunction:    0.001000000000000
 Davidson Disk Diagonalization:  ConvIn= 1.00D-03 SkipCon=T Conv= 1.00D-03.
 Max sub-space:  2000 roots to seek:    12 dimension of matrix:         6696
 Iteration     1 Dimension    12 NMult     0 NNew     12
 CISAX will form    12 AO SS matrices at one time.
 NMat=    12 NSing=    12 JSym2X= 0.
 Excitation Energies [eV] at current iteration:
 Root      1 :    -1.027944149835534
 Root      2 :     4.754076653511446
 Root      3 :     5.018018199663824
 Root      4 :     5.807547857301583
 Root      5 :     6.557743798629868
 Root      6 :     6.573851597101259
 Root      7 :     6.657927148687921
 Root      8 :     7.017506046317687
 Root      9 :     7.356056679406429
 Root     10 :     7.446754236633928
 Root     11 :     8.112069654686175
 Root     12 :     9.962666654214926
 Iteration     2 Dimension    24 NMult    12 NNew     12
 CISAX will form    12 AO SS matrices at one time.
 NMat=    12 NSing=    12 JSym2X= 0.
 Root      1 not converged, maximum delta is    0.054399040126971
 Excitation Energies [eV] at current iteration:
 Root      1 :    -2.006506577063708   Change is   -0.978562427228174
 Root      2 :     4.360251937798999   Change is   -0.393824715712447
 Root      3 :     4.862634436150182   Change is   -0.155383763513642
 Root      4 :     4.982542232324397   Change is   -0.825005624977187
 Root      5 :     5.412031664972747   Change is   -4.550634989242179
 Root      6 :     5.997014725411702   Change is   -0.576836871689556
 Root      7 :     6.262240713876396   Change is   -0.395686434811526
 Root      8 :     6.300351272785768   Change is   -0.257392525844101
 Root      9 :     6.858198384599879   Change is   -0.159307661717808
 Root     10 :     6.976531407441971   Change is   -0.379525271964459
 Root     11 :     6.999950611697185   Change is   -0.446803624936743
 Root     12 :     7.737104284825474   Change is   -0.374965369860702
 Iteration     3 Dimension    27 NMult    24 NNew      3
 CISAX will form     3 AO SS matrices at one time.
 NMat=     3 NSing=     3 JSym2X= 0.
 Root      1 not converged, maximum delta is    0.021109821227185
 Excitation Energies [eV] at current iteration:
 Root      1 :    -2.072020468394965   Change is   -0.065513891331257
 Root      2 :     4.313050268915519   Change is   -0.047201668883480
 Root      3 :     4.854188609874142   Change is   -0.008445826276039
 Iteration     4 Dimension    30 NMult    27 NNew      3
 CISAX will form     3 AO SS matrices at one time.
 NMat=     3 NSing=     3 JSym2X= 0.
 Root      1 not converged, maximum delta is    0.009999356239578
 Excitation Energies [eV] at current iteration:
 Root      1 :    -2.080468673833218   Change is   -0.008448205438253
 Root      2 :     4.307955743325627   Change is   -0.005094525589892
 Root      3 :     4.852820479958209   Change is   -0.001368129915933
 Cease iterating as an instability has been found.
 ***********************************************************************
 Stability analysis using <AA,BB:AA,BB> singles matrix:
 ***********************************************************************
 1PDM for each excited state written to RWF  633
 Ground to excited state transition densities written to RWF  633

 Eigenvectors of the stability matrix:
 
 Excited state symmetry could not be determined.
 Eigenvector   1:  3.000-?Sym  Eigenvalue=-0.0764558  <S**2>=2.000
     12A -> 14A        0.61309
     12A -> 19A       -0.27102
     12A -> 25A        0.15721
     12B -> 14B       -0.61309
     12B -> 19B        0.27102
     12B -> 25B       -0.15721
 
 Excited state symmetry could not be determined.
 Eigenvector   2:  3.000-?Sym  Eigenvalue= 0.1583145  <S**2>=2.000
     11A -> 14A       -0.22945
     12A -> 13A       -0.59829
     12A -> 16A        0.11731
     12A -> 18A        0.14301
     12A -> 24A        0.10731
     11B -> 14B        0.22945
     12B -> 13B        0.59829
     12B -> 16B       -0.11731
     12B -> 18B       -0.14301
     12B -> 24B       -0.10731
 
 Excited state symmetry could not be determined.
 Eigenvector   3:  1.000-?Sym  Eigenvalue= 0.1783379  <S**2>=0.000
     12A -> 13A        0.67858
     12B -> 13B        0.67858
 The wavefunction has an internal instability.
 Leave Link  914 at Tue Jan  3 09:11:56 2023, MaxMem=   536870912 cpu:             551.1 elap:             275.6
 (Enter /opt/software/gaussian/g16.c01/l508.exe)
 Two-electron integral symmetry not used.
 Very tight linear equation convergence will be used.
 UHF wavefunction.
 Quadratic Convergence SCF Method.
 Line search only if initial step raises energy.
 Fock matrices will be formed incrementally for  20 cycles.
 Perform preliminary linear searches along instability eigenvector.
     ILin= 1 X=0.000D+00 Y=-1.490485434811D+02 DE= 0.00D+00
 FoFJK:  IHMeth= 1 ICntrl=       0 DoSepK=F KAlg= 0 I1Cent=           0 FoldK=F
 IRaf= 980000000 NMat=       1 IRICut=       1 DoRegI=T DoRafI=F ISym2E= 0 IDoP0=0 IntGTp=1.
 FoFCou: FMM=F IPFlag=           0 FMFlag=      100000 FMFlg1=           0
         NFxFlg=           0 DoJE=F BraDBF=F KetDBF=F FulRan=T
         wScrn=  0.000000 ICntrl=         0 IOpCl=  1 I1Cent=           0 NGrid=           0
         NMat0=    1 NMatS0=      1 NMatT0=    0 NMatD0=    1 NMtDS0=    0 NMtDT0=    0
 Symmetry not used in FoFCou.
     ILin= 2 X=1.000D-01 Y=-1.490492932270D+02 DE=-7.50D-04
     ILin= 3 X=1.414D-01 Y=-1.490500139449D+02 DE=-1.47D-03
     ILin= 4 X=2.000D-01 Y=-1.490513692897D+02 DE=-2.83D-03
     ILin= 5 X=2.828D-01 Y=-1.490537425009D+02 DE=-5.20D-03
     ILin= 6 X=4.000D-01 Y=-1.490571929977D+02 DE=-8.65D-03
     ILin= 7 X=5.657D-01 Y=-1.490593242337D+02 DE=-1.08D-02
     ILin= 8 X=8.000D-01 Y=-1.490475451033D+02 DE= 9.98D-04
     An  expanding polynomial of degree  8 produced  0.5448
 Iteration F X= 5.448D-01 EE=-1.490593839243949D+02
     ILin= 1 X=0.000D+00 Y=-1.490485434811D+02 DE= 0.00D+00
     ILin= 2 X=1.000D-01 Y=-1.490492932162D+02 DE=-7.50D-04
     ILin= 3 X=1.414D-01 Y=-1.490500139145D+02 DE=-1.47D-03
 The two search directions are symmetric.
 Iteration B X= 5.448D-01 EE=-1.490593839243949D+02
 Take forward step, X= 5.448D-01 Step= 5.448D-01
 Iteration   1 EE= -149.059383901519                                    Grad=5.239D-02 Max rot=    0.7719 deg.
 Gradient too large for Newton-Raphson -- use scaled steepest descent instead.
 Alpha Gap=     0.393 HL deriv= 3.03D-06
  Beta Gap=     0.435 HL deriv= 2.62D-07
     ILin= 1 X=0.000D+00 Y=-1.490593839015D+02 DE= 0.00D+00 F= -4.05D-03
 RMSU=  3.82D-05    CP:  9.99D-01
     ILin= 2 X=3.000D-01 Y=-1.490604687273D+02 DE=-1.08D-03 F= -3.18D-03 OKLS=F
 RMSU=  6.11D-07    CP:  9.98D-01  2.00D+00
     ILin= 3 X=6.000D-01 Y=-1.490612921868D+02 DE=-1.91D-03 F= -2.31D-03
 RMSU=  3.81D-05    CP:  9.97D-01  3.00D+00  3.00D+00
     ILin= 4 X=1.200D+00 Y=-1.490621551092D+02 DE=-2.77D-03 F= -5.67D-04
 RMSU=  7.65D-05    CP:  9.94D-01  3.00D+00  3.00D+00  3.00D+00
     ILin= 5 X=2.400D+00 Y=-1.490607467145D+02 DE=-1.36D-03 F=  2.91D-03
     An  expanding polynomial of degree  5 produced  1.3954
 RMSU=  3.26D-07    CP:  9.96D-01  3.00D+00  3.00D+00  1.65D+00  3.40D-04
 Iteration   2 EE= -149.062210536146     Delta-E=       -0.002826634627 Grad=2.769D-02 Max rot=    0.5612 deg.
 Gradient too large for Newton-Raphson -- use scaled steepest descent instead.
 Alpha Gap=     0.391 HL deriv= 1.86D-06
  Beta Gap=     0.430 HL deriv= 5.01D-08
     ILin= 1 X=0.000D+00 Y=-1.490622105361D+02 DE= 0.00D+00 F= -1.34D-03
 RMSU=  3.54D-05    CP:  9.97D-01  3.00D+00  3.00D+00  1.78D+00  2.75D-03
                    CP:  3.00D+00
     ILin= 2 X=6.000D-01 Y=-1.490627584165D+02 DE=-5.48D-04 F= -4.83D-04 OKLS=F
 RMSU=  1.60D-06    CP:  9.97D-01  3.00D+00  3.00D+00  1.94D+00  6.02D-03
                    CP:  3.00D+00  2.17D+00
     ILin= 3 X=1.300D+00 Y=-1.490627442915D+02 DE=-5.34D-04 F=  5.23D-04
     An  expanding polynomial of degree  3 produced  0.9359
 RMSU=  6.78D-08    CP:  9.97D-01  3.00D+00  3.00D+00  1.86D+00  4.26D-03
                    CP:  3.00D+00  1.56D+00  3.93D-01
 Iteration   3 EE= -149.062839473477     Delta-E=       -0.000628937330 Grad=2.078D-02 Max rot=    0.2654 deg.
 Gradient too large for Newton-Raphson -- use scaled steepest descent instead.
 Alpha Gap=     0.394 HL deriv= 5.71D-07
  Beta Gap=     0.439 HL deriv= 7.21D-09
     ILin= 1 X=0.000D+00 Y=-1.490628394735D+02 DE= 0.00D+00 F= -6.32D-04
 RMSU=  3.75D-05    CP:  9.96D-01  3.00D+00  3.00D+00  2.77D+00  4.53D-03
                    CP:  3.00D+00  1.79D+00  1.01D+00 -3.00D+00
     ILin= 2 X=1.100D+00 Y=-1.490632319179D+02 DE=-3.92D-04 F= -8.18D-05 OKLS=T
     Reject lnstep IMin12=  1  2 Big=T Turn=F Min= 1.212D+00 FVal=-1.490632361163D+02 Lims=  0.00D+00  1.10D+00
 RMSU=  1.91D-06    CP:  9.95D-01  3.00D+00  3.00D+00  3.00D+00  3.85D-01
                    CP:  3.00D+00  2.03D+00  1.13D+00 -3.00D+00  2.09D+00
     ILin= 3 X=2.300D+00 Y=-1.490629698125D+02 DE=-1.30D-04 F=  5.19D-04
     An  expanding polynomial of degree  3 produced  1.2633
 RMSU=  3.76D-08    CP:  9.96D-01  3.00D+00  3.00D+00  2.91D+00  4.62D-03
                    CP:  3.00D+00  1.82D+00  1.14D+00 -3.00D+00  1.15D+00
                    CP:  2.79D-02
 Iteration   4 EE= -149.063238598848     Delta-E=       -0.000399125372 Grad=1.743D-02 Max rot=    0.3706 deg.
 Gradient too large for Newton-Raphson -- use scaled steepest descent instead.
 Alpha Gap=     0.394 HL deriv= 4.45D-08
  Beta Gap=     0.438 HL deriv= 2.23D-08
     ILin= 1 X=0.000D+00 Y=-1.490632385988D+02 DE= 0.00D+00 F= -5.84D-04
 RMSU=  1.64D-05    CP:  9.97D-01  3.00D+00  3.00D+00  3.00D+00  5.13D-02
                    CP:  3.00D+00  2.89D+00  3.00D+00 -3.00D+00  1.06D+00
                    CP:  4.08D-01  3.00D+00
     ILin= 2 X=1.100D+00 Y=-1.490635088766D+02 DE=-2.70D-04 F=  9.26D-05 OKLS=T
     Accept linear search using points  1 and  2.
     An  expanding polynomial of degree  2 produced  0.9744
 RMSU=  3.76D-07    CP:  9.96D-01  3.00D+00  3.00D+00  3.00D+00  4.07D-02
                    CP:  3.00D+00  2.76D+00  3.00D+00 -3.00D+00  1.07D+00
                    CP:  3.38D-01  3.00D+00  8.85D-01
 Iteration   5 EE= -149.063515653400     Delta-E=       -0.000277054551 Grad=1.504D-02 Max rot=    0.1845 deg.
 Gradient too large for Newton-Raphson -- use scaled steepest descent instead.
 Alpha Gap=     0.395 HL deriv= 1.60D-08
  Beta Gap=     0.444 HL deriv= 1.32D-08
     ILin= 1 X=0.000D+00 Y=-1.490635156534D+02 DE= 0.00D+00 F= -3.25D-04
 RMSU=  3.98D-06    CP:  9.96D-01  3.00D+00  3.00D+00  3.00D+00  3.48D-01
                    CP:  3.00D+00  2.85D+00  3.00D+00 -3.00D+00  1.78D+00
                    CP:  1.18D+00  3.00D+00  1.07D+00  3.93D-01
     ILin= 2 X=1.100D+00 Y=-1.490637063629D+02 DE=-1.91D-04 F= -2.19D-05 OKLS=T
     Reject lnstep IMin12=  1  2 Big=T Turn=F Min= 1.157D+00 FVal=-1.490637069379D+02 Lims=  0.00D+00  1.10D+00
 RMSU=  3.21D-07    CP:  9.95D-01  3.00D+00  3.00D+00  3.00D+00  6.54D-01
                    CP:  3.00D+00  2.95D+00  3.00D+00 -3.00D+00  2.48D+00
                    CP:  2.07D+00  3.00D+00  1.26D+00 -1.07D+00  2.00D+00
     ILin= 3 X=2.200D+00 Y=-1.490635637889D+02 DE=-4.81D-05 F=  2.81D-04
     An  expanding polynomial of degree  3 produced  1.1794
     Minimum is close to point  2 DX=  7.94D-02 DF= -8.69D-07 DXR=  6.74D-02 DFR=  4.56D-03 which will be used.
 Iteration   6 EE= -149.063706362894     Delta-E=       -0.000190709494 Grad=1.050D-02 Max rot=    0.2425 deg.
 Gradient too large for Newton-Raphson -- use scaled steepest descent instead.
 Alpha Gap=     0.395 HL deriv= 2.91D-08
  Beta Gap=     0.443 HL deriv= 4.54D-09
     ILin= 1 X=0.000D+00 Y=-1.490637063629D+02 DE= 0.00D+00 F= -2.35D-04
 RMSU=  1.86D-05    CP:  9.96D-01  3.00D+00  3.00D+00  3.00D+00  4.37D-01
                    CP:  3.00D+00  3.00D+00  3.00D+00 -3.00D+00  1.79D+00
                    CP:  1.82D+00  3.00D+00  1.76D+00 -3.00D+00  1.12D+00
                    CP: -1.31D-01
     ILin= 2 X=1.100D+00 Y=-1.490638401135D+02 DE=-1.34D-04 F= -8.18D-06 OKLS=T
     Reject lnstep IMin12=  1  2 Big=T Turn=F Min= 1.129D+00 FVal=-1.490638402231D+02 Lims=  0.00D+00  1.10D+00
 RMSU=  1.38D-06    CP:  9.97D-01  3.00D+00  3.00D+00  3.00D+00  5.18D-01
                    CP:  3.00D+00  3.00D+00  3.00D+00 -3.00D+00  1.80D+00
                    CP:  2.53D+00  3.00D+00  2.40D+00 -3.00D+00  1.22D+00
                    CP: -4.90D-01  2.16D+00
     ILin= 3 X=2.100D+00 Y=-1.490637451789D+02 DE=-3.88D-05 F=  1.98D-04
     An  expanding polynomial of degree  3 produced  1.1396
     Minimum is close to point  2 DX=  3.96D-02 DF= -1.62D-07 DXR=  3.48D-02 DFR=  1.21D-03 which will be used.
 Iteration   7 EE= -149.063840113536     Delta-E=       -0.000133750643 Grad=1.102D-02 Max rot=    0.1247 deg.
 Gradient too large for Newton-Raphson -- use scaled steepest descent instead.
 Alpha Gap=     0.395 HL deriv= 4.01D-08
  Beta Gap=     0.448 HL deriv= 2.52D-09
     ILin= 1 X=0.000D+00 Y=-1.490638401135D+02 DE= 0.00D+00 F= -1.69D-04
 RMSU=  9.51D-07    CP:  9.96D-01  3.00D+00  3.00D+00  3.00D+00  6.73D-01
                    CP:  3.00D+00  3.00D+00  3.00D+00 -3.00D+00  2.34D+00
                    CP:  2.57D+00  3.00D+00  1.88D+00 -3.00D+00  2.20D+00
                    CP:  6.03D-01  1.08D+00  1.96D-01
     ILin= 2 X=1.200D+00 Y=-1.490639326976D+02 DE=-9.26D-05 F=  1.52D-05 OKLS=T
     Accept linear search using points  1 and  2.
     An  expanding polynomial of degree  2 produced  1.1346
     Minimum is close to point  2 DX= -6.54D-02 DF= -4.11D-07 DXR=  5.76D-02 DFR=  4.44D-03 which will be used.
 Iteration   8 EE= -149.063932697612     Delta-E=       -0.000092584075 Grad=8.838D-03 Max rot=    0.1921 deg.
 QCNR:  CnvC1=8.18D-10 CnvC2=8.18D-09
 LinEq1:  Iter=  0 NonCon=     1 RMS=1.29D-04 Max=7.42D-03 NDo=     1
 AX will form     1 AO Fock derivatives at one time.
 LinEq1:  Iter=  1 NonCon=     1 RMS=7.70D-05 Max=2.04D-03 NDo=     1
 LinEq1:  Iter=  2 NonCon=     1 RMS=4.22D-06 Max=1.70D-04 NDo=     1
 LinEq1:  Iter=  3 NonCon=     1 RMS=1.20D-06 Max=3.86D-05 NDo=     1
 LinEq1:  Iter=  4 NonCon=     1 RMS=6.75D-07 Max=2.32D-05 NDo=     1
 LinEq1:  Iter=  5 NonCon=     1 RMS=1.30D-07 Max=3.03D-06 NDo=     1
 LinEq1:  Iter=  6 NonCon=     1 RMS=4.65D-08 Max=1.19D-06 NDo=     1
 LinEq1:  Iter=  7 NonCon=     1 RMS=1.47D-08 Max=2.60D-07 NDo=     1
 LinEq1:  Iter=  8 NonCon=     1 RMS=3.58D-09 Max=6.40D-08 NDo=     1
 LinEq1:  Iter=  9 NonCon=     1 RMS=9.92D-10 Max=1.94D-08 NDo=     1
 LinEq1:  Iter= 10 NonCon=     0 RMS=2.26D-10 Max=3.58D-09 NDo=     1
 Linear equations converged to 8.183D-10 8.183D-09 after    10 iterations.
 Angle between quadratic step and gradient=  58.06 degrees.
     ILin= 1 X=0.000D+00 Y=-1.490639326976D+02 DE= 0.00D+00 F= -4.34D-04
 RMSU=  3.35D-05    CP:  9.95D-01  3.00D+00  3.00D+00  3.00D+00  1.32D+00
                    CP:  3.00D+00  3.00D+00  3.00D+00 -3.00D+00  3.00D+00
                    CP:  3.00D+00  3.00D+00  3.00D+00 -3.00D+00  3.00D+00
                    CP:  1.21D+00  3.00D+00  3.00D+00  3.00D+00
     ILin= 2 X=1.000D+00 Y=-1.490641432725D+02 DE=-2.11D-04 F=  1.92D-05 OKLS=T
     Accept linear search using points  1 and  2.
     An  expanding polynomial of degree  2 produced  0.9592
     Minimum is close to point  2 DX= -4.08D-02 DF= -3.92D-07 DXR=  4.25D-02 DFR=  1.86D-03 which will be used.
 Iteration   9 EE= -149.064143272512     Delta-E=       -0.000210574900 Grad=4.068D-04 Max rot=    0.0083 deg.
 QCNR:  CnvC1=8.18D-10 CnvC2=8.18D-09
 LinEq1:  Iter=  0 NonCon=     1 RMS=6.44D-06 Max=2.91D-04 NDo=     1
 LinEq1:  Iter=  1 NonCon=     1 RMS=1.96D-06 Max=9.15D-05 NDo=     1
 LinEq1:  Iter=  2 NonCon=     1 RMS=8.49D-07 Max=2.24D-05 NDo=     1
 LinEq1:  Iter=  3 NonCon=     1 RMS=2.23D-07 Max=9.16D-06 NDo=     1
 LinEq1:  Iter=  4 NonCon=     1 RMS=9.60D-08 Max=3.33D-06 NDo=     1
 LinEq1:  Iter=  5 NonCon=     1 RMS=3.93D-08 Max=6.58D-07 NDo=     1
 LinEq1:  Iter=  6 NonCon=     1 RMS=1.56D-08 Max=3.06D-07 NDo=     1
 LinEq1:  Iter=  7 NonCon=     1 RMS=5.12D-09 Max=1.49D-07 NDo=     1
 LinEq1:  Iter=  8 NonCon=     1 RMS=1.81D-09 Max=2.82D-08 NDo=     1
 LinEq1:  Iter=  9 NonCon=     0 RMS=4.25D-10 Max=6.91D-09 NDo=     1
 Linear equations converged to 8.183D-10 8.183D-09 after     9 iterations.
 Angle between quadratic step and gradient=  45.59 degrees.
     ILin= 1 X=0.000D+00 Y=-1.490641432725D+02 DE= 0.00D+00 F= -1.25D-06
 Restarting incremental Fock formation.
     ILin= 2 X=1.000D+00 Y=-1.490641438985D+02 DE=-6.26D-07 F= -4.94D-09 OKLS=T
     Reject lnstep IMin12=  1  2 Big=T Turn=F Min= 1.004D+00 FVal=-1.490641438985D+02 Lims=  0.00D+00  1.00D+00
 RMSU=  4.57D-06    CP:  1.00D+00
     ILin= 3 X=2.000D+00 Y=-1.490641432857D+02 DE=-1.32D-08 F=  1.23D-06
     An  expanding polynomial of degree  3 produced  1.0053
     Minimum is close to point  2 DX=  5.33D-03 DF= -1.76D-11 DXR=  5.30D-03 DFR=  2.81D-05 which will be used.
 Iteration  10 EE= -149.064143898525     Delta-E=       -0.000000626013 Grad=2.271D-06 Max rot=    0.0000 deg.
 QCNR:  CnvC1=2.27D-11 CnvC2=2.27D-10
 LinEq1:  Iter=  0 NonCon=     1 RMS=2.89D-08 Max=1.31D-06 NDo=     1
 LinEq1:  Iter=  1 NonCon=     1 RMS=7.17D-09 Max=2.30D-07 NDo=     1
 LinEq1:  Iter=  2 NonCon=     1 RMS=2.75D-09 Max=8.30D-08 NDo=     1
 LinEq1:  Iter=  3 NonCon=     1 RMS=1.17D-09 Max=4.03D-08 NDo=     1
 LinEq1:  Iter=  4 NonCon=     1 RMS=4.36D-10 Max=1.16D-08 NDo=     1
 LinEq1:  Iter=  5 NonCon=     1 RMS=1.06D-10 Max=3.01D-09 NDo=     1
 LinEq1:  Iter=  6 NonCon=     1 RMS=4.22D-11 Max=1.06D-09 NDo=     1
 LinEq1:  Iter=  7 NonCon=     1 RMS=1.85D-11 Max=3.93D-10 NDo=     1
 LinEq1:  Iter=  8 NonCon=     0 RMS=5.74D-12 Max=9.25D-11 NDo=     1
 Linear equations converged to 2.271D-11 2.271D-10 after     8 iterations.
 Angle between quadratic step and gradient=  55.07 degrees.
     ILin= 1 X=0.000D+00 Y=-1.490641438985D+02 DE= 0.00D+00 F= -2.51D-11
 RMSU=  7.66D-09    CP:  1.00D+00  4.05D-03
     ILin= 2 X=1.000D+00 Y=-1.490641438985D+02 DE=-1.23D-11
 Iteration  11 EE= -149.064143898537     Delta-E=       -0.000000000012 Grad=2.905D-08 Max rot=    0.0000 deg.
 Rotation gradient small -- convergence achieved.
 SCF Done:  E(UHF) =  -149.064143899     a.u. after   11 cycles
            Convg  =    0.2905D-07                    59 Fock formations.
              S**2 =  0.6437                  -V/T =  2.0004
 <Sx>= 0.0000 <Sy>= 0.0000 <Sz>= 0.0000 <S**2>= 0.6437 S= 0.4454
 <L.S>=  0.00000000000    
 Annihilation of the first spin contaminant:
 S**2 before annihilation     0.6437,   after     0.0666
 Leave Link  508 at Tue Jan  3 09:30:27 2023, MaxMem=   536870912 cpu:            2221.2 elap:            1110.9
 (Enter /opt/software/gaussian/g16.c01/l801.exe)
 Range of M.O.s used for correlation:     1   291
 NBasis=   291 NAE=    12 NBE=    12 NFC=     0 NFV=     0
 NROrb=    291 NOA=    12 NOB=    12 NVA=   279 NVB=   279

 **** Warning!!: The largest alpha MO coefficient is  0.18269746D+02


 **** Warning!!: The largest beta MO coefficient is  0.18851091D+02

 Leave Link  801 at Tue Jan  3 09:30:27 2023, MaxMem=   536870912 cpu:               0.1 elap:               0.0
 (Enter /opt/software/gaussian/g16.c01/l914.exe)
 UHF ground state
 Doing stability rather than CIS.
 Two-electron integral symmetry not used.
 MDV=   536870912 DFT=F DoStab=T Mixed=F DoRPA=F DoScal=F NonHer=F
 Making orbital integer symmetry assigments:
 FoFJK:  IHMeth= 1 ICntrl=       0 DoSepK=F KAlg= 0 I1Cent=           0 FoldK=F
 IRaf=         0 NMat=       2 IRICut=       1 DoRegI=T DoRafI=F ISym2E= 0 IDoP0=0 IntGTp=1.
 FoFCou: FMM=F IPFlag=           0 FMFlag=      100000 FMFlg1=           0
         NFxFlg=           0 DoJE=F BraDBF=F KetDBF=F FulRan=T
         wScrn=  0.000000 ICntrl=         0 IOpCl=  1 I1Cent=           0 NGrid=           0
         NMat0=    2 NMatS0=      2 NMatT0=    0 NMatD0=    2 NMtDS0=    0 NMtDT0=    0
 Symmetry not used in FoFCou.
    12 initial guesses have been made.
 Convergence on wavefunction:    0.001000000000000
 Davidson Disk Diagonalization:  ConvIn= 1.00D-03 SkipCon=T Conv= 1.00D-03.
 Max sub-space:  2000 roots to seek:    12 dimension of matrix:         6696
 Iteration     1 Dimension    12 NMult     0 NNew     12
 CISAX will form    12 AO SS matrices at one time.
 NMat=    12 NSing=    12 JSym2X= 0.
 Excitation Energies [eV] at current iteration:
 Root      1 :     4.648234308360798
 Root      2 :     5.182294249402468
 Root      3 :     5.542756698743155
 Root      4 :     6.262514696990518
 Root      5 :     6.521281559311378
 Root      6 :     7.188271221777558
 Root      7 :     7.275250291315507
 Root      8 :     7.719923554706126
 Root      9 :     8.042503314760681
 Root     10 :     8.939510263279791
 Root     11 :     9.669401096365968
 Root     12 :    10.346153395185308
 Iteration     2 Dimension    24 NMult    12 NNew     12
 CISAX will form    12 AO SS matrices at one time.
 NMat=    12 NSing=    12 JSym2X= 0.
 Root      1 not converged, maximum delta is    0.242525450081413
 Excitation Energies [eV] at current iteration:
 Root      1 :     3.301923217303352   Change is   -1.346311091057446
 Root      2 :     4.426912053877031   Change is   -0.755382195525437
 Root      3 :     5.052786945826017   Change is   -0.489969752917138
 Root      4 :     5.342973477707581   Change is   -1.845297744069977
 Root      5 :     5.870936288061203   Change is   -0.391578408929315
 Root      6 :     6.111976531400833   Change is   -0.409305027910545
 Root      7 :     6.947012637467719   Change is   -0.328237653847789
 Root      8 :     7.292314719631136   Change is   -0.427608835074990
 Root      9 :     7.642944956895306   Change is   -0.399558357865375
 Root     10 :     7.855105014085884   Change is   -1.814296082280085
 Root     11 :     8.039595469904286   Change is   -0.899914793375504
 Root     12 :     9.718374620962486   Change is   -0.627778774222823
 Iteration     3 Dimension    27 NMult    24 NNew      3
 CISAX will form     3 AO SS matrices at one time.
 NMat=     3 NSing=     3 JSym2X= 0.
 Root      1 not converged, maximum delta is    0.146516160328068
 Excitation Energies [eV] at current iteration:
 Root      1 :     2.803289970432585   Change is   -0.498633246870767
 Root      2 :     4.312220707189741   Change is   -0.114691346687289
 Root      3 :     5.021739995068278   Change is   -0.031046950757740
 Iteration     4 Dimension    30 NMult    27 NNew      3
 CISAX will form     3 AO SS matrices at one time.
 NMat=     3 NSing=     3 JSym2X= 0.
 Root      1 not converged, maximum delta is    0.082333597461465
 Excitation Energies [eV] at current iteration:
 Root      1 :     2.669851960531072   Change is   -0.133438009901514
 Root      2 :     4.295501167180951   Change is   -0.016719540008791
 Root      3 :     4.866149282101732
 Iteration     5 Dimension    33 NMult    30 NNew      3
 CISAX will form     3 AO SS matrices at one time.
 NMat=     3 NSing=     3 JSym2X= 0.
 Root      1 not converged, maximum delta is    0.022892278518720
 Excitation Energies [eV] at current iteration:
 Root      1 :     2.649766740154525   Change is   -0.020085220376546
 Root      2 :     4.293594215771298   Change is   -0.001906951409653
 Root      3 :     4.410116875286560   Change is   -0.456032406815172
 Iteration     6 Dimension    36 NMult    33 NNew      3
 CISAX will form     3 AO SS matrices at one time.
 NMat=     3 NSing=     3 JSym2X= 0.
 Root      1 not converged, maximum delta is    0.005761168936783
 Excitation Energies [eV] at current iteration:
 Root      1 :     2.646651756868656   Change is   -0.003114983285870
 Root      2 :     4.293301598384340   Change is   -0.000292617386958
 Root      3 :     4.328614928520012   Change is   -0.081501946766548
 Iteration     7 Dimension    39 NMult    36 NNew      3
 CISAX will form     3 AO SS matrices at one time.
 NMat=     3 NSing=     3 JSym2X= 0.
 Root      1 has converged.
 Excitation Energies [eV] at current iteration:
 Root      1 :     2.646231762750112   Change is   -0.000419994118544
 Root      2 :     4.293253930700585   Change is   -0.000047667683756
 Root      3 :     4.316542051737660   Change is   -0.012072876782353
 Convergence achieved on expansion vectors.
 ***********************************************************************
 Stability analysis using <AA,BB:AA,BB> singles matrix:
 ***********************************************************************
 1PDM for each excited state written to RWF  633
 Ground to excited state transition densities written to RWF  633

 Eigenvectors of the stability matrix:
 
 Excited state symmetry could not be determined.
 Eigenvector   1:  2.019-?Sym  Eigenvalue= 0.0972472  <S**2>=0.769
     10A -> 15A       -0.26123
     10A -> 19A       -0.10824
     10A -> 26A        0.11069
     12A -> 15A        0.81929
     12A -> 19A        0.26241
     12A -> 26A       -0.21658
     12B -> 14B       -0.10083
     12B -> 19B       -0.13613
 The wavefunction is stable under the perturbations considered.
 Leave Link  914 at Tue Jan  3 09:37:48 2023, MaxMem=   536870912 cpu:             881.5 elap:             440.7
 (Enter /opt/software/gaussian/g16.c01/l508.exe)
 The wavefunction is already stable.
 Leave Link  508 at Tue Jan  3 09:37:48 2023, MaxMem=   536870912 cpu:               0.0 elap:               0.0
 (Enter /opt/software/gaussian/g16.c01/l601.exe)
 Copying SCF densities to generalized density rwf, IOpCl= 1 IROHF=0.

 **********************************************************************

            Population analysis using the SCF Density.

 **********************************************************************

 Alpha  occ. eigenvalues --  -15.65029 -15.54643 -11.25332  -1.34057  -1.05982
 Alpha  occ. eigenvalues --   -0.85359  -0.75238  -0.64825  -0.57456  -0.56303
 Alpha  occ. eigenvalues --   -0.43379  -0.29952
 Alpha virt. eigenvalues --    0.08833   0.13160   0.14593   0.14614   0.17680
 Alpha virt. eigenvalues --    0.21430   0.23080   0.27968   0.29264   0.30316
 Alpha virt. eigenvalues --    0.35306   0.39112   0.40627   0.42037   0.44558
 Alpha virt. eigenvalues --    0.47561   0.48126   0.50509   0.54758   0.54921
 Alpha virt. eigenvalues --    0.58396   0.62470   0.64005   0.65823   0.72387
 Alpha virt. eigenvalues --    0.75780   0.79066   0.79137   0.83157   0.86096
 Alpha virt. eigenvalues --    0.87673   0.90826   0.93645   0.94311   0.97907
 Alpha virt. eigenvalues --    0.98154   1.00350   1.02725   1.06950   1.13877
 Alpha virt. eigenvalues --    1.15476   1.16252   1.19548   1.20230   1.24178
 Alpha virt. eigenvalues --    1.27036   1.28416   1.34415   1.35812   1.40258
 Alpha virt. eigenvalues --    1.42756   1.45107   1.46222   1.50733   1.58190
 Alpha virt. eigenvalues --    1.58368   1.62745   1.66985   1.73767   1.78562
 Alpha virt. eigenvalues --    1.91605   1.94511   1.97337   1.99005   2.02089
 Alpha virt. eigenvalues --    2.09363   2.10899   2.14294   2.15851   2.22749
 Alpha virt. eigenvalues --    2.22894   2.24186   2.34816   2.35412   2.39595
 Alpha virt. eigenvalues --    2.40476   2.44788   2.47205   2.50863   2.52410
 Alpha virt. eigenvalues --    2.53856   2.60696   2.61879   2.62937   2.66667
 Alpha virt. eigenvalues --    2.70037   2.72748   2.73394   2.76949   2.78959
 Alpha virt. eigenvalues --    2.83740   2.84669   2.88108   2.90315   2.94050
 Alpha virt. eigenvalues --    2.95763   2.99349   3.01443   3.04613   3.06011
 Alpha virt. eigenvalues --    3.09477   3.14664   3.16129   3.21322   3.24214
 Alpha virt. eigenvalues --    3.32395   3.35808   3.36394   3.43491   3.47812
 Alpha virt. eigenvalues --    3.57459   3.59104   3.59110   3.62421   3.64756
 Alpha virt. eigenvalues --    3.70855   3.79105   3.80952   3.83714   3.85421
 Alpha virt. eigenvalues --    3.90113   3.90465   3.97385   4.05694   4.09018
 Alpha virt. eigenvalues --    4.15546   4.18594   4.22699   4.37953   4.41020
 Alpha virt. eigenvalues --    4.49668   4.54399   4.62022   4.69053   4.72193
 Alpha virt. eigenvalues --    4.77990   4.96016   5.06542   5.22056   5.32691
 Alpha virt. eigenvalues --    5.38881   5.51687   5.56868   5.67386   5.73662
 Alpha virt. eigenvalues --    5.78679   5.82089   5.87567   5.89300   5.91676
 Alpha virt. eigenvalues --    6.06380   6.09507   6.11326   6.12743   6.22893
 Alpha virt. eigenvalues --    6.23619   6.28923   6.30988   6.34172   6.44686
 Alpha virt. eigenvalues --    6.46972   6.47767   6.60864   6.63022   6.70282
 Alpha virt. eigenvalues --    6.72783   6.75138   6.78438   6.92857   6.93029
 Alpha virt. eigenvalues --    6.94424   6.96012   7.07016   7.10619   7.16592
 Alpha virt. eigenvalues --    7.22138   7.24978   7.29877   7.32493   7.38859
 Alpha virt. eigenvalues --    7.41750   7.43853   7.53981   7.56928   7.60348
 Alpha virt. eigenvalues --    7.61600   7.62727   7.71060   7.73977   7.76845
 Alpha virt. eigenvalues --    7.80061   7.82637   7.84065   7.85741   7.89700
 Alpha virt. eigenvalues --    7.95940   8.03256   8.05344   8.10344   8.11644
 Alpha virt. eigenvalues --    8.15451   8.18814   8.24391   8.28712   8.32733
 Alpha virt. eigenvalues --    8.37059   8.39768   8.40548   8.43933   8.47875
 Alpha virt. eigenvalues --    8.48535   8.51013   8.55921   8.60610   8.62981
 Alpha virt. eigenvalues --    8.67182   8.68327   8.74328   8.81075   8.82668
 Alpha virt. eigenvalues --    8.82681   8.92238   9.00571   9.01361   9.05719
 Alpha virt. eigenvalues --    9.08478   9.08963   9.13771   9.25789   9.30823
 Alpha virt. eigenvalues --    9.33992   9.36653   9.42154   9.45821   9.56115
 Alpha virt. eigenvalues --    9.60829   9.63161   9.66025   9.73326   9.74934
 Alpha virt. eigenvalues --    9.83374   9.86119   9.86960  10.00423  10.09809
 Alpha virt. eigenvalues --   10.11233  10.16440  10.22324  10.25286  10.30000
 Alpha virt. eigenvalues --   10.38006  10.40294  10.63587  10.81502  10.85608
 Alpha virt. eigenvalues --   11.10802  11.19466  11.39520  11.45375  11.73272
 Alpha virt. eigenvalues --   11.75779  11.94907  12.08069  12.10329  12.12257
 Alpha virt. eigenvalues --   12.24642  12.35162  12.59644  12.81390  13.46642
 Alpha virt. eigenvalues --   13.76460  15.22248  15.27338  29.66690  38.77187
 Alpha virt. eigenvalues --   39.22112 150.08133 199.66378 200.12195
  Beta  occ. eigenvalues --  -15.65659 -15.56927 -11.23454  -1.36293  -1.08244
  Beta  occ. eigenvalues --   -0.83992  -0.75301  -0.64901  -0.61293  -0.56864
  Beta  occ. eigenvalues --   -0.46209  -0.35593
  Beta virt. eigenvalues --    0.08810   0.12826   0.13367   0.14644   0.17801
  Beta virt. eigenvalues --    0.21436   0.28145   0.28432   0.29627   0.30402
  Beta virt. eigenvalues --    0.34410   0.38807   0.38957   0.41091   0.44467
  Beta virt. eigenvalues --    0.47607   0.49332   0.50270   0.55595   0.56076
  Beta virt. eigenvalues --    0.57983   0.62496   0.65028   0.65933   0.71235
  Beta virt. eigenvalues --    0.75121   0.79304   0.80167   0.84531   0.86316
  Beta virt. eigenvalues --    0.89136   0.91070   0.94438   0.97740   0.98342
  Beta virt. eigenvalues --    0.99323   1.00489   1.03060   1.07473   1.13404
  Beta virt. eigenvalues --    1.15347   1.15549   1.19285   1.19781   1.22439
  Beta virt. eigenvalues --    1.26411   1.28602   1.32703   1.34477   1.39782
  Beta virt. eigenvalues --    1.40027   1.44517   1.45352   1.50490   1.57206
  Beta virt. eigenvalues --    1.57831   1.62473   1.67492   1.73681   1.78606
  Beta virt. eigenvalues --    1.94917   1.95067   1.97235   2.01003   2.02652
  Beta virt. eigenvalues --    2.10389   2.12444   2.15331   2.16403   2.23162
  Beta virt. eigenvalues --    2.23336   2.24676   2.34860   2.36091   2.39760
  Beta virt. eigenvalues --    2.40425   2.44756   2.47376   2.51430   2.52469
  Beta virt. eigenvalues --    2.54635   2.60847   2.62095   2.62820   2.67422
  Beta virt. eigenvalues --    2.69559   2.72970   2.73638   2.77152   2.77963
  Beta virt. eigenvalues --    2.83613   2.84755   2.87866   2.90148   2.94769
  Beta virt. eigenvalues --    2.95452   2.99240   3.01178   3.03588   3.06300
  Beta virt. eigenvalues --    3.09110   3.13562   3.15786   3.20867   3.24165
  Beta virt. eigenvalues --    3.30520   3.34256   3.36237   3.43507   3.46834
  Beta virt. eigenvalues --    3.57259   3.58986   3.59185   3.61628   3.65941
  Beta virt. eigenvalues --    3.70493   3.78670   3.80237   3.83125   3.84644
  Beta virt. eigenvalues --    3.87485   3.90272   3.98214   4.05372   4.09426
  Beta virt. eigenvalues --    4.15225   4.18131   4.22880   4.38139   4.40427
  Beta virt. eigenvalues --    4.49015   4.52908   4.61883   4.66218   4.71995
  Beta virt. eigenvalues --    4.77788   4.95797   5.04062   5.21621   5.32289
  Beta virt. eigenvalues --    5.39432   5.51962   5.58392   5.68245   5.74693
  Beta virt. eigenvalues --    5.80228   5.83148   5.89322   5.89717   5.92632
  Beta virt. eigenvalues --    6.07102   6.09687   6.11451   6.12786   6.23698
  Beta virt. eigenvalues --    6.24909   6.29129   6.31418   6.34450   6.45667
  Beta virt. eigenvalues --    6.47194   6.48863   6.60848   6.62483   6.69876
  Beta virt. eigenvalues --    6.73172   6.75603   6.78605   6.93003   6.93696
  Beta virt. eigenvalues --    6.94543   6.96111   7.07390   7.11279   7.16746
  Beta virt. eigenvalues --    7.21769   7.24472   7.30529   7.32075   7.39068
  Beta virt. eigenvalues --    7.41993   7.44083   7.54002   7.57127   7.59938
  Beta virt. eigenvalues --    7.61369   7.62710   7.70953   7.73789   7.76458
  Beta virt. eigenvalues --    7.79802   7.82523   7.84329   7.86022   7.89912
  Beta virt. eigenvalues --    7.95800   8.03165   8.05098   8.10340   8.11852
[...]
   185    H    4  dxy    Ryd( 3d)     0.00014       3.59775
   186    H    4  dxy    Ryd( 4d)     0.00000       8.91319
   187    H    4  dxz    Ryd( 3d)     0.00004       3.88530
   188    H    4  dxz    Ryd( 4d)     0.00000       9.10362
   189    H    4  dyz    Ryd( 3d)     0.00001       3.08029
   190    H    4  dyz    Ryd( 4d)     0.00000       8.07376
   191    H    4  dx2y2  Ryd( 3d)     0.00001       4.13223
   192    H    4  dx2y2  Ryd( 4d)     0.00001       9.09381
   193    H    4  dz2    Ryd( 3d)     0.00002       3.39740
   194    H    4  dz2    Ryd( 4d)     0.00000       8.48467
   195    H    4  f(0)   Ryd( 4f)     0.00000       6.64433
   196    H    4  f(C1)  Ryd( 4f)     0.00001       7.12654
   197    H    4  f(S1)  Ryd( 4f)     0.00000       6.36490
   198    H    4  f(C2)  Ryd( 4f)     0.00001       6.84011
   199    H    4  f(S2)  Ryd( 4f)     0.00000       6.91132
   200    H    4  f(C3)  Ryd( 4f)     0.00001       7.06307
   201    H    4  f(S3)  Ryd( 4f)     0.00000       7.09282
 
   202    H    5  S      Val( 1S)     0.43521       0.04399
   203    H    5  S      Ryd( 3S)     0.00009       1.95904
   204    H    5  S      Ryd( 2S)     0.00003       1.30191
   205    H    5  S      Ryd( 4S)     0.00001       4.82874
   206    H    5  px     Ryd( 2p)     0.00002       2.52282
   207    H    5  px     Ryd( 3p)     0.00005       4.75105
   208    H    5  px     Ryd( 4p)     0.00000       7.99515
   209    H    5  py     Ryd( 2p)     0.00003       2.08815
   210    H    5  py     Ryd( 3p)     0.00002       4.14488
   211    H    5  py     Ryd( 4p)     0.00000       7.39877
   212    H    5  pz     Ryd( 2p)     0.00017       2.95776
   213    H    5  pz     Ryd( 3p)     0.00006       6.12269
   214    H    5  pz     Ryd( 4p)     0.00000       8.14223
   215    H    5  dxy    Ryd( 3d)     0.00001       3.31559
   216    H    5  dxy    Ryd( 4d)     0.00000       8.14378
   217    H    5  dxz    Ryd( 3d)     0.00003       4.17509
   218    H    5  dxz    Ryd( 4d)     0.00000       8.79483
   219    H    5  dyz    Ryd( 3d)     0.00003       3.75882
   220    H    5  dyz    Ryd( 4d)     0.00000       8.54747
   221    H    5  dx2y2  Ryd( 3d)     0.00001       3.44573
   222    H    5  dx2y2  Ryd( 4d)     0.00000       8.19213
   223    H    5  dz2    Ryd( 3d)     0.00002       4.17328
   224    H    5  dz2    Ryd( 4d)     0.00000       8.87136
   225    H    5  f(0)   Ryd( 4f)     0.00001       7.12004
   226    H    5  f(C1)  Ryd( 4f)     0.00001       7.10891
   227    H    5  f(S1)  Ryd( 4f)     0.00001       7.01394
   228    H    5  f(C2)  Ryd( 4f)     0.00000       6.86835
   229    H    5  f(S2)  Ryd( 4f)     0.00000       6.84374
   230    H    5  f(C3)  Ryd( 4f)     0.00000       6.47226
   231    H    5  f(S3)  Ryd( 4f)     0.00000       6.45609
 
   232    H    6  S      Val( 1S)     0.42897       0.06328
   233    H    6  S      Ryd( 2S)     0.00034       1.05206
   234    H    6  S      Ryd( 3S)     0.00004       1.32465
   235    H    6  S      Ryd( 4S)     0.00002       5.65321
   236    H    6  px     Ryd( 3p)     0.00007       4.72555
   237    H    6  px     Ryd( 2p)     0.00003       2.85611
   238    H    6  px     Ryd( 4p)     0.00000       8.20658
   239    H    6  py     Ryd( 3p)     0.00002       3.94890
   240    H    6  py     Ryd( 2p)     0.00003       2.04898
   241    H    6  py     Ryd( 4p)     0.00000       7.65488
   242    H    6  pz     Ryd( 3p)     0.00015       5.46393
   243    H    6  pz     Ryd( 2p)     0.00003       3.11697
   244    H    6  pz     Ryd( 4p)     0.00000       8.31084
   245    H    6  dxy    Ryd( 3d)     0.00001       3.45750
   246    H    6  dxy    Ryd( 4d)     0.00000       8.18496
   247    H    6  dxz    Ryd( 3d)     0.00002       4.29716
   248    H    6  dxz    Ryd( 4d)     0.00000       8.75320
   249    H    6  dyz    Ryd( 3d)     0.00001       3.70525
   250    H    6  dyz    Ryd( 4d)     0.00000       8.42066
   251    H    6  dx2y2  Ryd( 3d)     0.00001       3.58993
   252    H    6  dx2y2  Ryd( 4d)     0.00000       8.26101
   253    H    6  dz2    Ryd( 3d)     0.00002       4.03030
   254    H    6  dz2    Ryd( 4d)     0.00000       8.75180
   255    H    6  f(0)   Ryd( 4f)     0.00001       7.12657
   256    H    6  f(C1)  Ryd( 4f)     0.00001       7.04620
   257    H    6  f(S1)  Ryd( 4f)     0.00001       6.95388
   258    H    6  f(C2)  Ryd( 4f)     0.00001       6.82663
   259    H    6  f(S2)  Ryd( 4f)     0.00000       6.80173
   260    H    6  f(C3)  Ryd( 4f)     0.00000       6.60944
   261    H    6  f(S3)  Ryd( 4f)     0.00000       6.58694
 
   262    H    7  S      Val( 1S)     0.30611       0.13871
   263    H    7  S      Ryd( 4S)     0.00020       3.61729
   264    H    7  S      Ryd( 2S)     0.00003       1.73200
   265    H    7  S      Ryd( 3S)     0.00000       3.40036
   266    H    7  px     Ryd( 2p)     0.00025       1.20129
   267    H    7  px     Ryd( 3p)     0.00003       5.86861
   268    H    7  px     Ryd( 4p)     0.00000       7.59748
   269    H    7  py     Ryd( 2p)     0.00047       0.95958
   270    H    7  py     Ryd( 3p)     0.00009       5.37370
   271    H    7  py     Ryd( 4p)     0.00000       6.50671
   272    H    7  pz     Ryd( 2p)     0.00084       1.21946
   273    H    7  pz     Ryd( 3p)     0.00006       7.08646
   274    H    7  pz     Ryd( 4p)     0.00000       8.01528
   275    H    7  dxy    Ryd( 3d)     0.00001       4.18367
   276    H    7  dxy    Ryd( 4d)     0.00000       7.47028
   277    H    7  dxz    Ryd( 3d)     0.00002       4.96636
   278    H    7  dxz    Ryd( 4d)     0.00001       8.54108
   279    H    7  dyz    Ryd( 3d)     0.00001       4.71835
   280    H    7  dyz    Ryd( 4d)     0.00000       7.97265
   281    H    7  dx2y2  Ryd( 3d)     0.00001       4.54053
   282    H    7  dx2y2  Ryd( 4d)     0.00000       7.46797
   283    H    7  dz2    Ryd( 3d)     0.00002       5.17917
   284    H    7  dz2    Ryd( 4d)     0.00001       8.47670
   285    H    7  f(0)   Ryd( 4f)     0.00002       7.24603
   286    H    7  f(C1)  Ryd( 4f)     0.00002       7.35865
   287    H    7  f(S1)  Ryd( 4f)     0.00001       7.06927
   288    H    7  f(C2)  Ryd( 4f)     0.00001       6.87159
   289    H    7  f(S2)  Ryd( 4f)     0.00001       6.88153
   290    H    7  f(C3)  Ryd( 4f)     0.00000       6.53937
   291    H    7  f(S3)  Ryd( 4f)     0.00000       6.47853

 WARNING:  Population inversion found on atom  C    1
           Population inversion found on atom  H    4
           Population inversion found on atom  H    5
           Population inversion found on atom  H    6
           Population inversion found on atom  H    7


 Summary of Natural Population Analysis:                  
                                                          
                                       Natural Population 
                Natural  -----------------------------------------------
    Atom  No    Charge         Core      Valence    Rydberg      Total
 -----------------------------------------------------------------------
      C    1    0.32080      0.99972     1.66608    0.01341     2.67920
      N    2   -0.25030      0.99976     2.73386    0.01667     3.75030
      N    3   -0.56297      0.99983     3.04381    0.01932     4.06297
      H    4    0.16639      0.00000     0.33200    0.00161     0.33361
      H    5    0.06415      0.00000     0.43521    0.00063     0.43585
      H    6    0.07019      0.00000     0.42897    0.00085     0.42981
      H    7    0.19174      0.00000     0.30611    0.00215     0.30826
 =======================================================================
   * Total *    0.00000      2.99931     8.94604    0.05464    12.00000

                                 Natural Population      
 --------------------------------------------------------
   Core                       2.99931 ( 99.9771% of   3)
   Valence                    8.94604 ( 99.4005% of   9)
   Natural Minimal Basis     11.94536 ( 99.5446% of  12)
   Natural Rydberg Basis      0.05464 (  0.4554% of  12)
 --------------------------------------------------------

    Atom  No          Natural Electron Configuration
 ----------------------------------------------------------------------------
      C    1      [core]2S( 0.48)2p( 1.18)3p( 0.01)
      N    2      [core]2S( 0.61)2p( 2.12)3p( 0.01)3d( 0.01)
      N    3      [core]2S( 0.78)2p( 2.26)3p( 0.01)3d( 0.01)
      H    4            1S( 0.33)
      H    5            1S( 0.44)
      H    6            1S( 0.43)
      H    7            1S( 0.31)


 NBO analysis skipped by request.
 Leave Link  607 at Tue Jan  3 09:38:14 2023, MaxMem=   536870912 cpu:               4.0 elap:               2.0
 (Enter /opt/software/gaussian/g16.c01/l701.exe)
 ... and contract with generalized density number  0.
 Compute integral first derivatives.
 Leave Link  701 at Tue Jan  3 09:38:15 2023, MaxMem=   536870912 cpu:               0.5 elap:               0.3
 (Enter /opt/software/gaussian/g16.c01/l702.exe)
 L702 exits ... SP integral derivatives will be done elsewhere.
 Leave Link  702 at Tue Jan  3 09:38:15 2023, MaxMem=   536870912 cpu:               0.1 elap:               0.0
 (Enter /opt/software/gaussian/g16.c01/l703.exe)
 Integral derivatives from FoFJK, PRISM(SPDF).
 Compute integral first derivatives, UseDBF=F ICtDFT=           0.
 Calling FoFJK, ICntrl=      2127 FMM=F ISym2X=0 I1Cent= 0 IOpClX= 1 NMat=1 NMatS=1 NMatT=0.
 FoFJK:  IHMeth= 1 ICntrl=    2127 DoSepK=F KAlg= 0 I1Cent=           0 FoldK=F
 IRaf=         0 NMat=       1 IRICut=       1 DoRegI=T DoRafI=F ISym2E= 0 IDoP0=0 IntGTp=1.
 FoFCou: FMM=F IPFlag=           0 FMFlag=      100000 FMFlg1=         800
         NFxFlg=           0 DoJE=F BraDBF=F KetDBF=F FulRan=T
         wScrn=  0.000000 ICntrl=      2127 IOpCl=  1 I1Cent=           0 NGrid=           0
         NMat0=    1 NMatS0=      1 NMatT0=    0 NMatD0=    1 NMtDS0=    0 NMtDT0=    0
 Symmetry not used in FoFCou.
 Leave Link  703 at Tue Jan  3 09:39:40 2023, MaxMem=   536870912 cpu:             170.6 elap:              85.3
 (Enter /opt/software/gaussian/g16.c01/l716.exe)
 Dipole        = 1.89372426D-01 2.93982073D-01 1.09177789D+00
 -------------------------------------------------------------------
 Center     Atomic                   Forces (Hartrees/Bohr)
 Number     Number              X              Y              Z
 -------------------------------------------------------------------
      1        6          -0.042357741   -0.001583495   -0.004968631
      2        7           0.045191935    0.008661686    0.031295986
      3        7           0.011562679   -0.000320557   -0.001446918
      4        1          -0.015291838   -0.000963988   -0.003260357
      5        1           0.004338606   -0.003332348   -0.012521237
      6        1           0.005485109    0.003300092    0.012178365
      7        1          -0.008928751   -0.005761390   -0.021277208
 -------------------------------------------------------------------
 Cartesian Forces:  Max     0.045191935 RMS     0.017239315
 Z-matrix is all fixed cartesians, so copy forces.
 Force constants in Cartesian coordinates: 
                1             2             3             4             5 
      1  0.979681D+00
      2 -0.379301D-03  0.213865D+00
      3 -0.190645D-01  0.142607D+00  0.707620D+00
      4 -0.643805D+00  0.579070D-02  0.334547D-01  0.112567D+01
      5  0.632347D-02 -0.106234D+00 -0.223587D-01 -0.331382D-01  0.255501D+00
      6  0.354270D-01 -0.223469D-01 -0.184344D+00 -0.143773D+00  0.210309D+00
      7  0.271848D-02  0.887848D-02  0.332925D-01 -0.285848D+00  0.632473D-01
      8  0.405863D-03  0.125485D-01  0.280651D-02  0.556667D-01 -0.952295D-01
      9  0.171151D-02  0.262289D-02  0.215325D-01  0.212339D+00 -0.116800D+00
     10  0.000000D+00 -0.399533D-04  0.107186D-04 -0.760156D-02 -0.133499D-02
     11 -0.399096D-04  0.681015D-02 -0.182702D-02  0.704590D-02  0.450257D-02
     12  0.107071D-04 -0.182705D-02  0.490159D-03  0.265068D-01  0.370720D-02
     13 -0.151899D+00  0.232181D-01  0.887550D-01  0.227506D-02  0.740187D-02
     14  0.222321D-01 -0.700228D-01 -0.649731D-01  0.189247D-03  0.144423D-01
     15  0.850866D-01 -0.649992D-01 -0.296927D+00  0.973426D-03 -0.504849D-03
     16 -0.184388D+00 -0.297881D-01 -0.108208D+00 -0.207961D-02 -0.693893D-02
     17 -0.287722D-01 -0.722180D-01 -0.562752D-01  0.243717D-03  0.170004D-01
     18 -0.104411D+00 -0.562483D-01 -0.264302D+00  0.132579D-02  0.166311D-04
     19 -0.230818D-02 -0.767988D-02 -0.282404D-01 -0.188615D+00 -0.355605D-01
     20  0.229955D-03  0.152509D-01  0.203553D-04 -0.357981D-01 -0.899827D-01
     21  0.124008D-02  0.191593D-03  0.159310D-01 -0.130826D+00 -0.743693D-01
                6             7             8             9            10 
      6  0.986309D+00
      7  0.240594D+00  0.668956D+00
      8 -0.116633D+00 -0.324380D-01  0.846813D-01
      9 -0.504269D+00 -0.134507D+00  0.140554D+00  0.574006D+00
     10 -0.473293D-02 -0.410677D+00 -0.278084D-01 -0.950666D-01  0.418278D+00
     11  0.352379D-02 -0.361895D-01 -0.231711D-01 -0.184397D-01  0.291372D-01
     12  0.167545D-01 -0.126306D+00 -0.186231D-01 -0.846654D-01  0.998012D-01
     13  0.278675D-01  0.000000D+00 -0.447309D-04  0.120004D-04  0.000000D+00
     14 -0.347895D-03 -0.447767D-04  0.764067D-02 -0.204983D-02  0.000000D+00
     15  0.126317D-01  0.120092D-04 -0.204924D-02  0.549768D-03  0.000000D+00
     16 -0.254401D-01  0.000000D+00  0.448748D-04 -0.120390D-04  0.000000D+00
     17 -0.139769D-03  0.448434D-04 -0.765204D-02  0.205288D-02  0.000000D+00
     18  0.170683D-01 -0.120329D-04  0.205329D-02 -0.550853D-03  0.000000D+00
     19 -0.129942D+00  0.248506D-01  0.417370D-02  0.155231D-01  0.000000D+00
     20 -0.743652D-01 -0.349835D-02  0.211822D-01 -0.794026D-02  0.462088D-04
     21 -0.344150D+00 -0.130734D-01 -0.810855D-02 -0.660326D-02 -0.123974D-04
               11            12            13            14            15 
     11  0.197348D-01
     12  0.146298D-01  0.679877D-01
     13  0.000000D+00  0.000000D+00  0.120347D+00
     14  0.000000D+00  0.000000D+00 -0.258292D-01  0.469624D-01
     15  0.000000D+00  0.000000D+00 -0.983283D-01  0.699484D-01  0.291298D+00
     16  0.000000D+00  0.000000D+00  0.292766D-01  0.340314D-02  0.122695D-01
     17  0.000000D+00  0.000000D+00 -0.479540D-02  0.941143D-02 -0.465711D-02
     18  0.000000D+00  0.000000D+00 -0.182930D-01 -0.484049D-02 -0.694563D-02
     19  0.463037D-04 -0.124225D-04  0.000000D+00  0.494397D-04 -0.132598D-04
     20 -0.787642D-02  0.211311D-02  0.493749D-04 -0.843392D-02  0.226199D-02
     21  0.211317D-02 -0.566929D-03 -0.132473D-04  0.226283D-02 -0.606894D-03
               16            17            18            19            20 
     16  0.157191D+00
     17  0.333285D-01  0.450118D-01
     18  0.121377D+00  0.612854D-01  0.254122D+00
     19  0.000000D+00 -0.495133D-04  0.132860D-04  0.166072D+00
     20 -0.495337D-04  0.844647D-02 -0.226646D-02  0.390205D-01  0.614135D-01
     21  0.132899D-04 -0.226619D-02  0.608092D-03  0.142672D+00  0.801764D-01
               21 
     21  0.335388D+00
 Leave Link  716 at Tue Jan  3 09:39:40 2023, MaxMem=   536870912 cpu:               0.1 elap:               0.1
 (Enter /opt/software/gaussian/g16.c01/l103.exe)

 GradGradGradGradGradGradGradGradGradGradGradGradGradGradGradGradGradGrad
 Berny optimization.
 Search for a local minimum.
 Step number   1 out of a maximum of    2
 All quantities printed in internal units (Hartrees-Bohrs-Radians)
 Second derivative matrix not updated -- first step.
 ITU=  0
     Eigenvalues ---    0.02409   0.03062   0.03370   0.05977   0.08903
     Eigenvalues ---    0.11483   0.14278   0.19866   0.30111   0.35087
     Eigenvalues ---    0.61127   0.81664   1.00827   1.49337   1.92763
 Angle between quadratic step and forces=  55.91 degrees.
 Linear search not attempted -- first point.
 B after Tr=     0.001790    0.001763    0.006541
         Rot=    1.000000   -0.000001    0.000279   -0.000075 Ang=  -0.03 deg.
 Variable       Old X    -DE/DX   Delta X   Delta X   Delta X     New X
                                 (Linear)    (Quad)   (Total)
    X1        2.02695  -0.04236   0.00000  -0.01664  -0.01466   2.01229
    Y1       -0.13266  -0.00158   0.00000  -0.00215  -0.00008  -0.13274
    Z1       -0.28915  -0.00497   0.00000  -0.00762   0.00004  -0.28911
    X2        4.49366   0.04519   0.00000   0.03684   0.03890   4.53256
    Y2       -0.16959   0.00866   0.00000   0.01073   0.01317  -0.15643
    Z2       -0.48072   0.03130   0.00000   0.03920   0.04826  -0.43245
    X3        5.82670   0.01156   0.00000  -0.01289  -0.00962   5.81707
    Y3       -0.69631  -0.00032   0.00000   0.00117   0.00381  -0.69249
    Z3       -2.47314  -0.00145   0.00000   0.00467   0.01445  -2.45869
    X4        7.67994  -0.01529   0.00000  -0.03880  -0.03580   7.64414
    Y4       -0.55307  -0.00096   0.00000  -0.00867  -0.00576  -0.55883
    Z4       -1.97975  -0.00326   0.00000  -0.03156  -0.02076  -2.00051
    X5        1.20935   0.00434   0.00000  -0.04236  -0.04144   1.16791
    Y5        0.34989  -0.00333   0.00000  -0.01603  -0.01409   0.33580
    Z5        1.52789  -0.01252   0.00000  -0.05888  -0.05169   1.47621
    X6        0.91282   0.00549   0.00000   0.01668   0.01963   0.93245
    Y6       -0.58578   0.00330   0.00000   0.00436   0.00627  -0.57951
    Z6       -1.95346   0.01218   0.00000   0.01588   0.02294  -1.93052
    X7        5.41879  -0.00893   0.00000   0.04188   0.04300   5.46178
    Y7        0.27567  -0.00576   0.00000  -0.00589  -0.00331   0.27236
    Z7        1.15865  -0.02128   0.00000  -0.02284  -0.01325   1.14540
         Item               Value     Threshold  Converged?
 Maximum Force            0.045192     0.000450     NO 
 RMS     Force            0.017239     0.000300     NO 
 Maximum Displacement     0.051687     0.001800     NO 
 RMS     Displacement     0.025697     0.001200     NO 
 Predicted change in Energy=-2.665401D-03
 GradGradGradGradGradGradGradGradGradGradGradGradGradGradGradGradGradGrad

 Leave Link  103 at Tue Jan  3 09:39:40 2023, MaxMem=   536870912 cpu:               0.1 elap:               0.0
 (Enter /opt/software/gaussian/g16.c01/l9999.exe)
 Unable to Open any file for archive entry.
 1\1\GINC-GRA733\Force\UHF\Gen\C1H4N2\BHAVUK\03-Jan-2023\0\\#p uhf/chkb
 asis force guess=read geom=check scf=(maxcycle=900,verytightlineq,xqc)
  integral=grid=ultrafine symmetry=None density=current pop=(cm5,hlygat
 ,mbs,npa) output=wfx\\0001_q000_m01_k00_opt_uwb97xd_def2svpd/0001_q000
 _m01_k00_force_uhf_def2qzvp stable-force\\0,1\C,1.0726168695,-0.070199
 1232,-0.153012633\N,2.3779437514,-0.0897456927,-0.2543854931\N,3.08335
 54789,-0.3684697824,-1.3087287982\H,4.0640493508,-0.2926697434,-1.0476
 368317\H,0.6399628731,0.1851542916,0.8085260928\H,0.4830438364,-0.3099
 796861,-1.0337247999\H,2.8674978397,0.1458797364,0.6131324666\\Version
 =ES64L-G16RevC.01\HF=-149.0641439\S2=0.643747\S2-1=0.\S2A=0.066639\RMS
 D=7.097e-11\RMSF=1.724e-02\Dipole=0.1893724,0.2939821,1.0917779\Quadru
 pole=4.352651,-1.7946984,-2.5579526,1.5576347,5.7205242,-0.2663677\PG=
 Unknown\\@
 The archive entry for this job was punched.

 Writing a WFNX file to "0001_q000_m01_k00_force_uhf_def2qzvp.wfx"


 O WAD SOME POWER THE GIFTIE GIE US       
 TO SEE OURSELS AS OTHERS SEE US.....     
 IT WOULD FRAE MONIE A BLUNDER FREE US,   
                     AND FOOLISH NOTION...
 WHAT AIRS IN DRESS AND GAIT WAD LEA'E US,
                     AND EV'N DEVOTION....
                                          
              (ROBERT BURNS 'TO A LOUSE') 
 Job cpu time:       0 days  0 hours  3 minutes 41.3 seconds.
 Elapsed time:       0 days  0 hours  1 minutes 50.4 seconds.
 File lengths (MBytes):  RWF=     84 Int=      0 D2E=      0 Chk=     11 Scr=      1
 Normal termination of Gaussian 16 at Tue Jan  3 09:39:40 2023.
