 Entering Gaussian System, Link 0=g16
 Input=0001_q000_m01_k00_force_uwb97xd_def2svpd.com
 Output=0001_q000_m01_k00_force_uwb97xd_def2svpd.log
 Initial command:
 /opt/software/gaussian/g16.c01/l1.exe "/localscratch/bhavuk.2151349.0/Gau-16752.inp" -scrdir="/localscratch/bhavuk.2151349.0/"
 Entering Link 1 = /opt/software/gaussian/g16.c01/l1.exe PID=     16753.
  
 Copyright (c) 1988-2019, Gaussian, Inc.  All Rights Reserved.
  
 This is part of the Gaussian(R) 16 program.  It is based on
 the Gaussian(R) 09 system (copyright 2009, Gaussian, Inc.),
 the Gaussian(R) 03 system (copyright 2003, Gaussian, Inc.),
 the Gaussian(R) 98 system (copyright 1998, Gaussian, Inc.),
 the Gaussian(R) 94 system (copyright 1995, Gaussian, Inc.),
 the Gaussian 92(TM) system (copyright 1992, Gaussian, Inc.),
 the Gaussian 90(TM) system (copyright 1990, Gaussian, Inc.),
 the Gaussian 88(TM) system (copyright 1988, Gaussian, Inc.),
 the Gaussian 86(TM) system (copyright 1986, Carnegie Mellon
 University), and the Gaussian 82(TM) system (copyright 1983,
 Carnegie Mellon University). Gaussian is a federally registered
 trademark of Gaussian, Inc.
  
 This software contains proprietary and confidential information,
 including trade secrets, belonging to Gaussian, Inc.
  
 This software is provided under written license and may be
 used, copied, transmitted, or stored only in accord with that
 written license.
  
 The following legend is applicable only to US Government
 contracts under FAR:
  
                    RESTRICTED RIGHTS LEGEND
  
 Use, reproduction and disclosure by the US Government is
 subject to restrictions as set forth in subparagraphs (a)
 and (c) of the Commercial Computer Software - Restricted
 Rights clause in FAR 52.227-19.
  
 Gaussian, Inc.
 340 Quinnipiac St., Bldg. 40, Wallingford CT 06492
  
  
 ---------------------------------------------------------------
 Warning -- This program may not be used in any manner that
 competes with the business of Gaussian, Inc. or will provide
 assistance to any competitor of Gaussian, Inc.  The licensee
 of this program is prohibited from giving any competitor of
 Gaussian, Inc. access to this program.  By using this program,
 the user acknowledges that Gaussian, Inc. is engaged in the
 business of creating and licensing software in the field of
 computational chemistry and represents and warrants to the
 licensee that it is not a competitor of Gaussian, Inc. and that
 it will not use this program in any manner prohibited above.
 ---------------------------------------------------------------
  

 Cite this work as:
 Gaussian 16, Revision C.01,
 M. J. Frisch, G. W. Trucks, H. B. Schlegel, G. E. Scuseria, 
 M. A. Robb, J. R. Cheeseman, G. Scalmani, V. Barone, 
 G. A. Petersson, H. Nakatsuji, X. Li, M. Caricato, A. V. Marenich, 
 J. Bloino, B. G. Janesko, R. Gomperts, B. Mennucci, H. P. Hratchian, 
 J. V. Ortiz, A. F. Izmaylov, J. L. Sonnenberg, D. Williams-Young, 
 F. Ding, F. Lipparini, F. Egidi, J. Goings, B. Peng, A. Petrone, 
 T. Henderson, D. Ranasinghe, V. G. Zakrzewski, J. Gao, N. Rega, 
 G. Zheng, W. Liang, M. Hada, M. Ehara, K. Toyota, R. Fukuda, 
 J. Hasegawa, M. Ishida, T. Nakajima, Y. Honda, O. Kitao, H. Nakai, 
 T. Vreven, K. Throssell, J. A. Montgomery, Jr., J. E. Peralta, 
 F. Ogliaro, M. J. Bearpark, J. J. Heyd, E. N. Brothers, K. N. Kudin, 
 V. N. Staroverov, T. A. Keith, R. Kobayashi, J. Normand, 
 K. Raghavachari, A. P. Rendell, J. C. Burant, S. S. Iyengar, 
 J. Tomasi, M. Cossi, J. M. Millam, M. Klene, C. Adamo, R. Cammi, 
 J. W. Ochterski, R. L. Martin, K. Morokuma, O. Farkas, 
 J. B. Foresman, and D. J. Fox, Gaussian, Inc., Wallingford CT, 2019.
 
 ******************************************
 Gaussian 16:  ES64L-G16RevC.01  3-Jul-2019
                 3-Jan-2023 
 ******************************************
 %chk=0001_q000_m01_k00_force_uwb97xd_def2svpd.chk
 %nprocshared=2
 Will use up to    2 processors via shared memory.
 %mem=4GB
 ----------------------------------------------------------------------
 #p uwb97xd/gen stable=opt scf=(maxcycle=900,verytightlineq,xqc) integr
 al=grid=ultrafine symmetry=None density=current iop(99/18=-1) output=w
 fn
 ----------------------------------------------------------------------
 1/38=1,172=1/1;
 2/12=2,15=3,17=6,18=5,40=1/2;
 3/5=7,11=2,25=1,30=1,74=-58,75=-5,116=2/1,2,3;
 4//1;
 5/5=2,7=900,8=3,13=1,17=3,38=5/2,8;
 6/7=2,8=2,9=2,10=2,22=-1,28=1/1;
 8/6=1,10=90,11=11/1;
 9/8=-3,42=1,46=1/14;
 5/5=2,7=900,8=3,17=43,38=5/8(-2);
 6/7=2,8=2,9=2,10=2,22=-1,28=1/1;
 99/5=1,6=100,9=1,18=-1/99;
 Leave Link    1 at Tue Jan  3 09:03:56 2023, MaxMem=   536870912 cpu:               0.2 elap:               0.1
 (Enter /opt/software/gaussian/g16.c01/l101.exe)
 ----------------------------------------------------------------------
 0001_q000_m01_k00_opt_uwb97xd_def2svpd/0001_q000_m01_k00_force_uwb97xd
 _def2svpd stable-force
 ----------------------------------------------------------------------
 Symbolic Z-matrix:
 Charge =  0 Multiplicity = 1
 C                     1.07262  -0.0702   -0.15301 
 N                     2.37794  -0.08975  -0.25439 
 N                     3.08336  -0.36847  -1.30873 
 H                     4.06405  -0.29267  -1.04764 
 H                     0.63996   0.18515   0.80853 
 H                     0.48304  -0.30998  -1.03372 
 H                     2.8675    0.14588   0.61313 
 
 ITRead=  0  0  0  0  0  0  0
 MicOpt= -1 -1 -1 -1 -1 -1 -1
 NAtoms=      7 NQM=        7 NQMF=       0 NMMI=      0 NMMIF=      0
                NMic=       0 NMicF=      0.
                    Isotopes and Nuclear Properties:
 (Nuclear quadrupole moments (NQMom) in fm**2, nuclear magnetic moments (NMagM)
  in nuclear magnetons)

  Atom         1           2           3           4           5           6           7
 IAtWgt=          12          14          14           1           1           1           1
 AtmWgt=  12.0000000  14.0030740  14.0030740   1.0078250   1.0078250   1.0078250   1.0078250
 NucSpn=           0           2           2           1           1           1           1
 AtZEff=  -0.0000000  -0.0000000  -0.0000000  -0.0000000  -0.0000000  -0.0000000  -0.0000000
 NQMom=    0.0000000   2.0440000   2.0440000   0.0000000   0.0000000   0.0000000   0.0000000
 NMagM=    0.0000000   0.4037610   0.4037610   2.7928460   2.7928460   2.7928460   2.7928460
 AtZNuc=   6.0000000   7.0000000   7.0000000   1.0000000   1.0000000   1.0000000   1.0000000
 Leave Link  101 at Tue Jan  3 09:03:56 2023, MaxMem=   536870912 cpu:               0.5 elap:               0.3
 (Enter /opt/software/gaussian/g16.c01/l202.exe)
                          Input orientation:                          
 ---------------------------------------------------------------------
 Center     Atomic      Atomic             Coordinates (Angstroms)
 Number     Number       Type             X           Y           Z
 ---------------------------------------------------------------------
      1          6           0        1.072617   -0.070199   -0.153013
      2          7           0        2.377944   -0.089746   -0.254385
      3          7           0        3.083355   -0.368470   -1.308729
      4          1           0        4.064049   -0.292670   -1.047637
      5          1           0        0.639963    0.185154    0.808526
      6          1           0        0.483044   -0.309980   -1.033725
      7          1           0        2.867498    0.145880    0.613132
 ---------------------------------------------------------------------
                    Distance matrix (angstroms):
                    1          2          3          4          5
     1  C    0.000000
     2  N    1.309403   0.000000
     3  N    2.338315   1.298820   0.000000
     4  H    3.130258   1.874401   1.017681   0.000000
     5  H    1.084874   2.055706   3.280158   3.924032   0.000000
     6  H    1.086621   2.060708   2.615467   3.581074   1.914071
     7  H    1.963483   1.023606   2.001175   2.093374   2.236433
                    6          7
     6  H    0.000000
     7  H    2.933525   0.000000
 Symmetry turned off by external request.
 Stoichiometry    CH4N2
 Rotational constants (GHZ):          71.2642239          11.2793619           9.7380671
 Leave Link  202 at Tue Jan  3 09:03:56 2023, MaxMem=   536870912 cpu:               0.0 elap:               0.0
 (Enter /opt/software/gaussian/g16.c01/l301.exe)
 General basis read from cards:  (5D, 7F)
 Centers:       4      5      6      7
 S 3 1.00
     Exponent=  1.3010701000D+01 Coefficients=  1.9682158000D-02
     Exponent=  1.9622572000D+00 Coefficients=  1.3796524000D-01
     Exponent=  4.4453796000D-01 Coefficients=  4.7831935000D-01
 S 1 1.00
     Exponent=  1.2194962000D-01 Coefficients=  1.0000000000D+00
 P 1 1.00
     Exponent=  8.0000000000D-01 Coefficients=  1.0000000000D+00
 P 1 1.00
     Exponent=  1.1704099050D-01 Coefficients=  1.0000000000D+00
 ****
 Centers:       1
 S 5 1.00
     Exponent=  1.2384016938D+03 Coefficients=  5.4568832082D-03
     Exponent=  1.8629004992D+02 Coefficients=  4.0638409211D-02
     Exponent=  4.2251176346D+01 Coefficients=  1.8025593888D-01
     Exponent=  1.1676557932D+01 Coefficients=  4.6315121755D-01
     Exponent=  3.5930506482D+00 Coefficients=  4.4087173314D-01
 S 1 1.00
     Exponent=  4.0245147363D-01 Coefficients=  1.0000000000D+00
 S 1 1.00
     Exponent=  1.3090182668D-01 Coefficients=  1.0000000000D+00
 S 1 1.00
     Exponent=  6.7053540256D-02 Coefficients=  1.0000000000D+00
 P 3 1.00
     Exponent=  9.4680970621D+00 Coefficients=  3.8387871728D-02
     Exponent=  2.0103545142D+00 Coefficients=  2.1117025112D-01
     Exponent=  5.4771004707D-01 Coefficients=  5.1328172114D-01
 P 1 1.00
     Exponent=  1.5268613795D-01 Coefficients=  1.0000000000D+00
 D 1 1.00
     Exponent=  8.0000000000D-01 Coefficients=  1.0000000000D+00
 D 1 1.00
     Exponent=  1.1713185140D-01 Coefficients=  1.0000000000D+00
 ****
 Centers:       2      3
 S 5 1.00
     Exponent=  1.7128415853D+03 Coefficients= -5.3934125305D-03
     Exponent=  2.5764812677D+02 Coefficients= -4.0221581118D-02
     Exponent=  5.8458245853D+01 Coefficients= -1.7931144990D-01
     Exponent=  1.6198367905D+01 Coefficients= -4.6376317823D-01
     Exponent=  5.0052600809D+00 Coefficients= -4.4171422662D-01
 S 1 1.00
     Exponent=  5.8731856571D-01 Coefficients=  1.0000000000D+00
 S 1 1.00
     Exponent=  1.8764592253D-01 Coefficients=  1.0000000000D+00
 S 1 1.00
     Exponent=  9.6171241529D-02 Coefficients=  1.0000000000D+00
 P 3 1.00
     Exponent=  1.3571470233D+01 Coefficients= -4.0072398852D-02
     Exponent=  2.9257372874D+00 Coefficients= -2.1807045028D-01
     Exponent=  7.9927750754D-01 Coefficients= -5.1294466049D-01
 P 1 1.00
     Exponent=  2.1954348034D-01 Coefficients=  1.0000000000D+00
 D 1 1.00
     Exponent=  1.0000000000D+00 Coefficients=  1.0000000000D+00
 D 1 1.00
     Exponent=  1.6697708112D-01 Coefficients=  1.0000000000D+00
 ****
 Ernie: Thresh=  0.10000D-02 Tol=  0.10000D-05 Strict=F.
    92 basis functions,   136 primitive gaussians,    98 cartesian basis functions
    12 alpha electrons       12 beta electrons
       nuclear repulsion energy        73.3825490640 Hartrees.
 IExCor= 4639 DFT=T Ex+Corr=wB97XD ExCW=0 ScaHFX=  1.000000
 ScaDFX=  1.000000  1.000000  1.000000  1.000000 ScalE2=  1.000000  1.000000
 IRadAn=      5 IRanWt=     -1 IRanGd=            0 ICorTp=0 IEmpDi=121
 HFx  wShort=  0.000000 wLong=  0.200000 cFull=  0.222036 cShort=  0.000000 cLong=  0.777964
 DFx  wShort=  0.000000 wLong=  0.200000 cFull=  0.000000 cShort=  0.000000 cLong=  1.000000
 NAtoms=    7 NActive=    7 NUniq=    7 SFac= 1.00D+00 NAtFMM=   60 NAOKFM=F Big=F
 Integral buffers will be    131072 words long.
 Raffenetti 2 integral format.
 Two-electron integral symmetry is turned off.
 R6Disp:  Grimme-D2 Dispersion energy=       -0.0012232174 Hartrees.
 Nuclear repulsion after empirical dispersion term =       73.3813258467 Hartrees.
 Leave Link  301 at Tue Jan  3 09:03:56 2023, MaxMem=   536870912 cpu:               0.2 elap:               0.1
 (Enter /opt/software/gaussian/g16.c01/l302.exe)
 NPDir=0 NMtPBC=     1 NCelOv=     1 NCel=       1 NClECP=     1 NCelD=      1
         NCelK=      1 NCelE2=     1 NClLst=     1 CellRange=     0.0.
 One-electron integrals computed using PRISM.
 NBasis=    92 RedAO= T EigKep=  2.51D-04  NBF=    92
 NBsUse=    92 1.00D-06 EigRej= -1.00D+00 NBFU=    92
 Precomputing XC quadrature grid using
 IXCGrd= 4 IRadAn=           5 IRanWt=          -1 IRanGd=           0 AccXCQ= 0.00D+00.
 Generated NRdTot=       0 NPtTot=           0 NUsed=           0 NTot=          32
 NSgBfM=    98    98    98    98    98 MxSgAt=     7 MxSgA2=     7.
 Leave Link  302 at Tue Jan  3 09:03:56 2023, MaxMem=   536870912 cpu:               0.4 elap:               0.2
 (Enter /opt/software/gaussian/g16.c01/l303.exe)
 DipDrv:  MaxL=1.
 Leave Link  303 at Tue Jan  3 09:03:56 2023, MaxMem=   536870912 cpu:               0.1 elap:               0.1
 (Enter /opt/software/gaussian/g16.c01/l401.exe)
 ExpMin= 6.71D-02 ExpMax= 1.71D+03 ExpMxC= 2.58D+02 IAcc=3 IRadAn=         5 AccDes= 0.00D+00
 Harris functional with IExCor= 4639 and IRadAn=       5 diagonalized for initial guess.
 HarFok:  IExCor= 4639 AccDes= 0.00D+00 IRadAn=         5 IDoV= 1 UseB2=F ITyADJ=14
 ICtDFT=  3500011 ScaDFX=  1.000000  1.000000  1.000000  1.000000
 FoFCou: FMM=F IPFlag=           0 FMFlag=      100000 FMFlg1=           0
         NFxFlg=           0 DoJE=T BraDBF=F KetDBF=T FulRan=T
         wScrn=  0.000000 ICntrl=       500 IOpCl=  0 I1Cent=   200000004 NGrid=           0
         NMat0=    1 NMatS0=      1 NMatT0=    0 NMatD0=    1 NMtDS0=    0 NMtDT0=    0
 Symmetry not used in FoFCou.
 Harris En= -143.442389946002    
 JPrj=0 DoOrth=F DoCkMO=F.
 Initial guess <Sx>= 0.0000 <Sy>= 0.0000 <Sz>= 0.0000 <S**2>= 0.0000 S= 0.0000
 Leave Link  401 at Tue Jan  3 09:03:57 2023, MaxMem=   536870912 cpu:               1.4 elap:               0.7
 (Enter /opt/software/gaussian/g16.c01/l502.exe)
 Keep R1 and R2 ints in memory in canonical form, NReq=38859074.
 FoFCou: FMM=F IPFlag=           0 FMFlag=           0 FMFlg1=           0
         NFxFlg=           0 DoJE=F BraDBF=F KetDBF=F FulRan=T
         wScrn=  0.000000 ICntrl=       600 IOpCl=  0 I1Cent=           0 NGrid=           0
         NMat0=    1 NMatS0=   4278 NMatT0=    0 NMatD0=    1 NMtDS0=    0 NMtDT0=    0
 Symmetry not used in FoFCou.
 Two-electron integral symmetry not used.
 UHF open shell SCF:
 Using DIIS extrapolation, IDIIS=  1040.
 NGot=   536870912 LenX=   500238972 LenY=   500228927
 Requested convergence on RMS density matrix=1.00D-08 within 128 cycles.
 Requested convergence on MAX density matrix=1.00D-06.
 Requested convergence on             energy=1.00D-06.
 No special actions if energy rises.
 Integral accuracy reduced to 1.0D-05 until final iterations.

 Cycle   1  Pass 0  IDiag  1:
 E= -149.691194795484    
 DIIS: error= 3.36D-02 at cycle   1 NSaved=   1.
 NSaved= 1 IEnMin= 1 EnMin= -149.691194795484     IErMin= 1 ErrMin= 3.36D-02
 ErrMax= 3.36D-02  0.00D+00 EMaxC= 1.00D-01 BMatC= 5.35D-01 BMatP= 5.35D-01
 IDIUse=3 WtCom= 6.64D-01 WtEn= 3.36D-01
 Coeff-Com:  0.100D+01
 Coeff-En:   0.100D+01
 Coeff:      0.100D+01
 Gap=     0.274 Goal=   None    Shift=    0.000
 Gap=     0.274 Goal=   None    Shift=    0.000
 GapD=    0.274 DampG=1.000 DampE=0.500 DampFc=0.5000 IDamp=-1.
 Damping current iteration by 5.00D-01
 RMSDP=8.42D-03 MaxDP=1.65D-01              OVMax= 1.88D-01

 Cycle   2  Pass 0  IDiag  1:
 E= -149.726903271509     Delta-E=       -0.035708476025 Rises=F Damp=T
 DIIS: error= 1.51D-02 at cycle   2 NSaved=   2.
 NSaved= 2 IEnMin= 2 EnMin= -149.726903271509     IErMin= 2 ErrMin= 1.51D-02
 ErrMax= 1.51D-02  0.00D+00 EMaxC= 1.00D-01 BMatC= 6.29D-02 BMatP= 5.35D-01
 IDIUse=3 WtCom= 8.49D-01 WtEn= 1.51D-01
 Coeff-Com: -0.258D-01 0.103D+01
 Coeff-En:   0.111D+00 0.889D+00
 Coeff:     -0.506D-02 0.101D+01
 Gap=     0.309 Goal=   None    Shift=    0.000
 Gap=     0.309 Goal=   None    Shift=    0.000
 RMSDP=2.73D-03 MaxDP=4.72D-02 DE=-3.57D-02 OVMax= 1.31D-01

 Cycle   3  Pass 0  IDiag  1:
 E= -149.770838872698     Delta-E=       -0.043935601190 Rises=F Damp=F
 DIIS: error= 5.35D-03 at cycle   3 NSaved=   3.
 NSaved= 3 IEnMin= 3 EnMin= -149.770838872698     IErMin= 3 ErrMin= 5.35D-03
 ErrMax= 5.35D-03  0.00D+00 EMaxC= 1.00D-01 BMatC= 1.57D-02 BMatP= 6.29D-02
 IDIUse=3 WtCom= 9.46D-01 WtEn= 5.35D-02
 Coeff-Com: -0.115D+00 0.315D+00 0.800D+00
 Coeff-En:   0.000D+00 0.000D+00 0.100D+01
 Coeff:     -0.109D+00 0.298D+00 0.811D+00
 Gap=     0.326 Goal=   None    Shift=    0.000
 Gap=     0.326 Goal=   None    Shift=    0.000
 RMSDP=1.41D-03 MaxDP=3.45D-02 DE=-4.39D-02 OVMax= 4.79D-02

 Cycle   4  Pass 0  IDiag  1:
 E= -149.773223051780     Delta-E=       -0.002384179082 Rises=F Damp=F
 DIIS: error= 3.87D-03 at cycle   4 NSaved=   4.
 NSaved= 4 IEnMin= 4 EnMin= -149.773223051780     IErMin= 4 ErrMin= 3.87D-03
 ErrMax= 3.87D-03  0.00D+00 EMaxC= 1.00D-01 BMatC= 6.41D-03 BMatP= 1.57D-02
 IDIUse=3 WtCom= 9.61D-01 WtEn= 3.87D-02
 Coeff-Com: -0.650D-01 0.131D+00 0.490D+00 0.444D+00
 Coeff-En:   0.000D+00 0.000D+00 0.263D+00 0.737D+00
 Coeff:     -0.624D-01 0.126D+00 0.481D+00 0.455D+00
 Gap=     0.323 Goal=   None    Shift=    0.000
 Gap=     0.323 Goal=   None    Shift=    0.000
 RMSDP=4.15D-04 MaxDP=1.02D-02 DE=-2.38D-03 OVMax= 1.79D-02

 Cycle   5  Pass 0  IDiag  1:
 E= -149.774648901512     Delta-E=       -0.001425849732 Rises=F Damp=F
 DIIS: error= 3.40D-04 at cycle   5 NSaved=   5.
 NSaved= 5 IEnMin= 5 EnMin= -149.774648901512     IErMin= 5 ErrMin= 3.40D-04
 ErrMax= 3.40D-04  0.00D+00 EMaxC= 1.00D-01 BMatC= 4.31D-05 BMatP= 6.41D-03
 IDIUse=3 WtCom= 9.97D-01 WtEn= 3.40D-03
 Coeff-Com: -0.650D-02 0.754D-02 0.671D-01 0.102D+00 0.830D+00
 Coeff-En:   0.000D+00 0.000D+00 0.000D+00 0.000D+00 0.100D+01
 Coeff:     -0.648D-02 0.751D-02 0.669D-01 0.101D+00 0.831D+00
 Gap=     0.324 Goal=   None    Shift=    0.000
 Gap=     0.324 Goal=   None    Shift=    0.000
 RMSDP=1.33D-04 MaxDP=4.39D-03 DE=-1.43D-03 OVMax= 1.39D-03

 Cycle   6  Pass 0  IDiag  1:
 E= -149.774660556300     Delta-E=       -0.000011654789 Rises=F Damp=F
 DIIS: error= 7.17D-05 at cycle   6 NSaved=   6.
 NSaved= 6 IEnMin= 6 EnMin= -149.774660556300     IErMin= 6 ErrMin= 7.17D-05
 ErrMax= 7.17D-05  0.00D+00 EMaxC= 1.00D-01 BMatC= 3.54D-06 BMatP= 4.31D-05
 IDIUse=1 WtCom= 1.00D+00 WtEn= 0.00D+00
 Coeff-Com:  0.520D-02-0.106D-01-0.306D-01-0.280D-01 0.116D+00 0.948D+00
 Coeff:      0.520D-02-0.106D-01-0.306D-01-0.280D-01 0.116D+00 0.948D+00
 Gap=     0.324 Goal=   None    Shift=    0.000
 Gap=     0.324 Goal=   None    Shift=    0.000
 RMSDP=4.53D-05 MaxDP=1.38D-03 DE=-1.17D-05 OVMax= 5.93D-04

 Cycle   7  Pass 0  IDiag  1:
 E= -149.774661834091     Delta-E=       -0.000001277790 Rises=F Damp=F
 DIIS: error= 2.89D-05 at cycle   7 NSaved=   7.
 NSaved= 7 IEnMin= 7 EnMin= -149.774661834091     IErMin= 7 ErrMin= 2.89D-05
 ErrMax= 2.89D-05  0.00D+00 EMaxC= 1.00D-01 BMatC= 4.45D-07 BMatP= 3.54D-06
 IDIUse=1 WtCom= 1.00D+00 WtEn= 0.00D+00
 Coeff-Com:  0.229D-02-0.440D-02-0.141D-01-0.171D-01-0.226D-01 0.314D+00
 Coeff-Com:  0.742D+00
 Coeff:      0.229D-02-0.440D-02-0.141D-01-0.171D-01-0.226D-01 0.314D+00
 Coeff:      0.742D+00
 Gap=     0.324 Goal=   None    Shift=    0.000
 Gap=     0.324 Goal=   None    Shift=    0.000
 RMSDP=1.38D-05 MaxDP=4.53D-04 DE=-1.28D-06 OVMax= 1.64D-04

 Cycle   8  Pass 0  IDiag  1:
 E= -149.774661975859     Delta-E=       -0.000000141769 Rises=F Damp=F
 DIIS: error= 5.60D-06 at cycle   8 NSaved=   8.
 NSaved= 8 IEnMin= 8 EnMin= -149.774661975859     IErMin= 8 ErrMin= 5.60D-06
 ErrMax= 5.60D-06  0.00D+00 EMaxC= 1.00D-01 BMatC= 1.13D-08 BMatP= 4.45D-07
 IDIUse=1 WtCom= 1.00D+00 WtEn= 0.00D+00
 Coeff-Com: -0.324D-03 0.682D-03 0.239D-02 0.183D-02-0.709D-02-0.626D-01
 Coeff-Com: -0.406D-01 0.111D+01
 Coeff:     -0.324D-03 0.682D-03 0.239D-02 0.183D-02-0.709D-02-0.626D-01
 Coeff:     -0.406D-01 0.111D+01
 Gap=     0.324 Goal=   None    Shift=    0.000
 Gap=     0.324 Goal=   None    Shift=    0.000
 RMSDP=4.04D-06 MaxDP=1.51D-04 DE=-1.42D-07 OVMax= 7.37D-05

 Initial convergence to 1.0D-05 achieved.  Increase integral accuracy.
 Cycle   9  Pass 1  IDiag  1:
 E= -149.774666238441     Delta-E=       -0.000004262582 Rises=F Damp=F
 DIIS: error= 1.25D-05 at cycle   1 NSaved=   1.
 NSaved= 1 IEnMin= 1 EnMin= -149.774666238441     IErMin= 1 ErrMin= 1.25D-05
 ErrMax= 1.25D-05  0.00D+00 EMaxC= 1.00D-01 BMatC= 1.34D-07 BMatP= 1.34D-07
 IDIUse=1 WtCom= 1.00D+00 WtEn= 0.00D+00
 Coeff-Com:  0.100D+01
 Coeff:      0.100D+01
 Gap=     0.324 Goal=   None    Shift=    0.000
 Gap=     0.324 Goal=   None    Shift=    0.000
 RMSDP=4.04D-06 MaxDP=1.51D-04 DE=-4.26D-06 OVMax= 4.48D-05

 Cycle  10  Pass 1  IDiag  1:
 E= -149.774666270100     Delta-E=       -0.000000031658 Rises=F Damp=F
 DIIS: error= 3.34D-06 at cycle   2 NSaved=   2.
 NSaved= 2 IEnMin= 2 EnMin= -149.774666270100     IErMin= 2 ErrMin= 3.34D-06
 ErrMax= 3.34D-06  0.00D+00 EMaxC= 1.00D-01 BMatC= 4.15D-09 BMatP= 1.34D-07
 IDIUse=1 WtCom= 1.00D+00 WtEn= 0.00D+00
 Coeff-Com: -0.561D-01 0.106D+01
 Coeff:     -0.561D-01 0.106D+01
 Gap=     0.324 Goal=   None    Shift=    0.000
 Gap=     0.324 Goal=   None    Shift=    0.000
 RMSDP=1.29D-06 MaxDP=2.10D-05 DE=-3.17D-08 OVMax= 1.86D-05

 Cycle  11  Pass 1  IDiag  1:
 E= -149.774666270884     Delta-E=       -0.000000000784 Rises=F Damp=F
 DIIS: error= 2.94D-06 at cycle   3 NSaved=   3.
 NSaved= 3 IEnMin= 3 EnMin= -149.774666270884     IErMin= 3 ErrMin= 2.94D-06
 ErrMax= 2.94D-06  0.00D+00 EMaxC= 1.00D-01 BMatC= 3.42D-09 BMatP= 4.15D-09
 IDIUse=1 WtCom= 1.00D+00 WtEn= 0.00D+00
 Coeff-Com: -0.543D-01 0.525D+00 0.529D+00
 Coeff:     -0.543D-01 0.525D+00 0.529D+00
 Gap=     0.324 Goal=   None    Shift=    0.000
 Gap=     0.324 Goal=   None    Shift=    0.000
 RMSDP=3.64D-07 MaxDP=6.86D-06 DE=-7.84D-10 OVMax= 8.38D-06

 Cycle  12  Pass 1  IDiag  1:
 E= -149.774666271538     Delta-E=       -0.000000000654 Rises=F Damp=F
 DIIS: error= 5.29D-07 at cycle   4 NSaved=   4.
 NSaved= 4 IEnMin= 4 EnMin= -149.774666271538     IErMin= 4 ErrMin= 5.29D-07
 ErrMax= 5.29D-07  0.00D+00 EMaxC= 1.00D-01 BMatC= 1.27D-10 BMatP= 3.42D-09
 IDIUse=1 WtCom= 1.00D+00 WtEn= 0.00D+00
 Coeff-Com: -0.800D-02 0.134D-01 0.143D+00 0.851D+00
 Coeff:     -0.800D-02 0.134D-01 0.143D+00 0.851D+00
 Gap=     0.324 Goal=   None    Shift=    0.000
 Gap=     0.324 Goal=   None    Shift=    0.000
 RMSDP=1.16D-07 MaxDP=2.64D-06 DE=-6.54D-10 OVMax= 4.56D-06

 Cycle  13  Pass 1  IDiag  1:
 E= -149.774666271571     Delta-E=       -0.000000000033 Rises=F Damp=F
 DIIS: error= 2.50D-07 at cycle   5 NSaved=   5.
 NSaved= 5 IEnMin= 5 EnMin= -149.774666271571     IErMin= 5 ErrMin= 2.50D-07
 ErrMax= 2.50D-07  0.00D+00 EMaxC= 1.00D-01 BMatC= 4.16D-11 BMatP= 1.27D-10
 IDIUse=1 WtCom= 1.00D+00 WtEn= 0.00D+00
 Coeff-Com: -0.152D-04-0.340D-01 0.255D-01 0.439D+00 0.569D+00
 Coeff:     -0.152D-04-0.340D-01 0.255D-01 0.439D+00 0.569D+00
 Gap=     0.324 Goal=   None    Shift=    0.000
 Gap=     0.324 Goal=   None    Shift=    0.000
 RMSDP=6.51D-08 MaxDP=1.36D-06 DE=-3.30D-11 OVMax= 1.59D-06

 Cycle  14  Pass 1  IDiag  1:
 E= -149.774666271581     Delta-E=       -0.000000000010 Rises=F Damp=F
 DIIS: error= 9.18D-08 at cycle   6 NSaved=   6.
 NSaved= 6 IEnMin= 6 EnMin= -149.774666271581     IErMin= 6 ErrMin= 9.18D-08
 ErrMax= 9.18D-08  0.00D+00 EMaxC= 1.00D-01 BMatC= 3.48D-12 BMatP= 4.16D-11
 IDIUse=1 WtCom= 1.00D+00 WtEn= 0.00D+00
 Coeff-Com:  0.207D-02-0.189D-01-0.280D-01-0.882D-02 0.216D+00 0.838D+00
 Coeff:      0.207D-02-0.189D-01-0.280D-01-0.882D-02 0.216D+00 0.838D+00
 Gap=     0.324 Goal=   None    Shift=    0.000
 Gap=     0.324 Goal=   None    Shift=    0.000
 RMSDP=2.67D-08 MaxDP=4.15D-07 DE=-9.78D-12 OVMax= 8.11D-07

 Cycle  15  Pass 1  IDiag  1:
 E= -149.774666271582     Delta-E=       -0.000000000002 Rises=F Damp=F
 DIIS: error= 1.48D-08 at cycle   7 NSaved=   7.
 NSaved= 7 IEnMin= 7 EnMin= -149.774666271582     IErMin= 7 ErrMin= 1.48D-08
 ErrMax= 1.48D-08  0.00D+00 EMaxC= 1.00D-01 BMatC= 1.42D-13 BMatP= 3.48D-12
 IDIUse=1 WtCom= 1.00D+00 WtEn= 0.00D+00
 Coeff-Com: -0.893D-04 0.321D-02-0.223D-02-0.253D-01-0.645D-01 0.615D-02
 Coeff-Com:  0.108D+01
 Coeff:     -0.893D-04 0.321D-02-0.223D-02-0.253D-01-0.645D-01 0.615D-02
 Coeff:      0.108D+01
 Gap=     0.324 Goal=   None    Shift=    0.000
 Gap=     0.324 Goal=   None    Shift=    0.000
 RMSDP=7.72D-09 MaxDP=1.46D-07 DE=-1.59D-12 OVMax= 1.66D-07

 SCF Done:  E(UwB97XD) =  -149.774666272     A.U. after   15 cycles
            NFock= 15  Conv=0.77D-08     -V/T= 2.0102
 <Sx>= 0.0000 <Sy>= 0.0000 <Sz>= 0.0000 <S**2>=-0.0000 S=-0.0000
 <L.S>=  0.00000000000    
 KE= 1.482575026773D+02 PE=-4.949513518399D+02 EE= 1.235378570443D+02
 Annihilation of the first spin contaminant:
 S**2 before annihilation    -0.0000,   after     0.0000
 Leave Link  502 at Tue Jan  3 09:04:06 2023, MaxMem=   536870912 cpu:              17.2 elap:               8.7
 (Enter /opt/software/gaussian/g16.c01/l508.exe)
 QCSCF skips out because SCF is already converged.
 Leave Link  508 at Tue Jan  3 09:04:06 2023, MaxMem=   536870912 cpu:               0.0 elap:               0.0
 (Enter /opt/software/gaussian/g16.c01/l601.exe)
 Copying SCF densities to generalized density rwf, IOpCl= 1 IROHF=0.

 **********************************************************************

            Population analysis using the SCF Density.

 **********************************************************************

 Alpha  occ. eigenvalues --  -14.57404 -14.42897 -10.32480  -1.13483  -0.90190
 Alpha  occ. eigenvalues --   -0.73750  -0.65548  -0.57293  -0.52312  -0.50432
 Alpha  occ. eigenvalues --   -0.36541  -0.27640
 Alpha virt. eigenvalues --    0.04727   0.07846   0.11445   0.15587   0.19288
 Alpha virt. eigenvalues --    0.20645   0.21262   0.22030   0.27055   0.28299
 Alpha virt. eigenvalues --    0.29671   0.29795   0.32966   0.34859   0.35274
 Alpha virt. eigenvalues --    0.37778   0.39117   0.40183   0.41454   0.42445
 Alpha virt. eigenvalues --    0.44768   0.47347   0.50025   0.50606   0.52023
 Alpha virt. eigenvalues --    0.52778   0.55310   0.56362   0.59159   0.62486
 Alpha virt. eigenvalues --    0.67145   0.69606   0.71753   0.73460   0.75241
 Alpha virt. eigenvalues --    0.81310   0.83733   0.84205   0.93288   0.97777
 Alpha virt. eigenvalues --    1.07837   1.11602   1.15075   1.17999   1.19931
 Alpha virt. eigenvalues --    1.24882   1.33257   1.38809   1.47755   1.51665
 Alpha virt. eigenvalues --    1.61113   1.64710   1.68013   1.70391   1.71173
 Alpha virt. eigenvalues --    1.80894   1.85448   1.87204   1.88120   1.99223
 Alpha virt. eigenvalues --    2.02392   2.14087   2.17415   2.26404   2.26694
 Alpha virt. eigenvalues --    2.31878   2.33380   2.39218   2.50476   2.61233
 Alpha virt. eigenvalues --    2.64388   2.78995   2.80946   2.99994   3.11051
 Alpha virt. eigenvalues --    3.16586   3.32003   3.40959   3.58577   3.82410
  Beta  occ. eigenvalues --  -14.57404 -14.42897 -10.32480  -1.13483  -0.90190
  Beta  occ. eigenvalues --   -0.73750  -0.65548  -0.57293  -0.52312  -0.50432
  Beta  occ. eigenvalues --   -0.36541  -0.27640
  Beta virt. eigenvalues --    0.04727   0.07846   0.11445   0.15587   0.19288
  Beta virt. eigenvalues --    0.20645   0.21262   0.22030   0.27055   0.28299
  Beta virt. eigenvalues --    0.29671   0.29795   0.32966   0.34859   0.35274
  Beta virt. eigenvalues --    0.37778   0.39117   0.40183   0.41454   0.42445
  Beta virt. eigenvalues --    0.44768   0.47347   0.50025   0.50606   0.52023
  Beta virt. eigenvalues --    0.52778   0.55310   0.56362   0.59159   0.62486
  Beta virt. eigenvalues --    0.67145   0.69606   0.71753   0.73460   0.75241
  Beta virt. eigenvalues --    0.81310   0.83733   0.84205   0.93288   0.97777
  Beta virt. eigenvalues --    1.07837   1.11602   1.15075   1.17999   1.19931
  Beta virt. eigenvalues --    1.24882   1.33257   1.38809   1.47755   1.51665
  Beta virt. eigenvalues --    1.61113   1.64710   1.68013   1.70391   1.71173
  Beta virt. eigenvalues --    1.80894   1.85448   1.87204   1.88120   1.99223
  Beta virt. eigenvalues --    2.02392   2.14087   2.17415   2.26404   2.26694
  Beta virt. eigenvalues --    2.31878   2.33380   2.39218   2.50476   2.61233
  Beta virt. eigenvalues --    2.64388   2.78995   2.80946   2.99994   3.11051
  Beta virt. eigenvalues --    3.16586   3.32003   3.40959   3.58577   3.82410
          Condensed to atoms (all electrons):
               1          2          3          4          5          6
     1  C    4.348999   0.513028  -0.063230   0.020998   0.288131   0.347220
     2  N    0.513028   6.151213  -0.177190   0.207367   0.011174   0.067252
     3  N   -0.063230  -0.177190   7.454005  -0.106806  -0.002568  -0.046221
     4  H    0.020998   0.207367  -0.106806   0.916477  -0.002369   0.006866
     5  H    0.288131   0.011174  -0.002568  -0.002369   1.002385  -0.104359
     6  H    0.347220   0.067252  -0.046221   0.006866  -0.104359   0.909880
     7  H   -0.125389   0.190591   0.055194  -0.101692   0.036021  -0.006301
               7
     1  C   -0.125389
     2  N    0.190591
     3  N    0.055194
     4  H   -0.101692
     5  H    0.036021
     6  H   -0.006301
     7  H    1.201607
          Atomic-Atomic Spin Densities.
               1          2          3          4          5          6
     1  C    0.000000   0.000000   0.000000   0.000000   0.000000   0.000000
     2  N    0.000000   0.000000   0.000000   0.000000   0.000000   0.000000
     3  N    0.000000   0.000000   0.000000   0.000000   0.000000   0.000000
     4  H    0.000000   0.000000   0.000000   0.000000   0.000000   0.000000
     5  H    0.000000   0.000000   0.000000   0.000000   0.000000   0.000000
     6  H    0.000000   0.000000   0.000000   0.000000   0.000000   0.000000
     7  H    0.000000   0.000000   0.000000   0.000000   0.000000   0.000000
               7
     1  C    0.000000
     2  N    0.000000
     3  N    0.000000
     4  H    0.000000
     5  H    0.000000
     6  H    0.000000
     7  H    0.000000
 Mulliken charges and spin densities:
               1          2
     1  C    0.670243   0.000000
     2  N    0.036565   0.000000
     3  N   -0.113183   0.000000
     4  H    0.059160   0.000000
     5  H   -0.228416   0.000000
     6  H   -0.174338   0.000000
     7  H   -0.250032   0.000000
 Sum of Mulliken charges =  -0.00000   0.00000
 Mulliken charges and spin densities with hydrogens summed into heavy atoms:
               1          2
     1  C    0.267489   0.000000
     2  N   -0.213467   0.000000
     3  N   -0.054022   0.000000
 Electronic spatial extent (au):  <R**2>=            598.7254
 Charge=             -0.0000 electrons
 Dipole moment (field-independent basis, Debye):
    X=              0.1862    Y=              0.8194    Z=              3.0504  Tot=              3.1640
 Quadrupole moment (field-independent basis, Debye-Ang):
   XX=            -14.5966   YY=            -21.1974   ZZ=            -22.7621
   XY=              2.3837   XZ=              8.7687   YZ=             -0.5178
 Traceless Quadrupole moment (field-independent basis, Debye-Ang):
   XX=              4.9221   YY=             -1.6787   ZZ=             -3.2434
   XY=              2.3837   XZ=              8.7687   YZ=             -0.5178
 Octapole moment (field-independent basis, Debye-Ang**2):
  XXX=            -92.8928  YYY=             10.8085  ZZZ=             41.4521  XYY=            -45.6559
  XXY=              9.2141  XXZ=             32.4805  XZZ=            -53.2485  YZZ=              5.4674
  YYZ=             11.9748  XYZ=             -2.4119
 Hexadecapole moment (field-independent basis, Debye-Ang**3):
 XXXX=           -493.6773 YYYY=            -28.5056 ZZZZ=           -115.2059 XXXY=             39.1447
 XXXZ=            136.3454 YYYX=             29.9167 YYYZ=            -12.3978 ZZZX=            118.6778
 ZZZY=            -14.3224 XXYY=           -126.0198 XXZZ=           -156.7019 YYZZ=            -23.3284
 XXYZ=             -9.7307 YYXZ=             34.7230 ZZXY=             15.0868
 N-N= 7.338132584667D+01 E-N=-4.949513522863D+02  KE= 1.482575026773D+02
                          Isotropic Fermi Contact Couplings
        Atom                 a.u.       MegaHertz       Gauss      10(-4) cm-1
     1  C(13)              0.00000       0.00000       0.00000       0.00000
     2  N(14)              0.00000       0.00000       0.00000       0.00000
     3  N(14)              0.00000       0.00000       0.00000       0.00000
     4  H(1)               0.00000       0.00000       0.00000       0.00000
     5  H(1)               0.00000       0.00000       0.00000       0.00000
     6  H(1)               0.00000       0.00000       0.00000       0.00000
     7  H(1)               0.00000       0.00000       0.00000       0.00000
 --------------------------------------------------------
       Center         ----  Spin Dipole Couplings  ----
                      3XX-RR        3YY-RR        3ZZ-RR
 --------------------------------------------------------
     1   Atom        0.000000      0.000000      0.000000
     2   Atom        0.000000      0.000000      0.000000
     3   Atom        0.000000      0.000000      0.000000
     4   Atom        0.000000      0.000000      0.000000
     5   Atom        0.000000      0.000000      0.000000
     6   Atom        0.000000      0.000000      0.000000
     7   Atom        0.000000      0.000000      0.000000
 --------------------------------------------------------
                        XY            XZ            YZ
 --------------------------------------------------------
     1   Atom        0.000000      0.000000      0.000000
     2   Atom        0.000000      0.000000      0.000000
     3   Atom        0.000000      0.000000      0.000000
     4   Atom        0.000000      0.000000      0.000000
     5   Atom        0.000000      0.000000      0.000000
     6   Atom        0.000000      0.000000      0.000000
     7   Atom        0.000000      0.000000      0.000000
 --------------------------------------------------------


 ---------------------------------------------------------------------------------
              Anisotropic Spin Dipole Couplings in Principal Axis System
 ---------------------------------------------------------------------------------

       Atom             a.u.   MegaHertz   Gauss  10(-4) cm-1        Axes

              Baa     0.0000     0.000     0.000     0.000  1.0000  0.0000  0.0000
     1 C(13)  Bbb     0.0000     0.000     0.000     0.000 -0.0000  1.0000  0.0000
              Bcc     0.0000     0.000     0.000     0.000  0.0000  0.0000  1.0000
 
              Baa     0.0000     0.000     0.000     0.000  1.0000  0.0000  0.0000
     2 N(14)  Bbb     0.0000     0.000     0.000     0.000 -0.0000  1.0000  0.0000
              Bcc     0.0000     0.000     0.000     0.000  0.0000  0.0000  1.0000
 
              Baa     0.0000     0.000     0.000     0.000  1.0000  0.0000  0.0000
     3 N(14)  Bbb     0.0000     0.000     0.000     0.000 -0.0000  1.0000  0.0000
              Bcc     0.0000     0.000     0.000     0.000  0.0000  0.0000  1.0000
 
              Baa     0.0000     0.000     0.000     0.000  1.0000  0.0000  0.0000
     4 H(1)   Bbb     0.0000     0.000     0.000     0.000 -0.0000  1.0000  0.0000
              Bcc     0.0000     0.000     0.000     0.000  0.0000  0.0000  1.0000
 
              Baa     0.0000     0.000     0.000     0.000  1.0000  0.0000  0.0000
     5 H(1)   Bbb     0.0000     0.000     0.000     0.000 -0.0000  1.0000  0.0000
              Bcc     0.0000     0.000     0.000     0.000  0.0000  0.0000  1.0000
 
              Baa     0.0000     0.000     0.000     0.000  1.0000  0.0000  0.0000
     6 H(1)   Bbb     0.0000     0.000     0.000     0.000 -0.0000  1.0000  0.0000
              Bcc     0.0000     0.000     0.000     0.000  0.0000  0.0000  1.0000
 
              Baa     0.0000     0.000     0.000     0.000  1.0000  0.0000  0.0000
     7 H(1)   Bbb     0.0000     0.000     0.000     0.000 -0.0000  1.0000  0.0000
              Bcc     0.0000     0.000     0.000     0.000  0.0000  0.0000  1.0000
 

 ---------------------------------------------------------------------------------

 No NMR shielding tensors so no spin-rotation constants.
 Leave Link  601 at Tue Jan  3 09:04:06 2023, MaxMem=   536870912 cpu:               0.3 elap:               0.1
 (Enter /opt/software/gaussian/g16.c01/l801.exe)
 DoSCS=F DFT=T ScalE2(SS,OS)=  1.000000  1.000000
 Range of M.O.s used for correlation:     1    92
 NBasis=    92 NAE=    12 NBE=    12 NFC=     0 NFV=     0
 NROrb=     92 NOA=    12 NOB=    12 NVA=    80 NVB=    80

 **** Warning!!: The largest alpha MO coefficient is  0.23387056D+02


 **** Warning!!: The largest beta MO coefficient is  0.23387056D+02

 Leave Link  801 at Tue Jan  3 09:04:06 2023, MaxMem=   536870912 cpu:               0.1 elap:               0.0
 (Enter /opt/software/gaussian/g16.c01/l914.exe)
 UHF ground state
 Doing stability rather than CIS.
 Keep R1 and R2 ints in memory in canonical form, NReq=40265956.
 FoFCou: FMM=F IPFlag=           0 FMFlag=           0 FMFlg1=           0
         NFxFlg=           0 DoJE=F BraDBF=F KetDBF=F FulRan=T
         wScrn=  0.000000 ICntrl=       600 IOpCl=  0 I1Cent=           0 NGrid=           0
         NMat0=    1 NMatS0=   4278 NMatT0=    0 NMatD0=    1 NMtDS0=    0 NMtDT0=    0
 Symmetry not used in FoFCou.
 Two-electron integral symmetry not used.
 MDV=   536870912 DFT=T DoStab=T Mixed=T DoRPA=F DoScal=F NonHer=F
 Making orbital integer symmetry assigments:
    12 initial guesses have been made.
 Convergence on wavefunction:    0.001000000000000
 Davidson Disk Diagonalization:  ConvIn= 1.00D-03 SkipCon=T Conv= 1.00D-03.
 Max sub-space:  2000 roots to seek:    12 dimension of matrix:         1920
 Iteration     1 Dimension    12 NMult     0 NNew     12
 CISAX will form    12 AO SS matrices at one time.
 NMat=    12 NSing=    12 JSym2X= 0.
 Excitation Energies [eV] at current iteration:
 Root      1 :     1.057408913729559
 Root      2 :     4.899119019020661
 Root      3 :     5.040466031834397
 Root      4 :     5.128677603194763
 Root      5 :     6.279511838429470
 Root      6 :     6.420784589749181
 Root      7 :     6.511492259245578
 Root      8 :     7.082171810719895
 Root      9 :     7.304955435769257
 Root     10 :     7.433801633872394
 Root     11 :     7.742722857975005
 Root     12 :    12.370911005243125
 Iteration     2 Dimension    24 NMult    12 NNew     12
 CISAX will form    12 AO SS matrices at one time.
 NMat=    12 NSing=    12 JSym2X= 0.
 Root      1 not converged, maximum delta is    0.076073953076398
 Excitation Energies [eV] at current iteration:
 Root      1 :     0.590861068463725   Change is   -0.466547845265834
 Root      2 :     4.648917920986881   Change is   -0.250201098033780
 Root      3 :     4.937964580304528   Change is   -0.102501451529869
 Root      4 :     4.968329792608484   Change is   -0.160347810586280
 Root      5 :     6.026374458908099   Change is   -0.253137379521372
 Root      6 :     6.226981589168034   Change is   -0.193803000581148
 Root      7 :     6.387563989520191   Change is   -0.123928269725386
 Root      8 :     6.715303527747348   Change is   -5.655607477495777
 Root      9 :     6.820581803936093   Change is   -0.261590006783803
 Root     10 :     6.935600219614826   Change is   -0.498201414257568
 Root     11 :     7.156062020605801   Change is   -0.148893415163456
 Root     12 :     7.755287719618376   Change is    0.012564861643371
 Iteration     3 Dimension    27 NMult    24 NNew      3
 CISAX will form     3 AO SS matrices at one time.
 NMat=     3 NSing=     3 JSym2X= 0.
 Root      1 not converged, maximum delta is    0.006806623962999
 Excitation Energies [eV] at current iteration:
 Root      1 :     0.579588355255287   Change is   -0.011272713208438
 Root      2 :     4.638733156062558   Change is   -0.010184764924324
 Root      3 :     4.935212925876040   Change is   -0.002751654428489
 Iteration     4 Dimension    30 NMult    27 NNew      3
 CISAX will form     3 AO SS matrices at one time.
 NMat=     3 NSing=     3 JSym2X= 0.
 Root      1 not converged, maximum delta is    0.003335608569973
 Excitation Energies [eV] at current iteration:
 Root      1 :     0.579024729813510   Change is   -0.000563625441777
 Root      2 :     4.638093155600807   Change is   -0.000640000461750
 Root      3 :     4.934874090620173   Change is   -0.000338835255866
 Iteration     5 Dimension    33 NMult    30 NNew      3
 CISAX will form     3 AO SS matrices at one time.
 NMat=     3 NSing=     3 JSym2X= 0.
 Root      1 not converged, maximum delta is    0.001024656828612
 Excitation Energies [eV] at current iteration:
 Root      1 :     0.578982260867217   Change is   -0.000042468946294
 Root      2 :     4.638036514613560   Change is   -0.000056640987247
 Root      3 :     4.934831584599084   Change is   -0.000042506021090
 Iteration     6 Dimension    36 NMult    33 NNew      3
 CISAX will form     3 AO SS matrices at one time.
 NMat=     3 NSing=     3 JSym2X= 0.
 Root      1 has converged.
 Excitation Energies [eV] at current iteration:
 Root      1 :     0.578979537895230   Change is   -0.000002722971987
 Root      2 :     4.638033541891955   Change is   -0.000002972721605
 Root      3 :     4.934828864390628   Change is   -0.000002720208456
 Convergence achieved on expansion vectors.
 ***********************************************************************
 Stability analysis using <AA,BB:AA,BB> singles matrix:
 ***********************************************************************
 1PDM for each excited state written to RWF  633
 Ground to excited state transition densities written to RWF  633

 Eigenvectors of the stability matrix:
 
 Excited state symmetry could not be determined.
 Eigenvector   1:  3.000-?Sym  Eigenvalue= 0.0212771  <S**2>=2.000
     12A -> 13A        0.69269
     12B -> 13B       -0.69269
 The wavefunction is stable under the perturbations considered.
 Leave Link  914 at Tue Jan  3 09:04:55 2023, MaxMem=   536870912 cpu:              98.7 elap:              49.4
 (Enter /opt/software/gaussian/g16.c01/l508.exe)
 The wavefunction is already stable.
 Leave Link  508 at Tue Jan  3 09:04:55 2023, MaxMem=   536870912 cpu:               0.0 elap:               0.0
 (Enter /opt/software/gaussian/g16.c01/l601.exe)
 Copying SCF densities to generalized density rwf, IOpCl= 1 IROHF=0.

 **********************************************************************

            Population analysis using the SCF Density.

 **********************************************************************

 Alpha  occ. eigenvalues --  -14.57404 -14.42897 -10.32480  -1.13483  -0.90190
 Alpha  occ. eigenvalues --   -0.73750  -0.65548  -0.57293  -0.52312  -0.50432
 Alpha  occ. eigenvalues --   -0.36541  -0.27640
 Alpha virt. eigenvalues --    0.04727   0.07846   0.11445   0.15587   0.19288
 Alpha virt. eigenvalues --    0.20645   0.21262   0.22030   0.27055   0.28299
 Alpha virt. eigenvalues --    0.29671   0.29795   0.32966   0.34859   0.35274
 Alpha virt. eigenvalues --    0.37778   0.39117   0.40183   0.41454   0.42445
 Alpha virt. eigenvalues --    0.44768   0.47347   0.50025   0.50606   0.52023
 Alpha virt. eigenvalues --    0.52778   0.55310   0.56362   0.59159   0.62486
 Alpha virt. eigenvalues --    0.67145   0.69606   0.71753   0.73460   0.75241
 Alpha virt. eigenvalues --    0.81310   0.83733   0.84205   0.93288   0.97777
 Alpha virt. eigenvalues --    1.07837   1.11602   1.15075   1.17999   1.19931
 Alpha virt. eigenvalues --    1.24882   1.33257   1.38809   1.47755   1.51665
 Alpha virt. eigenvalues --    1.61113   1.64710   1.68013   1.70391   1.71173
 Alpha virt. eigenvalues --    1.80894   1.85448   1.87204   1.88120   1.99223
 Alpha virt. eigenvalues --    2.02392   2.14087   2.17415   2.26404   2.26694
 Alpha virt. eigenvalues --    2.31878   2.33380   2.39218   2.50476   2.61233
 Alpha virt. eigenvalues --    2.64388   2.78995   2.80946   2.99994   3.11051
 Alpha virt. eigenvalues --    3.16586   3.32003   3.40959   3.58577   3.82410
  Beta  occ. eigenvalues --  -14.57404 -14.42897 -10.32480  -1.13483  -0.90190
  Beta  occ. eigenvalues --   -0.73750  -0.65548  -0.57293  -0.52312  -0.50432
  Beta  occ. eigenvalues --   -0.36541  -0.27640
  Beta virt. eigenvalues --    0.04727   0.07846   0.11445   0.15587   0.19288
  Beta virt. eigenvalues --    0.20645   0.21262   0.22030   0.27055   0.28299
  Beta virt. eigenvalues --    0.29671   0.29795   0.32966   0.34859   0.35274
  Beta virt. eigenvalues --    0.37778   0.39117   0.40183   0.41454   0.42445
  Beta virt. eigenvalues --    0.44768   0.47347   0.50025   0.50606   0.52023
  Beta virt. eigenvalues --    0.52778   0.55310   0.56362   0.59159   0.62486
  Beta virt. eigenvalues --    0.67145   0.69606   0.71753   0.73460   0.75241
  Beta virt. eigenvalues --    0.81310   0.83733   0.84205   0.93288   0.97777
  Beta virt. eigenvalues --    1.07837   1.11602   1.15075   1.17999   1.19931
  Beta virt. eigenvalues --    1.24882   1.33257   1.38809   1.47755   1.51665
  Beta virt. eigenvalues --    1.61113   1.64710   1.68013   1.70391   1.71173
  Beta virt. eigenvalues --    1.80894   1.85448   1.87204   1.88120   1.99223
  Beta virt. eigenvalues --    2.02392   2.14087   2.17415   2.26404   2.26694
  Beta virt. eigenvalues --    2.31878   2.33380   2.39218   2.50476   2.61233
  Beta virt. eigenvalues --    2.64388   2.78995   2.80946   2.99994   3.11051
  Beta virt. eigenvalues --    3.16586   3.32003   3.40959   3.58577   3.82410
          Condensed to atoms (all electrons):
               1          2          3          4          5          6
     1  C    4.348999   0.513028  -0.063230   0.020998   0.288131   0.347220
     2  N    0.513028   6.151213  -0.177190   0.207367   0.011174   0.067252
     3  N   -0.063230  -0.177190   7.454005  -0.106806  -0.002568  -0.046221
     4  H    0.020998   0.207367  -0.106806   0.916477  -0.002369   0.006866
     5  H    0.288131   0.011174  -0.002568  -0.002369   1.002385  -0.104359
     6  H    0.347220   0.067252  -0.046221   0.006866  -0.104359   0.909880
     7  H   -0.125389   0.190591   0.055194  -0.101692   0.036021  -0.006301
               7
     1  C   -0.125389
     2  N    0.190591
     3  N    0.055194
     4  H   -0.101692
     5  H    0.036021
     6  H   -0.006301
     7  H    1.201607
          Atomic-Atomic Spin Densities.
               1          2          3          4          5          6
     1  C    0.000000   0.000000   0.000000   0.000000   0.000000   0.000000
     2  N    0.000000   0.000000   0.000000   0.000000   0.000000   0.000000
     3  N    0.000000   0.000000   0.000000   0.000000   0.000000   0.000000
     4  H    0.000000   0.000000   0.000000   0.000000   0.000000   0.000000
     5  H    0.000000   0.000000   0.000000   0.000000   0.000000   0.000000
     6  H    0.000000   0.000000   0.000000   0.000000   0.000000   0.000000
     7  H    0.000000   0.000000   0.000000   0.000000   0.000000   0.000000
               7
     1  C    0.000000
     2  N    0.000000
     3  N    0.000000
     4  H    0.000000
     5  H    0.000000
     6  H    0.000000
     7  H    0.000000
 Mulliken charges and spin densities:
               1          2
     1  C    0.670243   0.000000
     2  N    0.036565   0.000000
     3  N   -0.113183   0.000000
     4  H    0.059160   0.000000
     5  H   -0.228416   0.000000
     6  H   -0.174338   0.000000
     7  H   -0.250032   0.000000
 Sum of Mulliken charges =  -0.00000   0.00000
 Mulliken charges and spin densities with hydrogens summed into heavy atoms:
               1          2
     1  C    0.267489   0.000000
     2  N   -0.213467   0.000000
     3  N   -0.054022   0.000000
 Electronic spatial extent (au):  <R**2>=            598.7254
 Charge=             -0.0000 electrons
 Dipole moment (field-independent basis, Debye):
    X=              0.1862    Y=              0.8194    Z=              3.0504  Tot=              3.1640
 Quadrupole moment (field-independent basis, Debye-Ang):
   XX=            -14.5966   YY=            -21.1974   ZZ=            -22.7621
   XY=              2.3837   XZ=              8.7687   YZ=             -0.5178
 Traceless Quadrupole moment (field-independent basis, Debye-Ang):
   XX=              4.9221   YY=             -1.6787   ZZ=             -3.2434
   XY=              2.3837   XZ=              8.7687   YZ=             -0.5178
 Octapole moment (field-independent basis, Debye-Ang**2):
  XXX=            -92.8928  YYY=             10.8085  ZZZ=             41.4521  XYY=            -45.6559
  XXY=              9.2141  XXZ=             32.4805  XZZ=            -53.2485  YZZ=              5.4674
  YYZ=             11.9748  XYZ=             -2.4119
 Hexadecapole moment (field-independent basis, Debye-Ang**3):
 XXXX=           -493.6773 YYYY=            -28.5056 ZZZZ=           -115.2059 XXXY=             39.1447
 XXXZ=            136.3454 YYYX=             29.9167 YYYZ=            -12.3978 ZZZX=            118.6778
 ZZZY=            -14.3224 XXYY=           -126.0198 XXZZ=           -156.7019 YYZZ=            -23.3284
 XXYZ=             -9.7307 YYXZ=             34.7230 ZZXY=             15.0868
 N-N= 7.338132584667D+01 E-N=-4.949513522863D+02  KE= 1.482575026773D+02
                          Isotropic Fermi Contact Couplings
        Atom                 a.u.       MegaHertz       Gauss      10(-4) cm-1
     1  C(13)              0.00000       0.00000       0.00000       0.00000
     2  N(14)              0.00000       0.00000       0.00000       0.00000
     3  N(14)              0.00000       0.00000       0.00000       0.00000
     4  H(1)               0.00000       0.00000       0.00000       0.00000
     5  H(1)               0.00000       0.00000       0.00000       0.00000
     6  H(1)               0.00000       0.00000       0.00000       0.00000
     7  H(1)               0.00000       0.00000       0.00000       0.00000
 --------------------------------------------------------
       Center         ----  Spin Dipole Couplings  ----
                      3XX-RR        3YY-RR        3ZZ-RR
 --------------------------------------------------------
     1   Atom        0.000000      0.000000      0.000000
     2   Atom        0.000000      0.000000      0.000000
     3   Atom        0.000000      0.000000      0.000000
     4   Atom        0.000000      0.000000      0.000000
     5   Atom        0.000000      0.000000      0.000000
     6   Atom        0.000000      0.000000      0.000000
     7   Atom        0.000000      0.000000      0.000000
 --------------------------------------------------------
                        XY            XZ            YZ
 --------------------------------------------------------
     1   Atom        0.000000      0.000000      0.000000
     2   Atom        0.000000      0.000000      0.000000
     3   Atom        0.000000      0.000000      0.000000
     4   Atom        0.000000      0.000000      0.000000
     5   Atom        0.000000      0.000000      0.000000
     6   Atom        0.000000      0.000000      0.000000
     7   Atom        0.000000      0.000000      0.000000
 --------------------------------------------------------


 ---------------------------------------------------------------------------------
              Anisotropic Spin Dipole Couplings in Principal Axis System
 ---------------------------------------------------------------------------------

       Atom             a.u.   MegaHertz   Gauss  10(-4) cm-1        Axes

              Baa     0.0000     0.000     0.000     0.000  1.0000  0.0000  0.0000
     1 C(13)  Bbb     0.0000     0.000     0.000     0.000 -0.0000  1.0000  0.0000
              Bcc     0.0000     0.000     0.000     0.000  0.0000  0.0000  1.0000
 
              Baa     0.0000     0.000     0.000     0.000  1.0000  0.0000  0.0000
     2 N(14)  Bbb     0.0000     0.000     0.000     0.000 -0.0000  1.0000  0.0000
              Bcc     0.0000     0.000     0.000     0.000  0.0000  0.0000  1.0000
 
              Baa     0.0000     0.000     0.000     0.000  1.0000  0.0000  0.0000
     3 N(14)  Bbb     0.0000     0.000     0.000     0.000 -0.0000  1.0000  0.0000
              Bcc     0.0000     0.000     0.000     0.000  0.0000  0.0000  1.0000
 
              Baa     0.0000     0.000     0.000     0.000  1.0000  0.0000  0.0000
     4 H(1)   Bbb     0.0000     0.000     0.000     0.000 -0.0000  1.0000  0.0000
              Bcc     0.0000     0.000     0.000     0.000  0.0000  0.0000  1.0000
 
              Baa     0.0000     0.000     0.000     0.000  1.0000  0.0000  0.0000
     5 H(1)   Bbb     0.0000     0.000     0.000     0.000 -0.0000  1.0000  0.0000
              Bcc     0.0000     0.000     0.000     0.000  0.0000  0.0000  1.0000
 
              Baa     0.0000     0.000     0.000     0.000  1.0000  0.0000  0.0000
     6 H(1)   Bbb     0.0000     0.000     0.000     0.000 -0.0000  1.0000  0.0000
              Bcc     0.0000     0.000     0.000     0.000  0.0000  0.0000  1.0000
 
              Baa     0.0000     0.000     0.000     0.000  1.0000  0.0000  0.0000
     7 H(1)   Bbb     0.0000     0.000     0.000     0.000 -0.0000  1.0000  0.0000
              Bcc     0.0000     0.000     0.000     0.000  0.0000  0.0000  1.0000
 

 ---------------------------------------------------------------------------------

 No NMR shielding tensors so no spin-rotation constants.
 Leave Link  601 at Tue Jan  3 09:04:56 2023, MaxMem=   536870912 cpu:               0.3 elap:               0.1
 (Enter /opt/software/gaussian/g16.c01/l9999.exe)

 Test job not archived.
 1\1\GINC-GRA738\Stability\UwB97XD\Gen\C1H4N2\BHAVUK\03-Jan-2023\0\\#p 
 uwb97xd/gen stable=opt scf=(maxcycle=900,verytightlineq,xqc) integral=
 grid=ultrafine symmetry=None density=current iop(99/18=-1) output=wfn\
 \0001_q000_m01_k00_opt_uwb97xd_def2svpd/0001_q000_m01_k00_force_uwb97x
 d_def2svpd stable-force\\0,1\C,0,1.0726168695,-0.0701991232,-0.1530126
 33\N,0,2.3779437514,-0.0897456927,-0.2543854931\N,0,3.0833554789,-0.36
 84697824,-1.3087287982\H,0,4.0640493508,-0.2926697434,-1.0476368317\H,
 0,0.6399628731,0.1851542916,0.8085260928\H,0,0.4830438364,-0.309979686
 1,-1.0337247999\H,0,2.8674978397,0.1458797364,0.6131324666\\Version=ES
 64L-G16RevC.01\HF=-149.7746663\S2=0.\S2-1=0.\S2A=0.\RMSD=7.723e-09\Dip
 ole=0.0732391,0.3223641,1.2001074\Quadrupole=3.6594525,-1.248058,-2.41
 13945,1.7722597,6.5193423,-0.3849995\PG=Unknown\\@

 Writing a WFN file to "0001_q000_m01_k00_force_uwb97xd_def2svpd.wfn"


 GOOD SENSE ABOUT TRIVIALITIES IS BETTER THAN NONSENSE
 ABOUT THINGS THAT MATTER

                                       -- MAX BEERBOHM
 Job cpu time:       0 days  0 hours  1 minutes 59.8 seconds.
 Elapsed time:       0 days  0 hours  0 minutes 59.9 seconds.
 File lengths (MBytes):  RWF=     69 Int=      0 D2E=      0 Chk=      2 Scr=      1
 Normal termination of Gaussian 16 at Tue Jan  3 09:04:56 2023.
 Initial command:
 /opt/software/gaussian/g16.c01/l1.exe "/localscratch/bhavuk.2151349.0/Gau-16752.inp" -scrdir="/localscratch/bhavuk.2151349.0/"
 Entering Link 1 = /opt/software/gaussian/g16.c01/l1.exe PID=     19174.
  
 Copyright (c) 1988-2019, Gaussian, Inc.  All Rights Reserved.
  
 This is part of the Gaussian(R) 16 program.  It is based on
 the Gaussian(R) 09 system (copyright 2009, Gaussian, Inc.),
 the Gaussian(R) 03 system (copyright 2003, Gaussian, Inc.),
 the Gaussian(R) 98 system (copyright 1998, Gaussian, Inc.),
 the Gaussian(R) 94 system (copyright 1995, Gaussian, Inc.),
 the Gaussian 92(TM) system (copyright 1992, Gaussian, Inc.),
 the Gaussian 90(TM) system (copyright 1990, Gaussian, Inc.),
 the Gaussian 88(TM) system (copyright 1988, Gaussian, Inc.),
 the Gaussian 86(TM) system (copyright 1986, Carnegie Mellon
 University), and the Gaussian 82(TM) system (copyright 1983,
 Carnegie Mellon University). Gaussian is a federally registered
 trademark of Gaussian, Inc.
  
 This software contains proprietary and confidential information,
 including trade secrets, belonging to Gaussian, Inc.
  
 This software is provided under written license and may be
 used, copied, transmitted, or stored only in accord with that
 written license.
  
 The following legend is applicable only to US Government
 contracts under FAR:
  
                    RESTRICTED RIGHTS LEGEND
  
 Use, reproduction and disclosure by the US Government is
 subject to restrictions as set forth in subparagraphs (a)
 and (c) of the Commercial Computer Software - Restricted
 Rights clause in FAR 52.227-19.
  
 Gaussian, Inc.
 340 Quinnipiac St., Bldg. 40, Wallingford CT 06492
  
  
 ---------------------------------------------------------------
 Warning -- This program may not be used in any manner that
 competes with the business of Gaussian, Inc. or will provide
 assistance to any competitor of Gaussian, Inc.  The licensee
 of this program is prohibited from giving any competitor of
 Gaussian, Inc. access to this program.  By using this program,
 the user acknowledges that Gaussian, Inc. is engaged in the
 business of creating and licensing software in the field of
 computational chemistry and represents and warrants to the
 licensee that it is not a competitor of Gaussian, Inc. and that
 it will not use this program in any manner prohibited above.
 ---------------------------------------------------------------
  

 Cite this work as:
 Gaussian 16, Revision C.01,
 M. J. Frisch, G. W. Trucks, H. B. Schlegel, G. E. Scuseria, 
 M. A. Robb, J. R. Cheeseman, G. Scalmani, V. Barone, 
 G. A. Petersson, H. Nakatsuji, X. Li, M. Caricato, A. V. Marenich, 
 J. Bloino, B. G. Janesko, R. Gomperts, B. Mennucci, H. P. Hratchian, 
 J. V. Ortiz, A. F. Izmaylov, J. L. Sonnenberg, D. Williams-Young, 
 F. Ding, F. Lipparini, F. Egidi, J. Goings, B. Peng, A. Petrone, 
 T. Henderson, D. Ranasinghe, V. G. Zakrzewski, J. Gao, N. Rega, 
 G. Zheng, W. Liang, M. Hada, M. Ehara, K. Toyota, R. Fukuda, 
 J. Hasegawa, M. Ishida, T. Nakajima, Y. Honda, O. Kitao, H. Nakai, 
 T. Vreven, K. Throssell, J. A. Montgomery, Jr., J. E. Peralta, 
 F. Ogliaro, M. J. Bearpark, J. J. Heyd, E. N. Brothers, K. N. Kudin, 
 V. N. Staroverov, T. A. Keith, R. Kobayashi, J. Normand, 
 K. Raghavachari, A. P. Rendell, J. C. Burant, S. S. Iyengar, 
 J. Tomasi, M. Cossi, J. M. Millam, M. Klene, C. Adamo, R. Cammi, 
 J. W. Ochterski, R. L. Martin, K. Morokuma, O. Farkas, 
 J. B. Foresman, and D. J. Fox, Gaussian, Inc., Wallingford CT, 2019.
 
 ******************************************
 Gaussian 16:  ES64L-G16RevC.01  3-Jul-2019
                 3-Jan-2023 
 ******************************************
 %chk=0001_q000_m01_k00_force_uwb97xd_def2svpd.chk
 %nprocshared=2
 Will use up to    2 processors via shared memory.
 %mem=4GB
 ----------------------------------------------------------------------
 #p uwb97xd/chkbasis force guess=read geom=check scf=(maxcycle=900,very
 tightlineq,xqc) integral=grid=ultrafine symmetry=None density=current 
 pop=(cm5,hlygat,mbs,npa) output=wfx
 ----------------------------------------------------------------------
 1/10=7,29=2,30=1,38=1/1,3;
 2/12=2,15=3,40=1/2;
 3/5=7,6=2,11=2,14=-4,25=1,30=1,67=1,71=1,74=-58,75=-5,116=2/1,2,3;
 4/5=1/1;
 5/5=2,7=900,8=3,13=1,17=3,38=6/2,8;
 6/7=2,8=2,9=2,10=2,15=8,20=15,22=-1,27=100,28=1,40=-1,79=1/1,2,7;
 7/29=1,30=1/1,2,3,16;
 1/10=7,30=1/3;
 99/6=200/99;
 Leave Link    1 at Tue Jan  3 09:04:56 2023, MaxMem=   536870912 cpu:               0.2 elap:               0.1
 (Enter /opt/software/gaussian/g16.c01/l101.exe)
 ----------------------------------------------------------------------
 0001_q000_m01_k00_opt_uwb97xd_def2svpd/0001_q000_m01_k00_force_uwb97xd
 _def2svpd stable-force
 ----------------------------------------------------------------------
 Structure from the checkpoint file:  "0001_q000_m01_k00_force_uwb97xd_def2svpd.chk"
 Charge =  0 Multiplicity = 1
 Z-Matrix found in chk file.
 C,0,1.0726168695,-0.0701991232,-0.153012633
 N,0,2.3779437514,-0.0897456927,-0.2543854931
 N,0,3.0833554789,-0.3684697824,-1.3087287982
 H,0,4.0640493508,-0.2926697434,-1.0476368317
 H,0,0.6399628731,0.1851542916,0.8085260928
 H,0,0.4830438364,-0.3099796861,-1.0337247999
 H,0,2.8674978397,0.1458797364,0.6131324666
 Recover connectivity data from disk.
 ITRead=  0  0  0  0  0  0  0
 MicOpt= -1 -1 -1 -1 -1 -1 -1
 NAtoms=      7 NQM=        7 NQMF=       0 NMMI=      0 NMMIF=      0
                NMic=       0 NMicF=      0.
                    Isotopes and Nuclear Properties:
 (Nuclear quadrupole moments (NQMom) in fm**2, nuclear magnetic moments (NMagM)
  in nuclear magnetons)

  Atom         1           2           3           4           5           6           7
 IAtWgt=          12          14          14           1           1           1           1
 AtmWgt=  12.0000000  14.0030740  14.0030740   1.0078250   1.0078250   1.0078250   1.0078250
 NucSpn=           0           2           2           1           1           1           1
 AtZEff=   3.6000000   4.5500000   4.5500000   1.0000000   1.0000000   1.0000000   1.0000000
 NQMom=    0.0000000   2.0440000   2.0440000   0.0000000   0.0000000   0.0000000   0.0000000
 NMagM=    0.0000000   0.4037610   0.4037610   2.7928460   2.7928460   2.7928460   2.7928460
 AtZNuc=   6.0000000   7.0000000   7.0000000   1.0000000   1.0000000   1.0000000   1.0000000
 Leave Link  101 at Tue Jan  3 09:04:56 2023, MaxMem=   536870912 cpu:               0.4 elap:               0.2
 (Enter /opt/software/gaussian/g16.c01/l103.exe)

 GradGradGradGradGradGradGradGradGradGradGradGradGradGradGradGradGradGrad
 Berny optimization.
 Initialization pass.
 Trust Radius=3.00D-01 FncErr=1.00D-07 GrdErr=1.00D-07 EigMax=2.50D+02 EigMin=1.00D-04
 Number of steps in this run=      2 maximum allowed number of steps=      2.
 GradGradGradGradGradGradGradGradGradGradGradGradGradGradGradGradGradGrad

 Leave Link  103 at Tue Jan  3 09:04:56 2023, MaxMem=   536870912 cpu:               0.0 elap:               0.0
 (Enter /opt/software/gaussian/g16.c01/l202.exe)
                          Input orientation:                          
 ---------------------------------------------------------------------
 Center     Atomic      Atomic             Coordinates (Angstroms)
 Number     Number       Type             X           Y           Z
 ---------------------------------------------------------------------
      1          6           0        1.072617   -0.070199   -0.153013
      2          7           0        2.377944   -0.089746   -0.254385
      3          7           0        3.083355   -0.368470   -1.308729
      4          1           0        4.064049   -0.292670   -1.047637
      5          1           0        0.639963    0.185154    0.808526
      6          1           0        0.483044   -0.309980   -1.033725
      7          1           0        2.867498    0.145880    0.613132
 ---------------------------------------------------------------------
                    Distance matrix (angstroms):
                    1          2          3          4          5
     1  C    0.000000
     2  N    1.309403   0.000000
     3  N    2.338315   1.298820   0.000000
     4  H    3.130258   1.874401   1.017681   0.000000
     5  H    1.084874   2.055706   3.280158   3.924032   0.000000
     6  H    1.086621   2.060708   2.615467   3.581074   1.914071
     7  H    1.963483   1.023606   2.001175   2.093374   2.236433
                    6          7
     6  H    0.000000
     7  H    2.933525   0.000000
 Symmetry turned off by external request.
 Stoichiometry    CH4N2
 Rotational constants (GHZ):          71.2642239          11.2793619           9.7380671
 Leave Link  202 at Tue Jan  3 09:04:56 2023, MaxMem=   536870912 cpu:               0.0 elap:               0.0
 (Enter /opt/software/gaussian/g16.c01/l301.exe)
 Basis read from chk: "0001_q000_m01_k00_force_uwb97xd_def2svpd.chk" (5D, 7F)
 No pseudopotential information found on chk file.
    92 basis functions,   136 primitive gaussians,    98 cartesian basis functions
    12 alpha electrons       12 beta electrons
       nuclear repulsion energy        73.3825490640 Hartrees.
 IExCor= 4639 DFT=T Ex+Corr=wB97XD ExCW=0 ScaHFX=  1.000000
 ScaDFX=  1.000000  1.000000  1.000000  1.000000 ScalE2=  1.000000  1.000000
 IRadAn=      5 IRanWt=     -1 IRanGd=            0 ICorTp=0 IEmpDi=121
 HFx  wShort=  0.000000 wLong=  0.200000 cFull=  0.222036 cShort=  0.000000 cLong=  0.777964
 DFx  wShort=  0.000000 wLong=  0.200000 cFull=  0.000000 cShort=  0.000000 cLong=  1.000000
 NAtoms=    7 NActive=    7 NUniq=    7 SFac= 1.00D+00 NAtFMM=   60 NAOKFM=F Big=F
 Integral buffers will be    131072 words long.
 Raffenetti 2 integral format.
 Two-electron integral symmetry is turned off.
 R6Disp:  Grimme-D2 Dispersion energy=       -0.0012232174 Hartrees.
 Nuclear repulsion after empirical dispersion term =       73.3813258467 Hartrees.
 No density basis found on file  20724.
 Leave Link  301 at Tue Jan  3 09:04:56 2023, MaxMem=   536870912 cpu:               0.1 elap:               0.1
 (Enter /opt/software/gaussian/g16.c01/l302.exe)
 NPDir=0 NMtPBC=     1 NCelOv=     1 NCel=       1 NClECP=     1 NCelD=      1
         NCelK=      1 NCelE2=     1 NClLst=     1 CellRange=     0.0.
 One-electron integrals computed using PRISM.
 NBasis=    92 RedAO= T EigKep=  2.51D-04  NBF=    92
 NBsUse=    92 1.00D-06 EigRej= -1.00D+00 NBFU=    92
 Precomputing XC quadrature grid using
 IXCGrd= 4 IRadAn=           5 IRanWt=          -1 IRanGd=           0 AccXCQ= 0.00D+00.
 Generated NRdTot=       0 NPtTot=           0 NUsed=           0 NTot=          32
 NSgBfM=    98    98    98    98    98 MxSgAt=     7 MxSgA2=     7.
 Leave Link  302 at Tue Jan  3 09:04:56 2023, MaxMem=   536870912 cpu:               0.3 elap:               0.2
 (Enter /opt/software/gaussian/g16.c01/l303.exe)
 DipDrv:  MaxL=1.
 Leave Link  303 at Tue Jan  3 09:04:56 2023, MaxMem=   536870912 cpu:               0.1 elap:               0.0
 (Enter /opt/software/gaussian/g16.c01/l401.exe)
 Initial guess from the checkpoint file:  "0001_q000_m01_k00_force_uwb97xd_def2svpd.chk"
 B after Tr=     0.000000    0.000000    0.000000
         Rot=    1.000000    0.000000    0.000000    0.000000 Ang=   0.00 deg.
 Guess basis will be translated and rotated to current coordinates.
 JPrj=2 DoOrth=T DoCkMO=T.
 Initial guess <Sx>= 0.0000 <Sy>= 0.0000 <Sz>= 0.0000 <S**2>=-0.0000 S=-0.0000
 Leave Link  401 at Tue Jan  3 09:04:57 2023, MaxMem=   536870912 cpu:               0.2 elap:               0.1
 (Enter /opt/software/gaussian/g16.c01/l502.exe)
 Keep R1 and R2 ints in memory in canonical form, NReq=38859074.
 FoFCou: FMM=F IPFlag=           0 FMFlag=           0 FMFlg1=           0
         NFxFlg=           0 DoJE=F BraDBF=F KetDBF=F FulRan=T
         wScrn=  0.000000 ICntrl=       600 IOpCl=  0 I1Cent=           0 NGrid=           0
         NMat0=    1 NMatS0=   4278 NMatT0=    0 NMatD0=    1 NMtDS0=    0 NMtDT0=    0
 Symmetry not used in FoFCou.
 Two-electron integral symmetry not used.
 UHF open shell SCF:
 Using DIIS extrapolation, IDIIS=  1040.
 NGot=   536870912 LenX=   500238972 LenY=   500228927
 Requested convergence on RMS density matrix=1.00D-08 within 128 cycles.
 Requested convergence on MAX density matrix=1.00D-06.
 Requested convergence on             energy=1.00D-06.
 No special actions if energy rises.

 Cycle   1  Pass 1  IDiag  1:
 E= -149.774666271582    
 DIIS: error= 3.80D-09 at cycle   1 NSaved=   1.
 NSaved= 1 IEnMin= 1 EnMin= -149.774666271582     IErMin= 1 ErrMin= 3.80D-09
 ErrMax= 3.80D-09  0.00D+00 EMaxC= 1.00D-01 BMatC= 8.14D-15 BMatP= 8.14D-15
 IDIUse=1 WtCom= 1.00D+00 WtEn= 0.00D+00
 Coeff-Com:  0.100D+01
 Coeff:      0.100D+01
 Gap=     0.324 Goal=   None    Shift=    0.000
 Gap=     0.324 Goal=   None    Shift=    0.000
 RMSDP=1.77D-09 MaxDP=3.02D-08              OVMax= 3.21D-08

 SCF Done:  E(UwB97XD) =  -149.774666272     A.U. after    1 cycles
            NFock=  1  Conv=0.18D-08     -V/T= 2.0102
 <Sx>= 0.0000 <Sy>= 0.0000 <Sz>= 0.0000 <S**2>=-0.0000 S=-0.0000
 <L.S>=  0.00000000000    
 KE= 1.482575022091D+02 PE=-4.949513518181D+02 EE= 1.235378574907D+02
 Annihilation of the first spin contaminant:
 S**2 before annihilation    -0.0000,   after     0.0000
 Leave Link  502 at Tue Jan  3 09:04:58 2023, MaxMem=   536870912 cpu:               3.1 elap:               1.6
 (Enter /opt/software/gaussian/g16.c01/l508.exe)
 QCSCF skips out because SCF is already converged.
 Leave Link  508 at Tue Jan  3 09:04:58 2023, MaxMem=   536870912 cpu:               0.0 elap:               0.0
 (Enter /opt/software/gaussian/g16.c01/l601.exe)
 Copying SCF densities to generalized density rwf, IOpCl= 1 IROHF=0.

 **********************************************************************

            Population analysis using the SCF Density.

 **********************************************************************

 Alpha  occ. eigenvalues --  -14.57404 -14.42897 -10.32480  -1.13483  -0.90190
 Alpha  occ. eigenvalues --   -0.73750  -0.65548  -0.57293  -0.52312  -0.50432
 Alpha  occ. eigenvalues --   -0.36541  -0.27640
 Alpha virt. eigenvalues --    0.04727   0.07846   0.11445   0.15587   0.19288
 Alpha virt. eigenvalues --    0.20645   0.21262   0.22030   0.27055   0.28299
 Alpha virt. eigenvalues --    0.29671   0.29795   0.32966   0.34859   0.35274
 Alpha virt. eigenvalues --    0.37779   0.39117   0.40183   0.41454   0.42445
 Alpha virt. eigenvalues --    0.44768   0.47347   0.50025   0.50606   0.52023
 Alpha virt. eigenvalues --    0.52778   0.55310   0.56362   0.59159   0.62486
 Alpha virt. eigenvalues --    0.67145   0.69606   0.71753   0.73460   0.75241
 Alpha virt. eigenvalues --    0.81310   0.83733   0.84205   0.93288   0.97777
 Alpha virt. eigenvalues --    1.07837   1.11602   1.15075   1.17999   1.19931
 Alpha virt. eigenvalues --    1.24882   1.33257   1.38809   1.47755   1.51665
 Alpha virt. eigenvalues --    1.61113   1.64710   1.68013   1.70391   1.71173
 Alpha virt. eigenvalues --    1.80894   1.85448   1.87204   1.88120   1.99223
 Alpha virt. eigenvalues --    2.02392   2.14087   2.17415   2.26404   2.26694
 Alpha virt. eigenvalues --    2.31878   2.33380   2.39218   2.50476   2.61233
 Alpha virt. eigenvalues --    2.64388   2.78995   2.80946   2.99994   3.11051
 Alpha virt. eigenvalues --    3.16586   3.32003   3.40959   3.58577   3.82410
  Beta  occ. eigenvalues --  -14.57404 -14.42897 -10.32480  -1.13483  -0.90190
  Beta  occ. eigenvalues --   -0.73750  -0.65548  -0.57293  -0.52312  -0.50432
  Beta  occ. eigenvalues --   -0.36541  -0.27640
  Beta virt. eigenvalues --    0.04727   0.07846   0.11445   0.15587   0.19288
  Beta virt. eigenvalues --    0.20645   0.21262   0.22030   0.27055   0.28299
  Beta virt. eigenvalues --    0.29671   0.29795   0.32966   0.34859   0.35274
  Beta virt. eigenvalues --    0.37779   0.39117   0.40183   0.41454   0.42445
  Beta virt. eigenvalues --    0.44768   0.47347   0.50025   0.50606   0.52023
  Beta virt. eigenvalues --    0.52778   0.55310   0.56362   0.59159   0.62486
  Beta virt. eigenvalues --    0.67145   0.69606   0.71753   0.73460   0.75241
  Beta virt. eigenvalues --    0.81310   0.83733   0.84205   0.93288   0.97777
  Beta virt. eigenvalues --    1.07837   1.11602   1.15075   1.17999   1.19931
  Beta virt. eigenvalues --    1.24882   1.33257   1.38809   1.47755   1.51665
  Beta virt. eigenvalues --    1.61113   1.64710   1.68013   1.70391   1.71173
  Beta virt. eigenvalues --    1.80894   1.85448   1.87204   1.88120   1.99223
  Beta virt. eigenvalues --    2.02392   2.14087   2.17415   2.26404   2.26694
  Beta virt. eigenvalues --    2.31878   2.33380   2.39218   2.50476   2.61233
  Beta virt. eigenvalues --    2.64388   2.78995   2.80946   2.99994   3.11051
  Beta virt. eigenvalues --    3.16586   3.32003   3.40959   3.58577   3.82410
          Condensed to atoms (all electrons):
               1          2          3          4          5          6
     1  C    4.348999   0.513028  -0.063230   0.020998   0.288131   0.347220
     2  N    0.513028   6.151213  -0.177190   0.207367   0.011174   0.067252
     3  N   -0.063230  -0.177190   7.454005  -0.106806  -0.002568  -0.046221
     4  H    0.020998   0.207367  -0.106806   0.916477  -0.002369   0.006866
     5  H    0.288131   0.011174  -0.002568  -0.002369   1.002385  -0.104359
     6  H    0.347220   0.067252  -0.046221   0.006866  -0.104359   0.909880
     7  H   -0.125389   0.190591   0.055194  -0.101692   0.036021  -0.006301
               7
     1  C   -0.125389
     2  N    0.190591
     3  N    0.055194
     4  H   -0.101692
     5  H    0.036021
     6  H   -0.006301
     7  H    1.201607
          Atomic-Atomic Spin Densities.
               1          2          3          4          5          6
     1  C    0.000000   0.000000   0.000000   0.000000   0.000000   0.000000
     2  N    0.000000   0.000000   0.000000   0.000000   0.000000   0.000000
     3  N    0.000000   0.000000   0.000000   0.000000   0.000000   0.000000
     4  H    0.000000   0.000000   0.000000   0.000000   0.000000   0.000000
     5  H    0.000000   0.000000   0.000000   0.000000   0.000000   0.000000
     6  H    0.000000   0.000000   0.000000   0.000000   0.000000   0.000000
     7  H    0.000000   0.000000   0.000000   0.000000   0.000000   0.000000
               7
     1  C    0.000000
     2  N    0.000000
     3  N    0.000000
     4  H    0.000000
     5  H    0.000000
     6  H    0.000000
     7  H    0.000000
 Mulliken charges and spin densities:
               1          2
     1  C    0.670243   0.000000
     2  N    0.036565   0.000000
     3  N   -0.113183   0.000000
     4  H    0.059160   0.000000
     5  H   -0.228416   0.000000
     6  H   -0.174338   0.000000
     7  H   -0.250032   0.000000
 Sum of Mulliken charges =  -0.00000   0.00000
 Mulliken charges and spin densities with hydrogens summed into heavy atoms:
               1          2
     1  C    0.267489   0.000000
     2  N   -0.213467   0.000000
     3  N   -0.054022   0.000000
 Electronic spatial extent (au):  <R**2>=            598.7254
 Charge=              0.0000 electrons
 Dipole moment (field-independent basis, Debye):
    X=              0.1862    Y=              0.8194    Z=              3.0504  Tot=              3.1640
 Quadrupole moment (field-independent basis, Debye-Ang):
   XX=            -14.5966   YY=            -21.1974   ZZ=            -22.7621
   XY=              2.3837   XZ=              8.7687   YZ=             -0.5178
 Traceless Quadrupole moment (field-independent basis, Debye-Ang):
   XX=              4.9221   YY=             -1.6787   ZZ=             -3.2434
   XY=              2.3837   XZ=              8.7687   YZ=             -0.5178
 Octapole moment (field-independent basis, Debye-Ang**2):
  XXX=            -92.8928  YYY=             10.8085  ZZZ=             41.4521  XYY=            -45.6559
  XXY=              9.2141  XXZ=             32.4805  XZZ=            -53.2485  YZZ=              5.4674
  YYZ=             11.9748  XYZ=             -2.4119
 Hexadecapole moment (field-independent basis, Debye-Ang**3):
 XXXX=           -493.6774 YYYY=            -28.5056 ZZZZ=           -115.2059 XXXY=             39.1447
 XXXZ=            136.3454 YYYX=             29.9167 YYYZ=            -12.3978 ZZZX=            118.6778
 ZZZY=            -14.3224 XXYY=           -126.0198 XXZZ=           -156.7019 YYZZ=            -23.3284
 XXYZ=             -9.7307 YYXZ=             34.7230 ZZXY=             15.0868
 N-N= 7.338132584667D+01 E-N=-4.949513511561D+02  KE= 1.482575022091D+02
 There are a total of      156260 grid points.
 ElSum from          density=       24.0000003392
 ElSum from atomic densities=       23.9999991513

 Hirshfeld populations at iteration   1 (CX, CA, CB, DipXYZ):
               1          2          3          4          5          6
     1  C    0.000000   3.036766   3.036766  -0.013055  -0.004635  -0.016957
     2  N    0.000000   3.471838   3.471838   0.058947   0.005795   0.020312
     3  N    0.000000   3.640091   3.640091   0.061151   0.078750   0.292183
     4  H    0.000000   0.466323   0.466323   0.185367   0.013159   0.044998
     5  H    0.000000   0.481697   0.481697  -0.075222   0.038092   0.143684
     6  H    0.000000   0.475329   0.475329  -0.104021  -0.034772  -0.127303
     7  H    0.000000   0.427956   0.427956   0.101183   0.044306   0.162931
       Tot   0.000000  12.000000  12.000000   0.214350   0.140696   0.519847

 Dip from Atomic Chgs             -0.141114   0.181670   0.680261
         Total Dipole              0.073236   0.322366   1.200109

 Hirshfeld charges, spin densities, dipoles, and CM5 charges using IRadAn=      5:
              Q-H        S-H        Dx         Dy         Dz        Q-CM5   
     1  C   -0.073531   0.000000  -0.013055  -0.004635  -0.016957  -0.088875
     2  N    0.056324   0.000000   0.058947   0.005795   0.020312  -0.250944
     3  N   -0.280181   0.000000   0.061151   0.078750   0.292183  -0.486549
     4  H    0.067353   0.000000   0.185367   0.013159   0.044998   0.269395
     5  H    0.036605   0.000000  -0.075222   0.038092   0.143684   0.099471
     6  H    0.049342   0.000000  -0.104021  -0.034772  -0.127303   0.114618
     7  H    0.144088   0.000000   0.101183   0.044306   0.162931   0.342884
       Tot  -0.000000   0.000000   0.214350   0.140696   0.519847  -0.000000
 Hirshfeld charges and spin densities with hydrogens summed into heavy atoms:
              Q-H        S-H       Q-CM5   
     1  C    0.012415   0.000000   0.125213
     2  N    0.200412   0.000000   0.091940
     3  N   -0.212828   0.000000  -0.217153
 
 EQQ=  0.00000000000     EQD=  0.00000000000     EDD= 0.663215989364E-02
 EQQ+QD+DD= 0.663215989364E-02
 
          MBS Condensed to atoms (all electrons):
               1          2          3          4          5          6
     1  C    5.000096   0.473385  -0.048043   0.003343   0.395477   0.388372
     2  N    0.473385   5.965723   0.371718  -0.036079  -0.022064  -0.022477
     3  N   -0.048043   0.371718   6.898313   0.322708   0.001306  -0.000426
     4  H    0.003343  -0.036079   0.322708   0.497066  -0.000127  -0.000018
     5  H    0.395477  -0.022064   0.001306  -0.000127   0.534803  -0.018629
     6  H    0.388372  -0.022477  -0.000426  -0.000018  -0.018629   0.518071
     7  H   -0.041842   0.335794  -0.024183  -0.011919  -0.005407   0.002901
               7
     1  C   -0.041842
     2  N    0.335794
     3  N   -0.024183
     4  H   -0.011919
     5  H   -0.005407
     6  H    0.002901
     7  H    0.458347
          MBS Atomic-Atomic Spin Densities.
               1          2          3          4          5          6
     1  C    0.000000   0.000000   0.000000   0.000000   0.000000   0.000000
     2  N    0.000000   0.000000   0.000000   0.000000   0.000000   0.000000
     3  N    0.000000   0.000000   0.000000   0.000000   0.000000   0.000000
     4  H    0.000000   0.000000   0.000000   0.000000   0.000000   0.000000
     5  H    0.000000   0.000000   0.000000   0.000000   0.000000   0.000000
     6  H    0.000000   0.000000   0.000000   0.000000   0.000000   0.000000
     7  H    0.000000   0.000000   0.000000   0.000000   0.000000   0.000000
               7
     1  C    0.000000
     2  N    0.000000
     3  N    0.000000
     4  H    0.000000
     5  H    0.000000
     6  H    0.000000
     7  H    0.000000
 MBS Mulliken charges and spin densities:
               1          2
     1  C   -0.170788   0.000000
     2  N   -0.066000   0.000000
     3  N   -0.521393   0.000000
     4  H    0.225025   0.000000
     5  H    0.114641   0.000000
     6  H    0.132205   0.000000
     7  H    0.286309   0.000000
 Sum of MBS Mulliken charges =   0.00000   0.00000
[...]
   Natural Rydberg Basis      0.05516 (  0.4597% of  12)
 --------------------------------------------------------

    Atom  No          Natural Electron Configuration
 ----------------------------------------------------------------------------
      C    1      [core]2S( 0.52)2p( 1.61)3p( 0.01)
      N    2      [core]2S( 0.61)2p( 2.01)
      N    3      [core]2S( 0.76)2p( 2.03)3p( 0.01)4d( 0.01)
      H    4            1S( 0.33)
      H    5            1S( 0.40)
      H    6            1S( 0.39)
      H    7            1S( 0.30)


 NBO analysis skipped by request.


 ***************************************************
 *******         Beta  spin orbitals         *******
 ***************************************************


 NATURAL POPULATIONS:  Natural atomic orbital occupancies 
                                                          
   NAO  Atom  No  lang   Type(AO)    Occupancy      Energy
 ----------------------------------------------------------
     1    C    1  S      Cor( 1S)     0.99973     -10.21221
     2    C    1  S      Val( 2S)     0.51509      -0.23485
     3    C    1  S      Ryd( 4S)     0.00061       0.76795
     4    C    1  S      Ryd( 3S)     0.00007       0.65229
     5    C    1  px     Val( 2p)     0.43254      -0.01052
     6    C    1  px     Ryd( 3p)     0.00313       0.67746
     7    C    1  py     Val( 2p)     0.57671      -0.14899
     8    C    1  py     Ryd( 3p)     0.00398       0.68978
     9    C    1  pz     Val( 2p)     0.59783      -0.07779
    10    C    1  pz     Ryd( 3p)     0.00198       0.99606
    11    C    1  dxy    Ryd( 4d)     0.00044       2.18349
    12    C    1  dxy    Ryd( 3d)     0.00010       0.73000
    13    C    1  dxz    Ryd( 4d)     0.00033       2.58181
    14    C    1  dxz    Ryd( 3d)     0.00004       1.10410
    15    C    1  dyz    Ryd( 4d)     0.00005       2.14815
    16    C    1  dyz    Ryd( 3d)     0.00004       0.89276
    17    C    1  dx2y2  Ryd( 4d)     0.00034       2.36307
    18    C    1  dx2y2  Ryd( 3d)     0.00003       0.93279
    19    C    1  dz2    Ryd( 4d)     0.00029       2.46191
    20    C    1  dz2    Ryd( 3d)     0.00008       1.06281
 
    21    N    2  S      Cor( 1S)     0.99971     -14.40652
    22    N    2  S      Val( 2S)     0.60872      -0.58880
    23    N    2  S      Ryd( 4S)     0.00207       1.11641
    24    N    2  S      Ryd( 3S)     0.00001       0.88852
    25    N    2  px     Val( 2p)     0.67923      -0.34066
    26    N    2  px     Ryd( 3p)     0.00082       1.18520
    27    N    2  py     Val( 2p)     0.67375      -0.31770
    28    N    2  py     Ryd( 3p)     0.00027       0.95634
    29    N    2  pz     Val( 2p)     0.65411      -0.30725
    30    N    2  pz     Ryd( 3p)     0.00131       1.30213
    31    N    2  dxy    Ryd( 3d)     0.00206       1.55730
    32    N    2  dxy    Ryd( 4d)     0.00005       1.59511
    33    N    2  dxz    Ryd( 4d)     0.00061       2.59496
    34    N    2  dxz    Ryd( 3d)     0.00026       1.64849
    35    N    2  dyz    Ryd( 3d)     0.00087       1.59111
    36    N    2  dyz    Ryd( 4d)     0.00009       1.66257
    37    N    2  dx2y2  Ryd( 4d)     0.00125       1.92564
    38    N    2  dx2y2  Ryd( 3d)     0.00015       1.79338
    39    N    2  dz2    Ryd( 4d)     0.00120       2.23799
    40    N    2  dz2    Ryd( 3d)     0.00014       1.59454
 
    41    N    3  S      Cor( 1S)     0.99981     -14.28212
    42    N    3  S      Val( 2S)     0.75992      -0.57744
    43    N    3  S      Ryd( 4S)     0.00289       1.50759
    44    N    3  S      Ryd( 3S)     0.00009       0.91357
    45    N    3  px     Val( 2p)     0.61592      -0.15210
    46    N    3  px     Ryd( 3p)     0.00324       1.22303
    47    N    3  py     Val( 2p)     0.73004      -0.22181
    48    N    3  py     Ryd( 3p)     0.00259       1.00727
    49    N    3  pz     Val( 2p)     0.68800      -0.18876
    50    N    3  pz     Ryd( 3p)     0.00214       1.09302
    51    N    3  dxy    Ryd( 4d)     0.00046       1.78478
    52    N    3  dxy    Ryd( 3d)     0.00009       1.44443
    53    N    3  dxz    Ryd( 4d)     0.00236       2.44162
    54    N    3  dxz    Ryd( 3d)     0.00005       1.29622
    55    N    3  dyz    Ryd( 4d)     0.00242       1.80970
    56    N    3  dyz    Ryd( 3d)     0.00006       1.39168
    57    N    3  dx2y2  Ryd( 4d)     0.00095       2.08891
    58    N    3  dx2y2  Ryd( 3d)     0.00012       1.64580
    59    N    3  dz2    Ryd( 4d)     0.00198       2.09852
    60    N    3  dz2    Ryd( 3d)     0.00008       1.31054
 
    61    H    4  S      Val( 1S)     0.32776       0.11358
    62    H    4  S      Ryd( 2S)     0.00032       0.61167
    63    H    4  px     Ryd( 2p)     0.00092       1.21959
    64    H    4  px     Ryd( 3p)     0.00044       1.68665
    65    H    4  py     Ryd( 2p)     0.00224       0.89525
    66    H    4  py     Ryd( 3p)     0.00003       1.59499
    67    H    4  pz     Ryd( 2p)     0.00103       1.04381
    68    H    4  pz     Ryd( 3p)     0.00004       1.71942
 
    69    H    5  S      Val( 1S)     0.39603       0.05222
    70    H    5  S      Ryd( 2S)     0.00017       0.54390
    71    H    5  px     Ryd( 2p)     0.00053       1.05390
    72    H    5  px     Ryd( 3p)     0.00007       1.50845
    73    H    5  py     Ryd( 2p)     0.00076       0.73436
    74    H    5  py     Ryd( 3p)     0.00001       1.46243
    75    H    5  pz     Ryd( 2p)     0.00066       1.19277
    76    H    5  pz     Ryd( 3p)     0.00009       1.55708
 
    77    H    6  S      Val( 1S)     0.39102       0.06833
    78    H    6  S      Ryd( 2S)     0.00108       0.50368
    79    H    6  px     Ryd( 2p)     0.00089       0.82552
    80    H    6  px     Ryd( 3p)     0.00011       1.84461
    81    H    6  py     Ryd( 2p)     0.00005       0.55472
    82    H    6  py     Ryd( 3p)     0.00011       1.66209
    83    H    6  pz     Ryd( 2p)     0.00063       0.81847
    84    H    6  pz     Ryd( 3p)     0.00018       1.90601
 
    85    H    7  S      Val( 1S)     0.29891       0.06053
    86    H    7  S      Ryd( 2S)     0.00077       0.76973
    87    H    7  px     Ryd( 3p)     0.00041       1.62979
    88    H    7  px     Ryd( 2p)     0.00024       1.08159
    89    H    7  py     Ryd( 3p)     0.00015       1.33846
    90    H    7  py     Ryd( 2p)     0.00004       1.06546
    91    H    7  pz     Ryd( 3p)     0.00081       1.69907
    92    H    7  pz     Ryd( 2p)     0.00017       1.14186

 WARNING:  Population inversion found on atom  C    1
           Population inversion found on atom  N    2
           Population inversion found on atom  N    3
           Population inversion found on atom  H    6
           Population inversion found on atom  H    7


 Summary of Natural Population Analysis:                  
                                                          
                                       Natural Population 
                Natural  -----------------------------------------------
    Atom  No    Charge         Core      Valence    Rydberg      Total
 -----------------------------------------------------------------------
      C    1   -0.13339      0.99973     2.12217    0.01150     3.13339
      N    2   -0.12670      0.99971     2.61582    0.01117     3.62670
      N    3   -0.31323      0.99981     2.79388    0.01954     3.81323
      H    4    0.16722      0.00000     0.32776    0.00502     0.33278
      H    5    0.10169      0.00000     0.39603    0.00228     0.39831
      H    6    0.10592      0.00000     0.39102    0.00306     0.39408
      H    7    0.19849      0.00000     0.29891    0.00260     0.30151
 =======================================================================
   * Total *   -0.00000      2.99925     8.94559    0.05516    12.00000

                                 Natural Population      
 --------------------------------------------------------
   Core                       2.99925 ( 99.9751% of   3)
   Valence                    8.94559 ( 99.3954% of   9)
   Natural Minimal Basis     11.94484 ( 99.5403% of  12)
   Natural Rydberg Basis      0.05516 (  0.4597% of  12)
 --------------------------------------------------------

    Atom  No          Natural Electron Configuration
 ----------------------------------------------------------------------------
      C    1      [core]2S( 0.52)2p( 1.61)3p( 0.01)
      N    2      [core]2S( 0.61)2p( 2.01)
      N    3      [core]2S( 0.76)2p( 2.03)3p( 0.01)4d( 0.01)
      H    4            1S( 0.33)
      H    5            1S( 0.40)
      H    6            1S( 0.39)
      H    7            1S( 0.30)


 NBO analysis skipped by request.
 Leave Link  607 at Tue Jan  3 09:05:01 2023, MaxMem=   536870912 cpu:               3.6 elap:               1.8
 (Enter /opt/software/gaussian/g16.c01/l701.exe)
 ... and contract with generalized density number  0.
 Compute integral first derivatives.
 R6Disp: Adding Grimme-D2 dispersion energy 1st derivatives to the gradient.
 Leave Link  701 at Tue Jan  3 09:05:01 2023, MaxMem=   536870912 cpu:               0.2 elap:               0.1
 (Enter /opt/software/gaussian/g16.c01/l702.exe)
 L702 exits ... SP integral derivatives will be done elsewhere.
 Leave Link  702 at Tue Jan  3 09:05:01 2023, MaxMem=   536870912 cpu:               0.1 elap:               0.0
 (Enter /opt/software/gaussian/g16.c01/l703.exe)
 Integral derivatives from FoFJK, PRISM(SPDF).
 Compute integral first derivatives, UseDBF=F ICtDFT=           0.
 Calling FoFJK, ICntrl=      2127 FMM=F ISym2X=0 I1Cent= 0 IOpClX= 1 NMat=1 NMatS=1 NMatT=0.
 FoFJK:  IHMeth= 1 ICntrl=    2127 DoSepK=T KAlg= 0 I1Cent=           0 FoldK=F
 IRaf=         1 NMat=       1 IRICut=       1 DoRegI=T DoRafI=F ISym2E= 0 IDoP0=0 IntGTp=1.
 FoFCou: FMM=F IPFlag=           0 FMFlag=      100000 FMFlg1=         800
         NFxFlg=           0 DoJE=F BraDBF=F KetDBF=F FulRan=T
         wScrn=  0.000000 ICntrl=      2527 IOpCl=  0 I1Cent=           0 NGrid=           0
         NMat0=    1 NMatS0=      1 NMatT0=    0 NMatD0=    1 NMtDS0=    0 NMtDT0=    0
 Symmetry not used in FoFCou.
 Leave Link  703 at Tue Jan  3 09:05:04 2023, MaxMem=   536870912 cpu:               6.2 elap:               3.1
 (Enter /opt/software/gaussian/g16.c01/l716.exe)
 Dipole        = 7.32391400D-02 3.22364088D-01 1.20010734D+00
 -------------------------------------------------------------------
 Center     Atomic                   Forces (Hartrees/Bohr)
 Number     Number              X              Y              Z
 -------------------------------------------------------------------
      1        6           0.000000721    0.000000183    0.000000741
      2        7          -0.000002518   -0.000000380   -0.000000575
      3        7           0.000000496   -0.000000353    0.000000666
      4        1           0.000000128    0.000000130   -0.000000090
      5        1           0.000000183    0.000000477   -0.000000570
      6        1           0.000000548   -0.000001237   -0.000000514
      7        1           0.000000441    0.000001180    0.000000343
 -------------------------------------------------------------------
 Cartesian Forces:  Max     0.000002518 RMS     0.000000792
 Z-matrix is all fixed cartesians, so copy forces.
 Force constants in Cartesian coordinates: 
                1             2             3             4             5 
      1  0.979681D+00
      2 -0.379301D-03  0.213865D+00
      3 -0.190645D-01  0.142607D+00  0.707620D+00
      4 -0.643805D+00  0.579070D-02  0.334547D-01  0.112567D+01
      5  0.632347D-02 -0.106234D+00 -0.223587D-01 -0.331382D-01  0.255501D+00
      6  0.354270D-01 -0.223469D-01 -0.184344D+00 -0.143773D+00  0.210309D+00
      7  0.271848D-02  0.887848D-02  0.332925D-01 -0.285848D+00  0.632473D-01
      8  0.405863D-03  0.125485D-01  0.280651D-02  0.556667D-01 -0.952295D-01
      9  0.171151D-02  0.262289D-02  0.215325D-01  0.212339D+00 -0.116800D+00
     10  0.000000D+00 -0.399533D-04  0.107186D-04 -0.760156D-02 -0.133499D-02
     11 -0.399096D-04  0.681015D-02 -0.182702D-02  0.704590D-02  0.450257D-02
     12  0.107071D-04 -0.182705D-02  0.490159D-03  0.265068D-01  0.370720D-02
     13 -0.151899D+00  0.232181D-01  0.887550D-01  0.227506D-02  0.740187D-02
     14  0.222321D-01 -0.700228D-01 -0.649731D-01  0.189247D-03  0.144423D-01
     15  0.850866D-01 -0.649992D-01 -0.296927D+00  0.973426D-03 -0.504849D-03
     16 -0.184388D+00 -0.297881D-01 -0.108208D+00 -0.207961D-02 -0.693893D-02
     17 -0.287722D-01 -0.722180D-01 -0.562752D-01  0.243717D-03  0.170004D-01
     18 -0.104411D+00 -0.562483D-01 -0.264302D+00  0.132579D-02  0.166311D-04
     19 -0.230818D-02 -0.767988D-02 -0.282404D-01 -0.188615D+00 -0.355605D-01
     20  0.229955D-03  0.152509D-01  0.203553D-04 -0.357981D-01 -0.899827D-01
     21  0.124008D-02  0.191593D-03  0.159310D-01 -0.130826D+00 -0.743693D-01
                6             7             8             9            10 
      6  0.986309D+00
      7  0.240594D+00  0.668956D+00
      8 -0.116633D+00 -0.324380D-01  0.846813D-01
      9 -0.504269D+00 -0.134507D+00  0.140554D+00  0.574006D+00
     10 -0.473293D-02 -0.410677D+00 -0.278084D-01 -0.950666D-01  0.418278D+00
     11  0.352379D-02 -0.361895D-01 -0.231711D-01 -0.184397D-01  0.291372D-01
     12  0.167545D-01 -0.126306D+00 -0.186231D-01 -0.846654D-01  0.998012D-01
     13  0.278675D-01  0.000000D+00 -0.447309D-04  0.120004D-04  0.000000D+00
     14 -0.347895D-03 -0.447767D-04  0.764067D-02 -0.204983D-02  0.000000D+00
     15  0.126317D-01  0.120092D-04 -0.204924D-02  0.549768D-03  0.000000D+00
     16 -0.254401D-01  0.000000D+00  0.448748D-04 -0.120390D-04  0.000000D+00
     17 -0.139769D-03  0.448434D-04 -0.765204D-02  0.205288D-02  0.000000D+00
     18  0.170683D-01 -0.120329D-04  0.205329D-02 -0.550853D-03  0.000000D+00
     19 -0.129942D+00  0.248506D-01  0.417370D-02  0.155231D-01  0.000000D+00
     20 -0.743652D-01 -0.349835D-02  0.211822D-01 -0.794026D-02  0.462088D-04
     21 -0.344150D+00 -0.130734D-01 -0.810855D-02 -0.660326D-02 -0.123974D-04
               11            12            13            14            15 
     11  0.197348D-01
     12  0.146298D-01  0.679877D-01
     13  0.000000D+00  0.000000D+00  0.120347D+00
     14  0.000000D+00  0.000000D+00 -0.258292D-01  0.469624D-01
     15  0.000000D+00  0.000000D+00 -0.983283D-01  0.699484D-01  0.291298D+00
     16  0.000000D+00  0.000000D+00  0.292766D-01  0.340314D-02  0.122695D-01
     17  0.000000D+00  0.000000D+00 -0.479540D-02  0.941143D-02 -0.465711D-02
     18  0.000000D+00  0.000000D+00 -0.182930D-01 -0.484049D-02 -0.694563D-02
     19  0.463037D-04 -0.124225D-04  0.000000D+00  0.494397D-04 -0.132598D-04
     20 -0.787642D-02  0.211311D-02  0.493749D-04 -0.843392D-02  0.226199D-02
     21  0.211317D-02 -0.566929D-03 -0.132473D-04  0.226283D-02 -0.606894D-03
               16            17            18            19            20 
     16  0.157191D+00
     17  0.333285D-01  0.450118D-01
     18  0.121377D+00  0.612854D-01  0.254122D+00
     19  0.000000D+00 -0.495133D-04  0.132860D-04  0.166072D+00
     20 -0.495337D-04  0.844647D-02 -0.226646D-02  0.390205D-01  0.614135D-01
     21  0.132899D-04 -0.226619D-02  0.608092D-03  0.142672D+00  0.801764D-01
               21 
     21  0.335388D+00
 Leave Link  716 at Tue Jan  3 09:05:04 2023, MaxMem=   536870912 cpu:               0.1 elap:               0.0
 (Enter /opt/software/gaussian/g16.c01/l103.exe)

 GradGradGradGradGradGradGradGradGradGradGradGradGradGradGradGradGradGrad
 Berny optimization.
 Search for a local minimum.
 Step number   1 out of a maximum of    2
 All quantities printed in internal units (Hartrees-Bohrs-Radians)
 Second derivative matrix not updated -- first step.
 ITU=  0
     Eigenvalues ---    0.02409   0.03062   0.03370   0.05977   0.08903
     Eigenvalues ---    0.11483   0.14278   0.19866   0.30111   0.35087
     Eigenvalues ---    0.61127   0.81664   1.00827   1.49337   1.92763
 Angle between quadratic step and forces=  70.10 degrees.
 Linear search not attempted -- first point.
 B after Tr=    -0.000001   -0.000000    0.000002
         Rot=    1.000000   -0.000000   -0.000000    0.000000 Ang=  -0.00 deg.
 Variable       Old X    -DE/DX   Delta X   Delta X   Delta X     New X
                                 (Linear)    (Quad)   (Total)
    X1        2.02695   0.00000   0.00000   0.00000  -0.00000   2.02695
    Y1       -0.13266   0.00000   0.00000   0.00000   0.00000  -0.13266
    Z1       -0.28915   0.00000   0.00000   0.00000   0.00000  -0.28915
    X2        4.49366  -0.00000   0.00000  -0.00000  -0.00000   4.49366
    Y2       -0.16959  -0.00000   0.00000  -0.00000  -0.00000  -0.16960
    Z2       -0.48072  -0.00000   0.00000   0.00000   0.00000  -0.48072
    X3        5.82670   0.00000   0.00000  -0.00000  -0.00000   5.82669
    Y3       -0.69631  -0.00000   0.00000   0.00000   0.00000  -0.69630
    Z3       -2.47314   0.00000   0.00000   0.00000   0.00000  -2.47314
    X4        7.67994   0.00000   0.00000  -0.00000  -0.00000   7.67994
    Y4       -0.55307   0.00000   0.00000   0.00000   0.00000  -0.55306
    Z4       -1.97975  -0.00000   0.00000  -0.00001  -0.00001  -1.97975
    X5        1.20935   0.00000   0.00000  -0.00000  -0.00000   1.20935
    Y5        0.34989   0.00000   0.00000   0.00001   0.00001   0.34990
    Z5        1.52789  -0.00000   0.00000  -0.00000  -0.00000   1.52789
    X6        0.91282   0.00000   0.00000   0.00001   0.00001   0.91283
    Y6       -0.58578  -0.00000   0.00000  -0.00001  -0.00000  -0.58578
    Z6       -1.95346  -0.00000   0.00000  -0.00000  -0.00000  -1.95346
    X7        5.41879   0.00000   0.00000   0.00000   0.00000   5.41879
    Y7        0.27567   0.00000   0.00000  -0.00000  -0.00000   0.27567
    Z7        1.15865   0.00000   0.00000   0.00000   0.00000   1.15866
         Item               Value     Threshold  Converged?
 Maximum Force            0.000003     0.000450     YES
 RMS     Force            0.000001     0.000300     YES
 Maximum Displacement     0.000009     0.001800     YES
 RMS     Displacement     0.000004     0.001200     YES
 Predicted change in Energy=-7.127551D-12
 Optimization completed.
    -- Stationary point found.
 GradGradGradGradGradGradGradGradGradGradGradGradGradGradGradGradGradGrad

 Leave Link  103 at Tue Jan  3 09:05:04 2023, MaxMem=   536870912 cpu:               0.0 elap:               0.0
 (Enter /opt/software/gaussian/g16.c01/l9999.exe)
 Unable to Open any file for archive entry.
 1\1\GINC-GRA738\Force\UwB97XD\Gen\C1H4N2\BHAVUK\03-Jan-2023\0\\#p uwb9
 7xd/chkbasis force guess=read geom=check scf=(maxcycle=900,verytightli
 neq,xqc) integral=grid=ultrafine symmetry=None density=current pop=(cm
 5,hlygat,mbs,npa) output=wfx\\0001_q000_m01_k00_opt_uwb97xd_def2svpd/0
 001_q000_m01_k00_force_uwb97xd_def2svpd stable-force\\0,1\C,1.07261686
 95,-0.0701991232,-0.153012633\N,2.3779437514,-0.0897456927,-0.25438549
 31\N,3.0833554789,-0.3684697824,-1.3087287982\H,4.0640493508,-0.292669
 7434,-1.0476368317\H,0.6399628731,0.1851542916,0.8085260928\H,0.483043
 8364,-0.3099796861,-1.0337247999\H,2.8674978397,0.1458797364,0.6131324
 666\\Version=ES64L-G16RevC.01\HF=-149.7746663\S2=0.\S2-1=0.\S2A=0.\RMS
 D=1.773e-09\RMSF=7.917e-07\Dipole=0.0732391,0.3223641,1.2001073\Quadru
 pole=3.6594523,-1.2480578,-2.4113944,1.7722595,6.5193419,-0.3849995\PG
 =Unknown\\@
 The archive entry for this job was punched.

 Writing a WFNX file to "0001_q000_m01_k00_force_uwb97xd_def2svpd.wfx"


 SEEN ON A WALL AT THE UNIVERSITY OF ILLINOIS AT CHICAGO CIRCLE:

 TO DO IS TO BE  -- SOCRATES
 TO BE IS TO DO  -- SARTRE
 OO BE DO BE DO  -- SINATRA
 Job cpu time:       0 days  0 hours  0 minutes 16.7 seconds.
 Elapsed time:       0 days  0 hours  0 minutes  8.1 seconds.
 File lengths (MBytes):  RWF=     10 Int=      0 D2E=      0 Chk=      2 Scr=      1
 Normal termination of Gaussian 16 at Tue Jan  3 09:05:04 2023.
