0001_q000_m01_k00_opt_uwb97xd_def2svpd/0001_q000_m01_k00_force_uwb97xd_d
Force     UwB97XD                                                     Gen                 
Number of atoms                            I                7
Info1-9                                    I   N=           9
          13           9           0           0           0         100
           5          18       -5802
Full Title                                 C   N=           8
0001_q000_m01_k00_opt_uwb97xd_def2svpd/0001_q000_m01_k00_for
ce_uwb97xd_def2tzvp stable-force    
Route                                      C   N=          15
#p uwb97xd/chkbasis force guess=read geom=check scf=(maxcycl
e=900,verytightlineq,xqc) integral=grid=ultrafine symmetry=N
one density=current pop=(cm5,hlygat,mbs,npa) output=wfx     
Charge                                     I                0
Multiplicity                               I                1
Number of electrons                        I               24
Number of alpha electrons                  I               12
Number of beta electrons                   I               12
Number of basis functions                  I              117
Number of independent functions            I              117
Number of point charges in /Mol/           I                0
Number of translation vectors              I                0
Atomic numbers                             I   N=           7
           6           7           7           1           1           1
           1
Nuclear charges                            R   N=           7
  6.00000000E+00  7.00000000E+00  7.00000000E+00  1.00000000E+00  1.00000000E+00
  1.00000000E+00  1.00000000E+00
Current cartesian coordinates              R   N=          21
  2.02695212E+00 -1.32657117E-01 -2.89151970E-01  4.49366243E+00 -1.69594780E-01
 -4.80718912E-01  5.82669740E+00 -6.96306974E-01 -2.47313900E+00  7.67994023E+00
 -5.53065660E-01 -1.97974669E+00  1.20935456E+00  3.49890902E-01  1.52789288E+00
  9.12820557E-01 -5.85776711E-01 -1.95345676E+00  5.41878558E+00  2.75672749E-01
  1.15865244E+00
Number of symbols in /Mol/                 I                0
Int Atom Types                             I   N=           7
           0           0           0           0           0           0
           0
Force Field                                I                0
Atom Types                                 C   N=           7
                                                            
                        
MM charges                                 R   N=           7
  0.00000000E+00  0.00000000E+00  0.00000000E+00  0.00000000E+00  0.00000000E+00
  0.00000000E+00  0.00000000E+00
Integer atomic weights                     I   N=           7
          12          14          14           1           1           1
           1
Real atomic weights                        R   N=           7
  1.20000000E+01  1.40030740E+01  1.40030740E+01  1.00782504E+00  1.00782504E+00
  1.00782504E+00  1.00782504E+00
Atom fragment info                         I   N=           7
           0           0           0           0           0           0
           0
Atom residue num                           I   N=           7
           0           0           0           0           0           0
           0
Nuclear spins                              I   N=           7
           0           2           2           1           1           1
           1
Nuclear ZEff                               R   N=           7
 -3.60000000E+00 -4.55000000E+00 -4.55000000E+00 -1.00000000E+00 -1.00000000E+00
 -1.00000000E+00 -1.00000000E+00
Nuclear ZNuc                               R   N=           7
  6.00000000E+00  7.00000000E+00  7.00000000E+00  1.00000000E+00  1.00000000E+00
  1.00000000E+00  1.00000000E+00
Nuclear QMom                               R   N=           7
  0.00000000E+00  2.04400000E+00  2.04400000E+00  0.00000000E+00  0.00000000E+00
  0.00000000E+00  0.00000000E+00
Nuclear GFac                               R   N=           7
  0.00000000E+00  4.03761000E-01  4.03761000E-01  2.79284600E+00  2.79284600E+00
  2.79284600E+00  2.79284600E+00
MicOpt                                     I   N=           7
          -1          -1          -1          -1          -1          -1
          -1
Number of residues                         I                0
Number of secondary structures             I                0
Number of contracted shells                I               49
Number of primitive shells                 I               84
Pure/Cartesian d shells                    I                0
Pure/Cartesian f shells                    I                0
Highest angular momentum                   I                3
Largest degree of contraction              I                6
Shell types                                I   N=          49
           0           0           0           0           0           1
           1           1          -2          -2          -3           0
           0           0           0           0           1           1
           1          -2          -2          -3           0           0
           0           0           0           1           1           1
          -2          -2          -3           0           0           0
           1           0           0           0           1           0
           0           0           1           0           0           0
           1
Number of primitives per shell             I   N=          49
           6           2           1           1           1           4
           1           1           1           1           1           6
           2           1           1           1           4           1
           1           1           1           1           6           2
           1           1           1           4           1           1
           1           1           1           3           1           1
           1           3           1           1           1           3
           1           1           1           3           1           1
           1
Shell to atom map                          I   N=          49
           1           1           1           1           1           1
           1           1           1           1           1           2
           2           2           2           2           2           2
           2           2           2           2           3           3
           3           3           3           3           3           3
           3           3           3           4           4           4
           4           5           5           5           5           6
           6           6           6           7           7           7
           7
Primitive exponents                        R   N=          84
  1.35753497E+04  2.03523337E+03  4.63225624E+02  1.31200196E+02  4.28530159E+01
  1.55841858E+01  6.20671385E+00  2.57648965E+00  5.76963394E-01  2.29728314E-01
  9.51644400E-02  3.46972322E+01  7.95826228E+00  2.37808269E+00  8.14332082E-01
  2.88875473E-01  1.00568237E-01  1.09700000E+00  3.18000000E-01  7.61000000E-01
  1.97308006E+04  2.95789587E+03  6.73221336E+02  1.90682495E+02  6.22954419E+01
  2.26541612E+01  8.97914774E+00  3.68630024E+00  8.46600768E-01  3.36471338E-01
  1.36476537E-01  4.92003805E+01  1.13467905E+01  3.42739724E+00  1.17855251E+00
  4.16422050E-01  1.42608260E-01  1.65400000E+00  4.69000000E-01  1.09300000E+00
  1.97308006E+04  2.95789587E+03  6.73221336E+02  1.90682495E+02  6.22954419E+01
  2.26541612E+01  8.97914774E+00  3.68630024E+00  8.46600768E-01  3.36471338E-01
  1.36476537E-01  4.92003805E+01  1.13467905E+01  3.42739724E+00  1.17855251E+00
  4.16422050E-01  1.42608260E-01  1.65400000E+00  4.69000000E-01  1.09300000E+00
  3.40613410E+01  5.12357460E+00  1.16466260E+00  3.27230410E-01  1.03072410E-01
  8.00000000E-01  3.40613410E+01  5.12357460E+00  1.16466260E+00  3.27230410E-01
  1.03072410E-01  8.00000000E-01  3.40613410E+01  5.12357460E+00  1.16466260E+00
  3.27230410E-01  1.03072410E-01  8.00000000E-01  3.40613410E+01  5.12357460E+00
  1.16466260E+00  3.27230410E-01  1.03072410E-01  8.00000000E-01
Contraction coefficients                   R   N=          84
  6.06455036E-04  4.69790889E-03  2.43324776E-02  9.73999683E-02  3.01955843E-01
  6.62336091E-01  6.55953085E-01  3.75856333E-01  1.00000000E+00  1.00000000E+00
  1.00000000E+00  1.13272200E-02  7.61696592E-02  3.01922522E-01  7.27850273E-01
  1.00000000E+00  1.00000000E+00  1.00000000E+00  1.00000000E+00  1.00000000E+00
  5.86264026E-04  4.54288206E-03  2.35584135E-02  9.47091933E-02  2.97197849E-01
  6.69162469E-01  6.45966836E-01  3.87005744E-01  1.00000000E+00  1.00000000E+00
  1.00000000E+00  1.14488251E-02  7.84223380E-02  3.08180947E-01  7.20271964E-01
  1.00000000E+00  1.00000000E+00  1.00000000E+00  1.00000000E+00  1.00000000E+00
  5.86264026E-04  4.54288206E-03  2.35584135E-02  9.47091933E-02  2.97197849E-01
  6.69162469E-01  6.45966836E-01  3.87005744E-01  1.00000000E+00  1.00000000E+00
  1.00000000E+00  1.14488251E-02  7.84223380E-02  3.08180947E-01  7.20271964E-01
  1.00000000E+00  1.00000000E+00  1.00000000E+00  1.00000000E+00  1.00000000E+00
  2.54393072E-02  1.90085949E-01  8.52441130E-01  1.00000000E+00  1.00000000E+00
  1.00000000E+00  2.54393072E-02  1.90085949E-01  8.52441130E-01  1.00000000E+00
  1.00000000E+00  1.00000000E+00  2.54393072E-02  1.90085949E-01  8.52441130E-01
  1.00000000E+00  1.00000000E+00  1.00000000E+00  2.54393072E-02  1.90085949E-01
  8.52441130E-01  1.00000000E+00  1.00000000E+00  1.00000000E+00
Coordinates of each shell                  R   N=         147
  2.02695212E+00 -1.32657117E-01 -2.89151970E-01  2.02695212E+00 -1.32657117E-01
 -2.89151970E-01  2.02695212E+00 -1.32657117E-01 -2.89151970E-01  2.02695212E+00
 -1.32657117E-01 -2.89151970E-01  2.02695212E+00 -1.32657117E-01 -2.89151970E-01
  2.02695212E+00 -1.32657117E-01 -2.89151970E-01  2.02695212E+00 -1.32657117E-01
 -2.89151970E-01  2.02695212E+00 -1.32657117E-01 -2.89151970E-01  2.02695212E+00
 -1.32657117E-01 -2.89151970E-01  2.02695212E+00 -1.32657117E-01 -2.89151970E-01
  2.02695212E+00 -1.32657117E-01 -2.89151970E-01  4.49366243E+00 -1.69594780E-01
 -4.80718912E-01  4.49366243E+00 -1.69594780E-01 -4.80718912E-01  4.49366243E+00
 -1.69594780E-01 -4.80718912E-01  4.49366243E+00 -1.69594780E-01 -4.80718912E-01
  4.49366243E+00 -1.69594780E-01 -4.80718912E-01  4.49366243E+00 -1.69594780E-01
 -4.80718912E-01  4.49366243E+00 -1.69594780E-01 -4.80718912E-01  4.49366243E+00
 -1.69594780E-01 -4.80718912E-01  4.49366243E+00 -1.69594780E-01 -4.80718912E-01
  4.49366243E+00 -1.69594780E-01 -4.80718912E-01  4.49366243E+00 -1.69594780E-01
 -4.80718912E-01  5.82669740E+00 -6.96306974E-01 -2.47313900E+00  5.82669740E+00
 -6.96306974E-01 -2.47313900E+00  5.82669740E+00 -6.96306974E-01 -2.47313900E+00
  5.82669740E+00 -6.96306974E-01 -2.47313900E+00  5.82669740E+00 -6.96306974E-01
 -2.47313900E+00  5.82669740E+00 -6.96306974E-01 -2.47313900E+00  5.82669740E+00
 -6.96306974E-01 -2.47313900E+00  5.82669740E+00 -6.96306974E-01 -2.47313900E+00
  5.82669740E+00 -6.96306974E-01 -2.47313900E+00  5.82669740E+00 -6.96306974E-01
 -2.47313900E+00  5.82669740E+00 -6.96306974E-01 -2.47313900E+00  7.67994023E+00
 -5.53065660E-01 -1.97974669E+00  7.67994023E+00 -5.53065660E-01 -1.97974669E+00
  7.67994023E+00 -5.53065660E-01 -1.97974669E+00  7.67994023E+00 -5.53065660E-01
 -1.97974669E+00  1.20935456E+00  3.49890902E-01  1.52789288E+00  1.20935456E+00
  3.49890902E-01  1.52789288E+00  1.20935456E+00  3.49890902E-01  1.52789288E+00
  1.20935456E+00  3.49890902E-01  1.52789288E+00  9.12820557E-01 -5.85776711E-01
 -1.95345676E+00  9.12820557E-01 -5.85776711E-01 -1.95345676E+00  9.12820557E-01
 -5.85776711E-01 -1.95345676E+00  9.12820557E-01 -5.85776711E-01 -1.95345676E+00
  5.41878558E+00  2.75672749E-01  1.15865244E+00  5.41878558E+00  2.75672749E-01
  1.15865244E+00  5.41878558E+00  2.75672749E-01  1.15865244E+00  5.41878558E+00
  2.75672749E-01  1.15865244E+00
Num ILSW                                   I              100
ILSW                                       I   N=         100
           1           0           0           0           2           0
           0           0           0           0        4639          -1
           5           0           0           0           2           0
           0           0           0           0           1           0
           1           1           0           0           0           0
           0           0      100000           0          -1           0
           0           0           0           0           0           0
           0           0           0           1           0           0
           0 -2000000000           1           0           0           0
           0           0         121          52           0           0
           0           0          58           0           0           0
           0           0           0           7           0           1
           0           0           0           0           0           0
           0           0           0           0           0           0
           0           0           0           0           0           0
           0           0           0           0           0           0
           0           0           0           0
Num RLSW                                   I               52
RLSW                                       R   N=          52
  1.00000000E+00  1.00000000E+00  1.00000000E+00  1.00000000E+00  1.00000000E+00
  0.00000000E+00  2.00000000E-01  2.22036000E-01  0.00000000E+00  7.77964000E-01
  0.00000000E+00  2.00000000E-01  0.00000000E+00  0.00000000E+00  1.00000000E+00
  0.00000000E+00  0.00000000E+00  1.00000000E+00  0.00000000E+00  0.00000000E+00
  0.00000000E+00  0.00000000E+00  1.00000000E+00  0.00000000E+00  0.00000000E+00
  0.00000000E+00  0.00000000E+00  1.00000000E+00  0.00000000E+00  0.00000000E+00
  0.00000000E+00  0.00000000E+00  1.00000000E+00  0.00000000E+00  0.00000000E+00
  0.00000000E+00  0.00000000E+00  0.00000000E+00  1.00000000E+00  1.00000000E+00
  0.00000000E+00  1.00000000E+00  0.00000000E+00  0.00000000E+00  0.00000000E+00
  0.00000000E+00  0.00000000E+00  0.00000000E+00  0.00000000E+00  0.00000000E+00
  0.00000000E+00  0.00000000E+00
MxBond                                     I                3
NBond                                      I   N=           7
           3           3           2           1           1           1
           1
IBond                                      I   N=          21
           2           5           6           1           3           7
           2           4           0           3           0           0
           1           0           0           1           0           0
           2           0           0
RBond                                      R   N=          21
  2.00000000E+00  1.00000000E+00  1.00000000E+00  2.00000000E+00  1.00000000E+00
  1.00000000E+00  1.00000000E+00  1.00000000E+00  0.00000000E+00  1.00000000E+00
  0.00000000E+00  0.00000000E+00  1.00000000E+00  0.00000000E+00  0.00000000E+00
  1.00000000E+00  0.00000000E+00  0.00000000E+00  1.00000000E+00  0.00000000E+00
  0.00000000E+00
Virial Ratio                               R      2.004722266758405E+00
SCF Energy                                 R     -1.499321740006310E+02
Total Energy                               R     -1.499321740006310E+02
S**2                                       R     -2.664535259100376E-14
S**2 after annihilation                    R     -3.019806626980359E-14
RMS Force                                  R      2.264577312870557E-03
RMS Density                                R      2.764641426544150E-09
Job Status                                 I                1
Nuclear derivative order                   I                1
External E-field                           R   N=          35
  0.00000000E+00  0.00000000E+00  0.00000000E+00  0.00000000E+00  0.00000000E+00
  0.00000000E+00  0.00000000E+00  0.00000000E+00  0.00000000E+00  0.00000000E+00
  0.00000000E+00  0.00000000E+00  0.00000000E+00  0.00000000E+00  0.00000000E+00
  0.00000000E+00  0.00000000E+00  0.00000000E+00  0.00000000E+00  0.00000000E+00
  0.00000000E+00  0.00000000E+00  0.00000000E+00  0.00000000E+00  0.00000000E+00
  0.00000000E+00  0.00000000E+00  0.00000000E+00  0.00000000E+00  0.00000000E+00
  0.00000000E+00  0.00000000E+00  0.00000000E+00  0.00000000E+00  0.00000000E+00
IOpCl                                      I                1
IROHF                                      I                0
Alpha Orbital Energies                     R   N=         117
 -1.45574559E+01 -1.44136339E+01 -1.03067367E+01 -1.14045857E+00 -9.04774541E-01
 -7.38045888E-01 -6.55073827E-01 -5.69458196E-01 -5.18845641E-01 -5.02034158E-01
 -3.64375267E-01 -2.72916257E-01  4.95496172E-02  8.60811284E-02  1.58230646E-01
  1.69863075E-01  1.95804283E-01  2.37624701E-01  2.78201383E-01  3.12311193E-01
  3.49291937E-01  3.60038422E-01  4.20684038E-01  4.48706437E-01  4.65888994E-01
  4.89685584E-01  5.03064537E-01  5.15186756E-01  5.32652240E-01  5.65111884E-01
  5.85418625E-01  6.06914864E-01  6.48834956E-01  6.82263216E-01  6.97541364E-01
  8.00146237E-01  8.28293905E-01  9.81547609E-01  1.04517673E+00  1.09046870E+00
  1.12401903E+00  1.15092337E+00  1.28799957E+00  1.33680000E+00  1.40285701E+00
  1.43682329E+00  1.52675946E+00  1.55842983E+00  1.55972818E+00  1.60219551E+00
  1.66083065E+00  1.72529947E+00  1.73336568E+00  1.80176281E+00  1.84967438E+00
  1.86095940E+00  1.91461123E+00  2.01607173E+00  2.04942302E+00  2.10326786E+00
  2.15072082E+00  2.17567399E+00  2.18558879E+00  2.23329588E+00  2.24341187E+00
  2.37688210E+00  2.42562451E+00  2.43758710E+00  2.57618308E+00  2.66036522E+00
  2.71308282E+00  2.77862421E+00  2.84569834E+00  2.87421516E+00  2.90775507E+00
  2.98132498E+00  3.02161844E+00  3.12329708E+00  3.22152986E+00  3.24709243E+00
  3.29785800E+00  3.31209564E+00  3.35169879E+00  3.52704209E+00  3.58382694E+00
  3.70661705E+00  3.77860499E+00  3.82128374E+00  3.82475683E+00  4.03289504E+00
  4.05158877E+00  4.17669093E+00  4.24858729E+00  4.35965674E+00  4.54901183E+00
  4.60997936E+00  4.68810528E+00  4.71909332E+00  4.76134983E+00  4.79332071E+00
  4.81720385E+00  4.85226890E+00  4.96778119E+00  5.03991033E+00  5.11663374E+00
  5.24134911E+00  5.24563657E+00  5.32768301E+00  5.65562787E+00  5.66529045E+00
  5.80716905E+00  6.02439378E+00  6.19250967E+00  6.95295254E+00  2.24947583E+01
  3.17840871E+01  3.22554739E+01
Beta Orbital Energies                      R   N=         117
 -1.45574559E+01 -1.44136339E+01 -1.03067367E+01 -1.14045857E+00 -9.04774541E-01
 -7.38045888E-01 -6.55073827E-01 -5.69458196E-01 -5.18845641E-01 -5.02034158E-01
 -3.64375267E-01 -2.72916257E-01  4.95496172E-02  8.60811284E-02  1.58230646E-01
  1.69863075E-01  1.95804283E-01  2.37624701E-01  2.78201383E-01  3.12311193E-01
  3.49291937E-01  3.60038422E-01  4.20684038E-01  4.48706437E-01  4.65888994E-01
  4.89685584E-01  5.03064537E-01  5.15186756E-01  5.32652240E-01  5.65111884E-01
  5.85418625E-01  6.06914864E-01  6.48834956E-01  6.82263216E-01  6.97541364E-01
  8.00146237E-01  8.28293905E-01  9.81547609E-01  1.04517673E+00  1.09046870E+00
  1.12401903E+00  1.15092337E+00  1.28799957E+00  1.33680000E+00  1.40285701E+00
  1.43682329E+00  1.52675946E+00  1.55842983E+00  1.55972818E+00  1.60219551E+00
  1.66083065E+00  1.72529947E+00  1.73336568E+00  1.80176281E+00  1.84967438E+00
  1.86095940E+00  1.91461123E+00  2.01607173E+00  2.04942302E+00  2.10326786E+00
  2.15072082E+00  2.17567399E+00  2.18558879E+00  2.23329588E+00  2.24341187E+00
  2.37688210E+00  2.42562451E+00  2.43758710E+00  2.57618308E+00  2.66036522E+00
  2.71308282E+00  2.77862421E+00  2.84569834E+00  2.87421516E+00  2.90775507E+00
  2.98132498E+00  3.02161844E+00  3.12329708E+00  3.22152986E+00  3.24709243E+00
  3.29785800E+00  3.31209564E+00  3.35169879E+00  3.52704209E+00  3.58382694E+00
  3.70661705E+00  3.77860499E+00  3.82128374E+00  3.82475683E+00  4.03289504E+00
  4.05158877E+00  4.17669093E+00  4.24858729E+00  4.35965674E+00  4.54901183E+00
  4.60997936E+00  4.68810528E+00  4.71909332E+00  4.76134983E+00  4.79332071E+00
  4.81720385E+00  4.85226890E+00  4.96778119E+00  5.03991033E+00  5.11663374E+00
  5.24134911E+00  5.24563657E+00  5.32768301E+00  5.65562787E+00  5.66529045E+00
  5.80716905E+00  6.02439378E+00  6.19250967E+00  6.95295254E+00  2.24947583E+01
  3.17840871E+01  3.22554739E+01
Alpha MO coefficients                      R   N=       13689
  1.24064920E-06  1.73417217E-05 -9.10959675E-04  9.52332847E-03 -4.54812438E-03
  2.62882331E-04 -5.34016200E-06 -2.56555440E-05  6.33343610E-03  1.71030883E-04
  4.99327082E-04 -7.21279569E-04  2.96541483E-04  1.12087644E-03 -3.01105580E-05
  3.15001096E-05 -2.11629173E-06  4.40911262E-05  8.96858420E-06 -8.03562993E-04
  7.53612842E-04  2.28963631E-04  2.16611350E-03  2.27921465E-04 -1.64662417E-04
  2.60784089E-04 -1.07531084E-05  2.22064554E-04  1.01497599E-04 -5.85361357E-05
  7.26564111E-05  4.48660824E-01  6.26729301E-01  3.77108818E-02 -3.55311979E-02
  1.58121476E-02 -2.14932230E-04 -1.02499149E-04 -3.77417726E-04  2.12933591E-03
  7.91248669E-04  2.90283931E-03  2.38154924E-03 -7.89650175E-04 -2.99539921E-03
  1.34061581E-04 -4.30930363E-04  2.29979225E-04  5.73420874E-04 -1.08531413E-04
 -3.19453597E-04  3.17348192E-03 -8.43659148E-04 -2.43924361E-03  8.21486641E-04
  5.83488993E-05 -1.24895313E-04  1.09487196E-04  1.17032752E-04 -3.67409947E-05
  5.19775536E-05  4.50188993E-05  4.79273861E-04  7.36202531E-04 -1.22293527E-03
  7.88491518E-03 -7.46416954E-03 -8.73724193E-05 -1.18525871E-05 -4.22711939E-05
 -2.12640280E-03  1.16199010E-03  4.37771453E-03  1.25967113E-03 -5.94468323E-04
 -2.24340273E-03 -1.46884204E-05 -7.69624641E-05 -5.37444631E-06  8.65444333E-06
 -2.05551485E-05  9.81574412E-04 -6.12872196E-04  5.50705629E-04  2.19162631E-04
 -1.60992771E-04 -5.66102659E-06  3.34586253E-04 -6.01760525E-05 -1.08370162E-04
  1.67071278E-04  4.46217221E-05 -3.76108824E-05 -1.65825802E-04 -1.55042024E-04
  8.13303891E-05  1.99106051E-04 -7.51391912E-05 -2.84428800E-04  2.03624599E-04
 -6.57588395E-04  5.45050213E-04 -4.12690370E-04  2.15433973E-06  1.70742291E-05
  1.21843606E-04 -6.28782084E-04  1.56131531E-03 -1.43031038E-04 -1.35460852E-05
 -4.73229093E-05 -1.52279295E-04  8.87581173E-04 -1.93372183E-03 -8.48053779E-05
  1.17520424E-04  4.39885925E-04 -2.70509519E-06  1.45363701E-05  1.19079388E-05
 -1.03644603E-03 -2.74685901E-03  3.43896326E-05 -6.05127958E-06 -2.33011232E-05
 -2.00394483E-03  2.12465457E-04  8.35852473E-04 -1.10364467E-03  5.92154783E-04
  2.23138890E-03 -1.69605668E-05  1.28694410E-05 -8.39257732E-06  5.83094253E-09
  3.44280831E-06  6.49878598E-04  7.21842888E-04  1.72924928E-04 -5.44074151E-04
  1.87579238E-04 -5.19839114E-05 -1.71141547E-04 -6.69564326E-06  6.83130219E-05
 -9.73291588E-05 -5.65461807E-05  2.10771225E-05 -5.32128507E-04 -6.83279304E-04
 -1.10116390E-03  7.31459634E-03 -3.53585183E-04  1.01769294E-04 -2.85704235E-05
 -1.08713224E-04  1.34132239E-03 -7.66624659E-04 -2.88688335E-03 -2.36866057E-03
 -5.26909267E-04 -1.91216912E-03  7.07345579E-05 -1.06619551E-04  1.10035990E-05
 -8.19462770E-05 -2.95482389E-05 -6.49356061E-05 -1.63157449E-04  2.13031995E-04
  8.53122414E-04 -3.34278726E-05  1.07645708E-04 -3.96993748E-04  1.60431820E-04
  1.42320194E-04 -1.89823474E-04 -3.04834347E-05  5.39164594E-05  4.48636274E-01
  6.27073212E-01  3.44784800E-02 -2.48893339E-02  1.08761196E-02  4.32048517E-05
  7.80479452E-04  2.90818369E-03  1.60709700E-03 -1.26874277E-03 -4.76422398E-03
  1.12106678E-03  4.37465300E-04  1.60602761E-03  1.69096803E-04 -3.18745320E-04
  1.60876559E-04  2.71050180E-04 -8.20742923E-05 -1.03539467E-03  1.41696166E-03
 -6.36275816E-04 -4.40778270E-04  3.73977787E-04 -1.02354236E-04  1.31236333E-04
 -1.28575201E-04 -8.71948660E-05  8.18855026E-05  6.63074304E-05 -3.37585079E-05
  7.39139202E-05  6.76471631E-04 -3.06566887E-03  2.23943516E-04  7.12673622E-05
  2.60737918E-04 -4.96753527E-05 -8.10179456E-04 -1.08789427E-03 -1.88682843E-04
  4.09093783E-05  1.56650978E-04 -1.51251164E-04 -4.03174585E-04  1.45896364E-03
 -7.39993716E-05 -4.04160869E-05 -1.48945667E-04 -8.46409074E-05  2.78215318E-04
  1.35837603E-03 -2.75146433E-04  7.41417872E-05  2.82387804E-04  4.67217135E-01
  6.08479098E-01  3.35101172E-02 -3.96788107E-03  9.14330299E-03  1.73848681E-03
 -5.04379225E-06 -5.64226944E-05  7.95709749E-03 -8.68922578E-05 -4.96990061E-04
 -6.11034609E-04 -1.08562520E-04 -3.90978360E-04  3.43734496E-06 -1.35140791E-04
  5.19661714E-04  1.79483484E-03 -1.43094400E-05 -1.20265381E-03 -4.33104184E-04
  4.47982283E-04  3.64266827E-03 -7.27624236E-05  3.60406257E-04 -1.88675766E-03
  9.33432799E-05 -3.38854373E-04 -5.23415099E-04  9.69750957E-04 -9.27498844E-05
 -8.21211077E-05 -1.51378392E-04  2.61572200E-03 -1.10408700E-02 -2.94290266E-03
 -8.07908319E-04  3.40028278E-05  1.44408306E-04  1.02154192E-02 -4.44225681E-04
 -1.87905044E-03 -1.77990134E-04  3.09294925E-05  1.19049265E-04 -3.76346804E-05
 -1.78464923E-05 -6.14305908E-05 -1.46882460E-04 -6.60357694E-06  3.34590289E-03
  4.42319899E-04  5.21379946E-04 -4.00183661E-03  7.25616724E-05  9.01313166E-05
 -5.90679201E-04 -8.09476538E-06 -1.43378991E-04  1.47990333E-05  8.09851195E-04
 -3.36264786E-05  2.63421525E-06  1.94215250E-05  1.50410156E-04 -1.44172462E-03
  8.84560634E-04 -1.09890271E-04 -3.74516683E-06 -1.15607291E-05  1.62532312E-03
 -1.75434706E-04 -6.89452519E-04  3.98025760E-04  1.58424192E-04  5.81859547E-04
 -3.14671077E-05 -4.81472015E-05 -3.07800470E-05 -5.08412636E-05 -1.35627133E-05
  1.97861394E-04  9.52999624E-04  7.79209983E-05 -9.54802679E-05  2.54687535E-04
  7.56227212E-05  6.66116112E-05  3.85838504E-05 -4.28913136E-05  4.64175208E-05
  4.64340675E-05 -1.14314625E-05 -2.05964321E-04 -4.24046029E-04 -1.10589684E-04
  1.06977627E-04  4.88441495E-06  1.58636183E-05 -7.01098276E-04 -1.38695006E-03
 -1.72058807E-03 -7.81476407E-04  5.10935508E-04  1.92210195E-03 -6.72196236E-04
 -1.35107451E-03 -2.28774925E-03 -1.06657425E-03 -4.64427763E-04 -1.70750055E-03
 -3.82050862E-04 -6.78755541E-05 -4.93803580E-05  3.87824793E-04 -2.70957671E-05
 -1.09470550E-04 -3.09512051E-02 -6.47817183E-02  1.01788264E-01  5.93738246E-02
  1.65870568E-02  7.02390173E-02 -1.62299122E-03 -7.58223918E-03  2.75542743E-02
 -1.59014920E-03 -6.52844364E-03  3.22766649E-03  3.52756862E-04  1.24447938E-03
 -3.36992595E-03 -1.79660405E-03  6.48752328E-04  8.12262785E-03 -3.85805248E-04
 -3.24243827E-03 -3.36517977E-03 -1.05085255E-03  2.05949935E-03 -8.80478939E-04
  5.33008053E-04 -1.14203968E-03 -8.04926481E-06 -7.99553717E-04  8.60761562E-05
  1.74835403E-03 -2.35043474E-04 -8.74895357E-02 -1.97422657E-01  2.96381164E-01
  3.60989819E-01  4.92272994E-02  1.38090806E-02 -1.01330500E-02 -3.80752073E-02
  7.08872974E-03 -6.99106232E-03 -2.62166470E-02  3.84627972E-03  2.23071341E-03
  8.23147935E-03  3.12934503E-03 -3.95608669E-03  3.20811552E-03  5.76880595E-03
 -9.88594873E-04  4.59396748E-03 -1.17460627E-02  6.16482940E-03  1.36420492E-02
 -2.98165951E-03 -2.09177491E-04  5.22201911E-03 -8.07678524E-04 -1.26147507E-03
  2.01520150E-03 -9.94708827E-04 -4.69618372E-04 -5.07041194E-02 -1.13866667E-01
  1.71064112E-01  1.71927436E-01  4.61237559E-02 -3.44949411E-02  2.28801458E-02
  8.60372317E-02 -1.81941531E-02  1.47111223E-02  5.52314836E-02 -7.44634728E-03
  2.50385410E-03  9.49537273E-03  4.47733926E-03 -5.92754201E-03  3.10287471E-03
  3.11678711E-03 -1.54890223E-03  6.57850363E-03 -6.83186275E-03  4.12747135E-03
  3.04278829E-03 -1.79075636E-03  1.59262596E-04 -2.58461005E-03  1.20585888E-03
  2.03232519E-03 -1.12294539E-03  7.59820842E-05  7.31965964E-04  3.35947616E-02
  2.91158717E-02  2.10913297E-03 -7.46781679E-03  2.15220470E-04  9.65468614E-04
  1.05508652E-02  1.38797128E-02 -3.86706858E-03  3.07235728E-03 -5.59370294E-04
 -2.15291518E-03  1.09190282E-02  1.44610456E-02 -2.06241285E-03  2.93796423E-03
  5.08796245E-04  1.83178876E-03  5.87695193E-02  4.86924667E-02 -2.28190081E-03
 -3.93172964E-03 -2.87387723E-03 -1.06269063E-02  5.86595285E-02  1.24588387E-01
 -1.97368435E-01 -1.67848563E-01 -3.09151401E-02 -8.74395574E-02 -4.35054027E-03
 -1.43150168E-02 -3.53509595E-02 -3.42024116E-03 -1.19833063E-02 -4.65948018E-03
 -1.38122914E-03 -5.04705511E-03  3.67293998E-03 -9.32208347E-04 -1.44444455E-03
 -1.13363316E-02 -3.85365558E-04 -5.56698427E-04 -5.21793182E-03 -2.12539692E-03
 -6.26563548E-03 -1.47672874E-03 -1.10990591E-04  3.92391462E-03 -2.19973330E-04
 -2.91740826E-04  6.66109874E-04 -3.17054167E-03 -1.61704581E-04  2.59930012E-02
  5.88795399E-02 -8.79452968E-02 -1.32711009E-01 -4.17430693E-02  1.88974745E-01
 -3.56466717E-02 -1.37000008E-01  1.34615928E-01 -2.34665859E-02 -9.04110724E-02
  3.39958812E-02 -3.84065866E-03 -1.50598007E-02  4.25646419E-03 -5.73584201E-03
  1.13701056E-03 -3.30415170E-03 -1.57584219E-03  2.75869856E-03 -2.67947744E-03
 -4.06421066E-04 -6.12062736E-03 -7.91226036E-04  9.45793697E-05 -7.94337891E-05
 -1.03358274E-03 -2.06097606E-03  8.78018854E-04  2.67124757E-03 -6.85082785E-04
 -6.51206696E-02 -1.47359327E-01  2.21765171E-01  2.75710754E-01  8.92622629E-02
  2.80868745E-02  1.86084308E-02  6.87469679E-02  1.63501048E-02  1.67768682E-02
  6.21763180E-02 -2.22662429E-03  2.84344491E-03  1.06480680E-02  2.84269867E-03
 -1.59457964E-03  2.36960106E-03  3.31007358E-03 -3.85265680E-04  8.06985348E-03
 -4.62853001E-03  5.46256956E-03  5.02642086E-03 -1.17424081E-03  6.93213835E-04
 -3.02930482E-03  1.51565738E-03  1.81094753E-03 -9.97043319E-04  1.01151571E-03
  6.90354836E-04  7.33960759E-02  7.47980167E-02  9.07414499E-03 -1.35309639E-02
 -4.34077871E-04 -1.32219320E-03 -4.01767647E-02 -4.21012871E-02 -1.80419579E-03
 -4.79108908E-03  1.35678660E-03  5.16302637E-03 -2.83539472E-02 -2.64094056E-02