0001_q000_m01_k00_opt_uwb97xd_def2svpd/0001_q000_m01_k00_force_uwb97xd_d
Force     UwB97XD                                                     Gen                 
Number of atoms                            I                7
Info1-9                                    I   N=           9
          13           9           0           0           0         100
           5          18       -5802
Full Title                                 C   N=           8
0001_q000_m01_k00_opt_uwb97xd_def2svpd/0001_q000_m01_k00_for
ce_uwb97xd_def2tzvpd stable-force   
Route                                      C   N=          15
#p uwb97xd/chkbasis force guess=read geom=check scf=(maxcycl
e=900,verytightlineq,xqc) integral=grid=ultrafine symmetry=N
one density=current pop=(cm5,hlygat,mbs,npa) output=wfx     
Charge                                     I                0
Multiplicity                               I                1
Number of electrons                        I               24
Number of alpha electrons                  I               12
Number of beta electrons                   I               12
Number of basis functions                  I              147
Number of independent functions            I              147
Number of point charges in /Mol/           I                0
Number of translation vectors              I                0
Atomic numbers                             I   N=           7
           6           7           7           1           1           1
           1
Nuclear charges                            R   N=           7
  6.00000000E+00  7.00000000E+00  7.00000000E+00  1.00000000E+00  1.00000000E+00
  1.00000000E+00  1.00000000E+00
Current cartesian coordinates              R   N=          21
  2.02695212E+00 -1.32657117E-01 -2.89151970E-01  4.49366243E+00 -1.69594780E-01
 -4.80718912E-01  5.82669740E+00 -6.96306974E-01 -2.47313900E+00  7.67994023E+00
 -5.53065660E-01 -1.97974669E+00  1.20935456E+00  3.49890902E-01  1.52789288E+00
  9.12820557E-01 -5.85776711E-01 -1.95345676E+00  5.41878558E+00  2.75672749E-01
  1.15865244E+00
Number of symbols in /Mol/                 I                0
Int Atom Types                             I   N=           7
           0           0           0           0           0           0
           0
Force Field                                I                0
Atom Types                                 C   N=           7
                                                            
                        
MM charges                                 R   N=           7
  0.00000000E+00  0.00000000E+00  0.00000000E+00  0.00000000E+00  0.00000000E+00
  0.00000000E+00  0.00000000E+00
Integer atomic weights                     I   N=           7
          12          14          14           1           1           1
           1
Real atomic weights                        R   N=           7
  1.20000000E+01  1.40030740E+01  1.40030740E+01  1.00782504E+00  1.00782504E+00
  1.00782504E+00  1.00782504E+00
Atom fragment info                         I   N=           7
           0           0           0           0           0           0
           0
Atom residue num                           I   N=           7
           0           0           0           0           0           0
           0
Nuclear spins                              I   N=           7
           0           2           2           1           1           1
           1
Nuclear ZEff                               R   N=           7
 -3.60000000E+00 -4.55000000E+00 -4.55000000E+00 -1.00000000E+00 -1.00000000E+00
 -1.00000000E+00 -1.00000000E+00
Nuclear ZNuc                               R   N=           7
  6.00000000E+00  7.00000000E+00  7.00000000E+00  1.00000000E+00  1.00000000E+00
  1.00000000E+00  1.00000000E+00
Nuclear QMom                               R   N=           7
  0.00000000E+00  2.04400000E+00  2.04400000E+00  0.00000000E+00  0.00000000E+00
  0.00000000E+00  0.00000000E+00
Nuclear GFac                               R   N=           7
  0.00000000E+00  4.03761000E-01  4.03761000E-01  2.79284600E+00  2.79284600E+00
  2.79284600E+00  2.79284600E+00
MicOpt                                     I   N=           7
          -1          -1          -1          -1          -1          -1
          -1
Number of residues                         I                0
Number of secondary structures             I                0
Number of contracted shells                I               59
Number of primitive shells                 I               94
Pure/Cartesian d shells                    I                0
Pure/Cartesian f shells                    I                0
Highest angular momentum                   I                3
Largest degree of contraction              I                6
Shell types                                I   N=          59
           0           0           0           0           0           0
           1           1           1          -2          -2          -2
          -3           0           0           0           0           0
           0           1           1           1          -2          -2
          -2          -3           0           0           0           0
           0           0           1           1           1          -2
          -2          -2          -3           0           0           0
           1           1           0           0           0           1
           1           0           0           0           1           1
           0           0           0           1           1
Number of primitives per shell             I   N=          59
           6           2           1           1           1           1
           4           1           1           1           1           1
           1           6           2           1           1           1
           1           4           1           1           1           1
           1           1           6           2           1           1
           1           1           4           1           1           1
           1           1           1           3           1           1
           1           1           3           1           1           1
           1           3           1           1           1           1
           3           1           1           1           1
Shell to atom map                          I   N=          59
           1           1           1           1           1           1
           1           1           1           1           1           1
           1           2           2           2           2           2
           2           2           2           2           2           2
           2           2           3           3           3           3
           3           3           3           3           3           3
           3           3           3           4           4           4
           4           4           5           5           5           5
           5           6           6           6           6           6
           7           7           7           7           7
Primitive exponents                        R   N=          94
  1.35753497E+04  2.03523337E+03  4.63225624E+02  1.31200196E+02  4.28530159E+01
  1.55841858E+01  6.20671385E+00  2.57648965E+00  5.76963394E-01  2.29728314E-01
  9.51644400E-02  4.84754014E-02  3.46972322E+01  7.95826228E+00  2.37808269E+00
  8.14332082E-01  2.88875473E-01  1.00568237E-01  1.09700000E+00  3.18000000E-01
  9.09853364E-02  7.61000000E-01  1.97308006E+04  2.95789587E+03  6.73221336E+02
  1.90682495E+02  6.22954419E+01  2.26541612E+01  8.97914774E+00  3.68630024E+00
  8.46600768E-01  3.36471338E-01  1.36476537E-01  6.84416058E-02  4.92003805E+01
  1.13467905E+01  3.42739724E+00  1.17855251E+00  4.16422050E-01  1.42608260E-01
  1.65400000E+00  4.69000000E-01  1.28296421E-01  1.09300000E+00  1.97308006E+04
  2.95789587E+03  6.73221336E+02  1.90682495E+02  6.22954419E+01  2.26541612E+01
  8.97914774E+00  3.68630024E+00  8.46600768E-01  3.36471338E-01  1.36476537E-01
  6.84416058E-02  4.92003805E+01  1.13467905E+01  3.42739724E+00  1.17855251E+00
  4.16422050E-01  1.42608260E-01  1.65400000E+00  4.69000000E-01  1.28296421E-01
  1.09300000E+00  3.40613410E+01  5.12357460E+00  1.16466260E+00  3.27230410E-01
  1.03072410E-01  8.00000000E-01  9.57741296E-02  3.40613410E+01  5.12357460E+00
  1.16466260E+00  3.27230410E-01  1.03072410E-01  8.00000000E-01  9.57741296E-02
  3.40613410E+01  5.12357460E+00  1.16466260E+00  3.27230410E-01  1.03072410E-01
  8.00000000E-01  9.57741296E-02  3.40613410E+01  5.12357460E+00  1.16466260E+00
  3.27230410E-01  1.03072410E-01  8.00000000E-01  9.57741296E-02
Contraction coefficients                   R   N=          94
  6.06455036E-04  4.69790889E-03  2.43324776E-02  9.73999683E-02  3.01955843E-01
  6.62336091E-01  6.55953085E-01  3.75856333E-01  1.00000000E+00  1.00000000E+00
  1.00000000E+00  1.00000000E+00  1.13272200E-02  7.61696592E-02  3.01922522E-01
  7.27850273E-01  1.00000000E+00  1.00000000E+00  1.00000000E+00  1.00000000E+00
  1.00000000E+00  1.00000000E+00  5.86264026E-04  4.54288206E-03  2.35584135E-02
  9.47091933E-02  2.97197849E-01  6.69162469E-01  6.45966836E-01  3.87005744E-01
  1.00000000E+00  1.00000000E+00  1.00000000E+00  1.00000000E+00  1.14488251E-02
  7.84223380E-02  3.08180947E-01  7.20271964E-01  1.00000000E+00  1.00000000E+00
  1.00000000E+00  1.00000000E+00  1.00000000E+00  1.00000000E+00  5.86264026E-04
  4.54288206E-03  2.35584135E-02  9.47091933E-02  2.97197849E-01  6.69162469E-01
  6.45966836E-01  3.87005744E-01  1.00000000E+00  1.00000000E+00  1.00000000E+00
  1.00000000E+00  1.14488251E-02  7.84223380E-02  3.08180947E-01  7.20271964E-01
  1.00000000E+00  1.00000000E+00  1.00000000E+00  1.00000000E+00  1.00000000E+00
  1.00000000E+00  2.54393072E-02  1.90085949E-01  8.52441130E-01  1.00000000E+00
  1.00000000E+00  1.00000000E+00  1.00000000E+00  2.54393072E-02  1.90085949E-01
  8.52441130E-01  1.00000000E+00  1.00000000E+00  1.00000000E+00  1.00000000E+00
  2.54393072E-02  1.90085949E-01  8.52441130E-01  1.00000000E+00  1.00000000E+00
  1.00000000E+00  1.00000000E+00  2.54393072E-02  1.90085949E-01  8.52441130E-01
  1.00000000E+00  1.00000000E+00  1.00000000E+00  1.00000000E+00
Coordinates of each shell                  R   N=         177
  2.02695212E+00 -1.32657117E-01 -2.89151970E-01  2.02695212E+00 -1.32657117E-01
 -2.89151970E-01  2.02695212E+00 -1.32657117E-01 -2.89151970E-01  2.02695212E+00
 -1.32657117E-01 -2.89151970E-01  2.02695212E+00 -1.32657117E-01 -2.89151970E-01
  2.02695212E+00 -1.32657117E-01 -2.89151970E-01  2.02695212E+00 -1.32657117E-01
 -2.89151970E-01  2.02695212E+00 -1.32657117E-01 -2.89151970E-01  2.02695212E+00
 -1.32657117E-01 -2.89151970E-01  2.02695212E+00 -1.32657117E-01 -2.89151970E-01
  2.02695212E+00 -1.32657117E-01 -2.89151970E-01  2.02695212E+00 -1.32657117E-01
 -2.89151970E-01  2.02695212E+00 -1.32657117E-01 -2.89151970E-01  4.49366243E+00
 -1.69594780E-01 -4.80718912E-01  4.49366243E+00 -1.69594780E-01 -4.80718912E-01
  4.49366243E+00 -1.69594780E-01 -4.80718912E-01  4.49366243E+00 -1.69594780E-01
 -4.80718912E-01  4.49366243E+00 -1.69594780E-01 -4.80718912E-01  4.49366243E+00
 -1.69594780E-01 -4.80718912E-01  4.49366243E+00 -1.69594780E-01 -4.80718912E-01
  4.49366243E+00 -1.69594780E-01 -4.80718912E-01  4.49366243E+00 -1.69594780E-01
 -4.80718912E-01  4.49366243E+00 -1.69594780E-01 -4.80718912E-01  4.49366243E+00
 -1.69594780E-01 -4.80718912E-01  4.49366243E+00 -1.69594780E-01 -4.80718912E-01
  4.49366243E+00 -1.69594780E-01 -4.80718912E-01  5.82669740E+00 -6.96306974E-01
 -2.47313900E+00  5.82669740E+00 -6.96306974E-01 -2.47313900E+00  5.82669740E+00
 -6.96306974E-01 -2.47313900E+00  5.82669740E+00 -6.96306974E-01 -2.47313900E+00
  5.82669740E+00 -6.96306974E-01 -2.47313900E+00  5.82669740E+00 -6.96306974E-01
 -2.47313900E+00  5.82669740E+00 -6.96306974E-01 -2.47313900E+00  5.82669740E+00
 -6.96306974E-01 -2.47313900E+00  5.82669740E+00 -6.96306974E-01 -2.47313900E+00
  5.82669740E+00 -6.96306974E-01 -2.47313900E+00  5.82669740E+00 -6.96306974E-01
 -2.47313900E+00  5.82669740E+00 -6.96306974E-01 -2.47313900E+00  5.82669740E+00
 -6.96306974E-01 -2.47313900E+00  7.67994023E+00 -5.53065660E-01 -1.97974669E+00
  7.67994023E+00 -5.53065660E-01 -1.97974669E+00  7.67994023E+00 -5.53065660E-01
 -1.97974669E+00  7.67994023E+00 -5.53065660E-01 -1.97974669E+00  7.67994023E+00
 -5.53065660E-01 -1.97974669E+00  1.20935456E+00  3.49890902E-01  1.52789288E+00
  1.20935456E+00  3.49890902E-01  1.52789288E+00  1.20935456E+00  3.49890902E-01
  1.52789288E+00  1.20935456E+00  3.49890902E-01  1.52789288E+00  1.20935456E+00
  3.49890902E-01  1.52789288E+00  9.12820557E-01 -5.85776711E-01 -1.95345676E+00
  9.12820557E-01 -5.85776711E-01 -1.95345676E+00  9.12820557E-01 -5.85776711E-01
 -1.95345676E+00  9.12820557E-01 -5.85776711E-01 -1.95345676E+00  9.12820557E-01
 -5.85776711E-01 -1.95345676E+00  5.41878558E+00  2.75672749E-01  1.15865244E+00
  5.41878558E+00  2.75672749E-01  1.15865244E+00  5.41878558E+00  2.75672749E-01
  1.15865244E+00  5.41878558E+00  2.75672749E-01  1.15865244E+00  5.41878558E+00
  2.75672749E-01  1.15865244E+00
Num ILSW                                   I              100
ILSW                                       I   N=         100
           1           0           0           0           2           0
           0           0           0           0        4639          -1
           5           0           0           0           2           0
           0           0           0           0           1           0
           1           1           0           0           0           0
           0           0      100000           0          -1           0
           0           0           0           0           0           0
           0           0           0           1           0           0
           0 -2000000000           1           0           0           0
           0           0         121          52           0           0
           0           0          58           0           0           0
           0           0           0           7           0           1
           0           0           0           0           0           0
           0           0           0           0           0           0
           0           0           0           0           0           0
           0           0           0           0           0           0
           0           0           0           0
Num RLSW                                   I               52
RLSW                                       R   N=          52
  1.00000000E+00  1.00000000E+00  1.00000000E+00  1.00000000E+00  1.00000000E+00
  0.00000000E+00  2.00000000E-01  2.22036000E-01  0.00000000E+00  7.77964000E-01
  0.00000000E+00  2.00000000E-01  0.00000000E+00  0.00000000E+00  1.00000000E+00
  0.00000000E+00  0.00000000E+00  1.00000000E+00  0.00000000E+00  0.00000000E+00
  0.00000000E+00  0.00000000E+00  1.00000000E+00  0.00000000E+00  0.00000000E+00
  0.00000000E+00  0.00000000E+00  1.00000000E+00  0.00000000E+00  0.00000000E+00
  0.00000000E+00  0.00000000E+00  1.00000000E+00  0.00000000E+00  0.00000000E+00
  0.00000000E+00  0.00000000E+00  0.00000000E+00  1.00000000E+00  1.00000000E+00
  0.00000000E+00  1.00000000E+00  0.00000000E+00  0.00000000E+00  0.00000000E+00
  0.00000000E+00  0.00000000E+00  0.00000000E+00  0.00000000E+00  0.00000000E+00
  0.00000000E+00  0.00000000E+00
MxBond                                     I                3
NBond                                      I   N=           7
           3           3           2           1           1           1
           1
IBond                                      I   N=          21
           2           5           6           1           3           7
           2           4           0           3           0           0
           1           0           0           1           0           0
           2           0           0
RBond                                      R   N=          21
  2.00000000E+00  1.00000000E+00  1.00000000E+00  2.00000000E+00  1.00000000E+00
  1.00000000E+00  1.00000000E+00  1.00000000E+00  0.00000000E+00  1.00000000E+00
  0.00000000E+00  0.00000000E+00  1.00000000E+00  0.00000000E+00  0.00000000E+00
  1.00000000E+00  0.00000000E+00  0.00000000E+00  1.00000000E+00  0.00000000E+00
  0.00000000E+00
Virial Ratio                               R      2.004909801423751E+00
SCF Energy                                 R     -1.499345747821314E+02
Total Energy                               R     -1.499345747821314E+02
S**2                                       R     -2.131628207280301E-14
S**2 after annihilation                    R      4.369837824924515E-13
RMS Force                                  R      2.358710600546674E-03
RMS Density                                R      4.471708160211706E-10
Job Status                                 I                1
Nuclear derivative order                   I                1
External E-field                           R   N=          35
  0.00000000E+00  0.00000000E+00  0.00000000E+00  0.00000000E+00  0.00000000E+00
  0.00000000E+00  0.00000000E+00  0.00000000E+00  0.00000000E+00  0.00000000E+00
  0.00000000E+00  0.00000000E+00  0.00000000E+00  0.00000000E+00  0.00000000E+00
  0.00000000E+00  0.00000000E+00  0.00000000E+00  0.00000000E+00  0.00000000E+00
  0.00000000E+00  0.00000000E+00  0.00000000E+00  0.00000000E+00  0.00000000E+00
  0.00000000E+00  0.00000000E+00  0.00000000E+00  0.00000000E+00  0.00000000E+00
  0.00000000E+00  0.00000000E+00  0.00000000E+00  0.00000000E+00  0.00000000E+00
IOpCl                                      I                1
IROHF                                      I                0
Alpha Orbital Energies                     R   N=         147
 -1.45594517E+01 -1.44178949E+01 -1.03094394E+01 -1.14226785E+00 -9.06556403E-01
 -7.39438132E-01 -6.56746147E-01 -5.71305590E-01 -5.20690985E-01 -5.03960216E-01
 -3.67067058E-01 -2.75660010E-01  4.55941092E-02  5.73618345E-02  8.90833612E-02
  1.15549899E-01  1.51914286E-01  1.69983602E-01  1.73993682E-01  1.78191106E-01
  2.26135948E-01  2.35142094E-01  2.36962788E-01  2.51086283E-01  2.62385157E-01
  2.73649921E-01  2.93184635E-01  3.17442468E-01  3.19933140E-01  3.26968119E-01
  3.49069852E-01  3.53924820E-01  3.64431182E-01  3.81137098E-01  4.00961738E-01
  4.22162403E-01  4.23479885E-01  4.31722566E-01  4.54132132E-01  4.76085412E-01
  4.82574326E-01  4.92467154E-01  4.95447456E-01  5.22724895E-01  5.40276841E-01
  5.45503042E-01  5.83528552E-01  5.99624266E-01  6.00208617E-01  6.35231241E-01
  6.51775411E-01  6.51971213E-01  7.17752754E-01  7.63564100E-01  7.74359794E-01
  7.85577731E-01  8.21378742E-01  8.22828710E-01  8.43145088E-01  8.64504964E-01
  9.10727652E-01  9.36175023E-01  9.46743950E-01  9.89859774E-01  1.02117620E+00
  1.03731552E+00  1.13489323E+00  1.17100700E+00  1.24466407E+00  1.27101781E+00
  1.35128143E+00  1.36772738E+00  1.46780468E+00  1.50761224E+00  1.51717150E+00
  1.66524833E+00  1.66832389E+00  1.68412684E+00  1.77280885E+00  1.84529848E+00
  1.86625793E+00  1.90246119E+00  1.93178043E+00  1.95101596E+00  2.00328281E+00
  2.05736530E+00  2.08849357E+00  2.14281890E+00  2.25497982E+00  2.29673717E+00
  2.29915623E+00  2.33556294E+00  2.38450124E+00  2.45420413E+00  2.48840808E+00
  2.56854955E+00  2.62009590E+00  2.68960781E+00  2.74036316E+00  2.81570162E+00
  2.89248066E+00  2.91242281E+00  2.94264575E+00  2.97083366E+00  3.03830398E+00
  3.11976437E+00  3.17179671E+00  3.23222820E+00  3.26030983E+00  3.27347740E+00
  3.36680540E+00  3.38279150E+00  3.40251732E+00  3.61877182E+00  3.65070339E+00
  3.77419910E+00  3.88551820E+00  3.89453413E+00  3.92742197E+00  4.05916186E+00
  4.20692391E+00  4.27144861E+00  4.27955616E+00  4.44960535E+00  4.67205903E+00
  4.69095269E+00  4.78673351E+00  4.78900071E+00  4.85890403E+00  4.89013595E+00
  4.92114330E+00  4.95003105E+00  5.04210136E+00  5.07946691E+00  5.25702174E+00
  5.26618075E+00  5.33461249E+00  5.47211995E+00  5.70607007E+00  5.75513313E+00
  5.83084851E+00  6.07309791E+00  6.24623708E+00  7.02864854E+00  2.27128816E+01
  3.22553386E+01  3.25573619E+01
Beta Orbital Energies                      R   N=         147
 -1.45594517E+01 -1.44178949E+01 -1.03094394E+01 -1.14226785E+00 -9.06556403E-01
 -7.39438132E-01 -6.56746147E-01 -5.71305590E-01 -5.20690985E-01 -5.03960216E-01
 -3.67067058E-01 -2.75660010E-01  4.55941092E-02  5.73618345E-02  8.90833612E-02
  1.15549899E-01  1.51914286E-01  1.69983602E-01  1.73993682E-01  1.78191106E-01
  2.26135948E-01  2.35142094E-01  2.36962788E-01  2.51086283E-01  2.62385157E-01
  2.73649921E-01  2.93184635E-01  3.17442468E-01  3.19933140E-01  3.26968119E-01
  3.49069852E-01  3.53924820E-01  3.64431182E-01  3.81137098E-01  4.00961738E-01
  4.22162403E-01  4.23479885E-01  4.31722566E-01  4.54132132E-01  4.76085412E-01
  4.82574326E-01  4.92467154E-01  4.95447456E-01  5.22724895E-01  5.40276841E-01
  5.45503042E-01  5.83528552E-01  5.99624266E-01  6.00208617E-01  6.35231241E-01
  6.51775411E-01  6.51971213E-01  7.17752754E-01  7.63564100E-01  7.74359794E-01
  7.85577731E-01  8.21378742E-01  8.22828710E-01  8.43145088E-01  8.64504964E-01
  9.10727652E-01  9.36175023E-01  9.46743950E-01  9.89859774E-01  1.02117620E+00
  1.03731552E+00  1.13489323E+00  1.17100700E+00  1.24466407E+00  1.27101781E+00
  1.35128143E+00  1.36772738E+00  1.46780468E+00  1.50761224E+00  1.51717150E+00
  1.66524833E+00  1.66832389E+00  1.68412684E+00  1.77280885E+00  1.84529848E+00
  1.86625793E+00  1.90246119E+00  1.93178043E+00  1.95101596E+00  2.00328281E+00
  2.05736530E+00  2.08849357E+00  2.14281890E+00  2.25497982E+00  2.29673717E+00
  2.29915623E+00  2.33556294E+00  2.38450124E+00  2.45420413E+00  2.48840808E+00
  2.56854955E+00  2.62009590E+00  2.68960781E+00  2.74036316E+00  2.81570162E+00
  2.89248066E+00  2.91242281E+00  2.94264575E+00  2.97083366E+00  3.03830398E+00
  3.11976437E+00  3.17179671E+00  3.23222820E+00  3.26030983E+00  3.27347740E+00
  3.36680540E+00  3.38279150E+00  3.40251732E+00  3.61877182E+00  3.65070339E+00
  3.77419910E+00  3.88551820E+00  3.89453413E+00  3.92742197E+00  4.05916186E+00
  4.20692391E+00  4.27144861E+00  4.27955616E+00  4.44960535E+00  4.67205903E+00
  4.69095269E+00  4.78673351E+00  4.78900071E+00  4.85890403E+00  4.89013595E+00
  4.92114330E+00  4.95003105E+00  5.04210136E+00  5.07946691E+00  5.25702174E+00
  5.26618075E+00  5.33461249E+00  5.47211995E+00  5.70607007E+00  5.75513313E+00
  5.83084851E+00  6.07309791E+00  6.24623708E+00  7.02864854E+00  2.27128816E+01
  3.22553386E+01  3.25573619E+01
Alpha MO coefficients                      R   N=       21609
  6.54544063E-06 -1.37824621E-05  3.04020725E-04  4.12240330E-03 -5.47482934E-03
 -3.17451321E-03  3.61213179E-04 -1.04215091E-05 -4.67211649E-05  4.75349239E-03
  2.12389545E-04  6.87638984E-04 -9.69034096E-03  3.83962657E-04  1.64404928E-03
  2.41206520E-05  1.02877707E-05  1.85947799E-05  2.23110055E-05  3.05178748E-06
 -1.39964581E-03  3.96490440E-04 -3.42708782E-04  1.22942302E-03  1.20198687E-04
  8.49230072E-04  2.31999318E-03 -2.00077993E-04 -2.21705594E-03  5.96090857E-04
 -1.33129498E-04  4.27487126E-04 -6.93311855E-06  1.79779389E-04  1.33153665E-04
 -1.82715686E-04  5.66702419E-05  4.48687234E-01  6.26545137E-01  3.90028093E-02
 -4.19774500E-02  8.78708223E-02  1.81450028E-02 -8.92092313E-05 -9.38719197E-05
 -3.48031478E-04  1.36508910E-03  6.46112351E-04  2.37862539E-03  1.40081168E-02
 -5.41903864E-03 -2.05062052E-02  5.31217028E-05 -3.38913433E-04  1.77060513E-04
  5.28419742E-04 -8.44551296E-05  3.41186669E-04  2.19524124E-03 -3.05386346E-04
 -1.69874101E-03  5.68562530E-04  5.32649242E-03 -4.43359094E-03  3.28935509E-03
  2.25660125E-03 -1.15780120E-03  2.23095189E-05  8.86997763E-06  6.88755678E-05
  9.37655625E-05  1.16875388E-05  1.73157194E-05  3.48630467E-05  4.98487753E-04
  7.42666744E-04 -8.66702646E-04  7.05630985E-03 -5.64854840E-02 -2.70944668E-03
 -1.45081728E-04  2.48857443E-05  9.59329512E-05 -1.02465409E-03  7.44856878E-04
  2.79876818E-03  1.43089415E-02 -5.05262277E-03 -1.91455946E-02  7.21676165E-06
 -8.03970949E-05  1.82972884E-05  5.26659421E-05 -2.09243820E-05  5.87063788E-04
 -5.24002390E-05  2.74788140E-04 -6.50538762E-05 -1.43884366E-05 -1.72640569E-03
  3.21294559E-03 -1.04700381E-03 -7.06588990E-04  8.52085582E-04  2.89523983E-06
  3.33522889E-04 -6.76284910E-05 -1.34960711E-04  1.70899399E-04  5.79083046E-05
 -4.65666831E-05 -8.29270040E-05 -4.02258827E-04 -2.20042069E-03  3.10422017E-04
 -6.77370904E-05 -2.59278827E-04  5.84850972E-04 -1.60257235E-04 -6.10165143E-04
  2.40353163E-04  6.44024719E-04 -4.35280874E-03 -2.17409286E-04 -4.20066540E-05
 -1.51909442E-04 -2.47073113E-03  2.19495735E-04  8.72037825E-04  1.74471991E-04
  1.23371612E-03 -6.05699066E-03  1.18711359E-04  4.51136514E-05  1.65506554E-04
 -4.97890365E-04 -2.99347149E-04 -1.10465940E-03  9.03666206E-05 -1.48003015E-03
 -1.49833308E-02  1.15191614E-04  1.42846330E-04  5.29883794E-04  2.09474172E-03
  6.82729440E-04  2.49870825E-03  4.08800438E-06 -2.46677610E-05  9.96644222E-04
 -5.82676606E-03 -2.03740724E-02 -1.93461865E-03  1.77051967E-04 -8.45825049E-06
 -3.53661507E-05 -3.09718723E-03  8.91836024E-05  3.99937099E-04 -7.85728421E-03
 -2.68420598E-04 -8.28710964E-04  2.96425074E-05  3.20921537E-05  3.25239478E-06
 -4.08268245E-05  8.13885765E-06  2.20078386E-04  4.13617745E-04 -1.59517439E-04
 -9.42644124E-04  9.96670585E-05 -8.32433885E-04  2.58011190E-03 -7.42512738E-04
 -1.18665426E-03  6.77139519E-04 -5.39992750E-05 -6.69803972E-05 -1.43633915E-06
  7.96901335E-05 -8.33391975E-05 -1.51965541E-04  2.34638435E-05 -5.47287003E-04
 -7.22547109E-04 -1.51876256E-03  9.58011947E-03 -2.73754105E-02  4.21103300E-03
  1.07324079E-04 -1.45634753E-05 -5.66283685E-05  1.41949977E-03 -9.61080733E-04
 -3.61343687E-03 -1.57224060E-02  3.57451014E-03  1.36673974E-02  5.16617830E-05
 -9.74999015E-05  2.28170788E-05 -8.27382778E-06 -2.62195589E-05  4.13917083E-04
 -6.66611013E-04  4.62023092E-04  8.96849441E-04 -1.67597402E-04 -3.76212042E-03
  1.44276538E-03 -1.20740835E-03  2.30558968E-03  4.12224064E-04  6.31090392E-05
 -2.64044184E-04  1.14813055E-04  1.22527003E-04 -1.43914808E-04 -7.13024224E-05
  4.45573955E-05  4.48681866E-01  6.26791012E-01  3.74349831E-02 -3.69535270E-02
  6.99341602E-02  7.33187110E-03  1.98453953E-05  7.68272465E-04  2.86319641E-03
  2.25550994E-03 -1.47262191E-03 -5.53834142E-03 -5.37105217E-03  4.32993038E-03
  1.62568135E-02  9.60361483E-05 -2.68327770E-04  1.23754110E-04  2.68000452E-04
 -6.86438251E-05 -9.36038823E-04  1.71361987E-03 -6.21971389E-04 -5.70314521E-04
  4.52079913E-04 -4.22494223E-05 -3.66529648E-03  8.84655615E-04  3.21898539E-03
 -9.44225246E-04 -8.54921971E-05  2.04398951E-04 -1.33633894E-04 -1.22966778E-04
  1.19768918E-04  8.02772654E-05 -4.55306923E-05  3.78587137E-04 -1.17546860E-03
 -2.40405071E-02  2.28714287E-04  3.93560609E-05  1.41683692E-04  6.48595262E-03
  6.36761401E-04  2.23156969E-03 -3.96840936E-05  3.20494954E-04  6.14851969E-03
  8.13559217E-06  5.09294514E-06  1.87806961E-05 -6.83343223E-04 -7.48696821E-05
 -2.65457624E-04 -7.16748827E-05  3.79010406E-04 -2.11974899E-03  7.42029517E-05
 -1.78881155E-05 -6.82900052E-05  6.81013425E-04 -2.31864613E-04 -8.78808135E-04
  3.84376218E-05 -5.32696488E-04  5.42091321E-03 -3.82354975E-05  8.66589896E-05
  3.23836285E-04 -1.85058001E-03 -3.15122501E-04 -1.13400402E-03  4.67253518E-01
  6.08216521E-01  3.84391857E-02 -3.14671584E-02  6.10302902E-02 -1.52430231E-03
  1.73950943E-03 -3.99440137E-06 -5.26441900E-05  2.29338986E-03 -6.55117095E-05
 -2.93495448E-04 -2.32609728E-02  1.05166588E-04  9.04622207E-04  1.45613725E-05
 -9.82494200E-05  4.05959304E-04  1.38140454E-03 -9.45368030E-06 -3.56159978E-04
 -1.86869070E-04  4.30301187E-04  2.10953858E-03 -2.47061835E-05  1.06651116E-02
  2.17094904E-04  4.68170447E-03 -2.28223138E-03  3.86857718E-05  2.58204977E-04
 -1.40294600E-03  5.69027692E-05 -2.60207438E-04 -4.10070901E-04  6.62574552E-04
 -7.34304807E-05 -8.19042701E-05 -1.61301306E-04  1.91770678E-03 -7.28518134E-03
  9.49226217E-03  1.26677862E-02 -6.11932950E-04  3.65262199E-05  1.49492804E-04
  6.76628338E-03 -4.43143046E-04 -1.79947688E-03 -1.37737119E-02  6.46675089E-04
  2.70950308E-03 -2.35010976E-05 -2.31804830E-07 -5.12759087E-05 -1.36641308E-04
 -1.73910549E-06  2.58133793E-03  1.02924273E-04  5.28779494E-04 -2.64415594E-03
 -2.58043557E-06 -5.46912446E-03 -8.33424379E-04 -1.28731479E-03  5.03983517E-03
 -1.66539880E-04  5.53516194E-05 -4.56409174E-04 -2.64899897E-05 -1.27004559E-04
  2.47477333E-05  6.64151481E-04 -3.16232994E-05  5.22496176E-06 -1.27332461E-05
  5.23892426E-04 -2.45958945E-03  1.00134698E-02 -2.95354113E-03 -8.69361221E-05
  3.93524660E-06  1.65749523E-05  1.42644600E-03 -2.41656665E-04 -9.32014723E-04
 -1.72965824E-03  3.61182195E-04  1.38519451E-03 -2.70688489E-05 -3.34656215E-05
 -1.89404066E-05 -1.78653865E-05 -9.21814495E-06  1.35057570E-04  9.22147600E-04
 -1.30894826E-05 -3.00742938E-04  2.43856330E-04 -4.26208672E-05 -6.01608051E-04
 -1.96108112E-04 -5.90129599E-04 -1.68479869E-04  5.79315003E-05  7.69968647E-05
  1.48067739E-05 -6.05142791E-05  4.42314239E-05  2.77438811E-05 -1.87811080E-05
 -1.53500990E-04  1.62861499E-04 -5.25798286E-03  8.38579416E-05 -3.53714666E-05
 -1.33662974E-04  1.91350925E-03 -3.64026907E-04 -1.39851727E-03 -4.88300290E-04
 -4.07204388E-04 -4.05921526E-02 -5.91413475E-04  4.00650695E-04  1.50677687E-03
 -5.21240830E-03  9.51119870E-04  3.66302679E-03 -4.58959583E-04 -7.60200581E-04
 -3.83950123E-02 -8.78122573E-04 -3.70806837E-04 -1.36272291E-03 -6.46193133E-03
 -7.81967577E-04 -2.77085082E-03 -3.09812114E-04  2.46417747E-04  8.03063269E-03
  3.60988081E-04 -3.11476301E-06 -1.94833294E-05 -1.93715532E-03 -5.78174703E-04