0001_q000_m01_k00_opt_uwb97xd_def2svpd/0001_q000_m01_k00_force_uhf_def2s
Force     UHF                                                         Gen                 
Number of atoms                            I                7
Info1-9                                    I   N=           9
          13           9           0           0           0         100
           5           1           2
Full Title                                 C   N=           8
0001_q000_m01_k00_opt_uwb97xd_def2svpd/0001_q000_m01_k00_for
ce_uhf_def2svp stable-force         
Route                                      C   N=          15
#p uhf/chkbasis force guess=read geom=check scf=(maxcycle=90
0,verytightlineq,xqc) integral=grid=ultrafine symmetry=None 
density=current pop=(cm5,hlygat,mbs,npa) output=wfx         
Charge                                     I                0
Multiplicity                               I                1
Number of electrons                        I               24
Number of alpha electrons                  I               12
Number of beta electrons                   I               12
Number of basis functions                  I               62
Number of independent functions            I               62
Number of point charges in /Mol/           I                0
Number of translation vectors              I                0
Atomic numbers                             I   N=           7
           6           7           7           1           1           1
           1
Nuclear charges                            R   N=           7
  6.00000000E+00  7.00000000E+00  7.00000000E+00  1.00000000E+00  1.00000000E+00
  1.00000000E+00  1.00000000E+00
Current cartesian coordinates              R   N=          21
  2.02695212E+00 -1.32657117E-01 -2.89151970E-01  4.49366243E+00 -1.69594780E-01
 -4.80718912E-01  5.82669740E+00 -6.96306974E-01 -2.47313900E+00  7.67994023E+00
 -5.53065660E-01 -1.97974669E+00  1.20935456E+00  3.49890902E-01  1.52789288E+00
  9.12820557E-01 -5.85776711E-01 -1.95345676E+00  5.41878558E+00  2.75672749E-01
  1.15865244E+00
Number of symbols in /Mol/                 I                0
Int Atom Types                             I   N=           7
           0           0           0           0           0           0
           0
Force Field                                I                0
Atom Types                                 C   N=           7
                                                            
                        
MM charges                                 R   N=           7
  0.00000000E+00  0.00000000E+00  0.00000000E+00  0.00000000E+00  0.00000000E+00
  0.00000000E+00  0.00000000E+00
Integer atomic weights                     I   N=           7
          12          14          14           1           1           1
           1
Real atomic weights                        R   N=           7
  1.20000000E+01  1.40030740E+01  1.40030740E+01  1.00782504E+00  1.00782504E+00
  1.00782504E+00  1.00782504E+00
Atom fragment info                         I   N=           7
           0           0           0           0           0           0
           0
Atom residue num                           I   N=           7
           0           0           0           0           0           0
           0
Nuclear spins                              I   N=           7
           0           2           2           1           1           1
           1
Nuclear ZEff                               R   N=           7
 -3.60000000E+00 -4.55000000E+00 -4.55000000E+00 -1.00000000E+00 -1.00000000E+00
 -1.00000000E+00 -1.00000000E+00
Nuclear ZNuc                               R   N=           7
  6.00000000E+00  7.00000000E+00  7.00000000E+00  1.00000000E+00  1.00000000E+00
  1.00000000E+00  1.00000000E+00
Nuclear QMom                               R   N=           7
  0.00000000E+00  2.04400000E+00  2.04400000E+00  0.00000000E+00  0.00000000E+00
  0.00000000E+00  0.00000000E+00
Nuclear GFac                               R   N=           7
  0.00000000E+00  4.03761000E-01  4.03761000E-01  2.79284600E+00  2.79284600E+00
  2.79284600E+00  2.79284600E+00
MicOpt                                     I   N=           7
          -1          -1          -1          -1          -1          -1
          -1
Number of residues                         I                0
Number of secondary structures             I                0
Number of contracted shells                I               30
Number of primitive shells                 I               56
Pure/Cartesian d shells                    I                0
Pure/Cartesian f shells                    I                0
Highest angular momentum                   I                2
Largest degree of contraction              I                5
Shell types                                I   N=          30
           0           0           0           1           1          -2
           0           0           0           1           1          -2
           0           0           0           1           1          -2
           0           0           1           0           0           1
           0           0           1           0           0           1
Number of primitives per shell             I   N=          30
           5           1           1           3           1           1
           5           1           1           3           1           1
           5           1           1           3           1           1
           3           1           1           3           1           1
           3           1           1           3           1           1
Shell to atom map                          I   N=          30
           1           1           1           1           1           1
           2           2           2           2           2           2
           3           3           3           3           3           3
           4           4           4           5           5           5
           6           6           6           7           7           7
Primitive exponents                        R   N=          56
  1.23840169E+03  1.86290050E+02  4.22511763E+01  1.16765579E+01  3.59305065E+00
  4.02451474E-01  1.30901827E-01  9.46809706E+00  2.01035451E+00  5.47710047E-01
  1.52686138E-01  8.00000000E-01  1.71284159E+03  2.57648127E+02  5.84582459E+01
  1.61983679E+01  5.00526008E+00  5.87318566E-01  1.87645923E-01  1.35714702E+01
  2.92573729E+00  7.99277508E-01  2.19543480E-01  1.00000000E+00  1.71284159E+03
  2.57648127E+02  5.84582459E+01  1.61983679E+01  5.00526008E+00  5.87318566E-01
  1.87645923E-01  1.35714702E+01  2.92573729E+00  7.99277508E-01  2.19543480E-01
  1.00000000E+00  1.30107010E+01  1.96225720E+00  4.44537960E-01  1.21949620E-01
  8.00000000E-01  1.30107010E+01  1.96225720E+00  4.44537960E-01  1.21949620E-01
  8.00000000E-01  1.30107010E+01  1.96225720E+00  4.44537960E-01  1.21949620E-01
  8.00000000E-01  1.30107010E+01  1.96225720E+00  4.44537960E-01  1.21949620E-01
  8.00000000E-01
Contraction coefficients                   R   N=          56
  5.51736505E-03  4.10888286E-02  1.82253821E-01  4.68284594E-01  4.45758173E-01
  1.00000000E+00  1.00000000E+00  5.68883320E-02  3.12940593E-01  7.60650165E-01
  1.00000000E+00  1.00000000E+00 -5.44779958E-03 -4.06271746E-02 -1.81119623E-01
 -4.68439756E-01 -4.46168463E-01  1.00000000E+00  1.00000000E+00 -5.88481170E-02
 -3.20246248E-01 -7.53282265E-01  1.00000000E+00  1.00000000E+00 -5.44779958E-03
 -4.06271746E-02 -1.81119623E-01 -4.68439756E-01 -4.46168463E-01  1.00000000E+00
  1.00000000E+00 -5.88481170E-02 -3.20246248E-01 -7.53282265E-01  1.00000000E+00
  1.00000000E+00  3.34854848E-02  2.34721871E-01  8.13770285E-01  1.00000000E+00
  1.00000000E+00  3.34854848E-02  2.34721871E-01  8.13770285E-01  1.00000000E+00
  1.00000000E+00  3.34854848E-02  2.34721871E-01  8.13770285E-01  1.00000000E+00
  1.00000000E+00  3.34854848E-02  2.34721871E-01  8.13770285E-01  1.00000000E+00
  1.00000000E+00
Coordinates of each shell                  R   N=          90
  2.02695212E+00 -1.32657117E-01 -2.89151970E-01  2.02695212E+00 -1.32657117E-01
 -2.89151970E-01  2.02695212E+00 -1.32657117E-01 -2.89151970E-01  2.02695212E+00
 -1.32657117E-01 -2.89151970E-01  2.02695212E+00 -1.32657117E-01 -2.89151970E-01
  2.02695212E+00 -1.32657117E-01 -2.89151970E-01  4.49366243E+00 -1.69594780E-01
 -4.80718912E-01  4.49366243E+00 -1.69594780E-01 -4.80718912E-01  4.49366243E+00
 -1.69594780E-01 -4.80718912E-01  4.49366243E+00 -1.69594780E-01 -4.80718912E-01
  4.49366243E+00 -1.69594780E-01 -4.80718912E-01  4.49366243E+00 -1.69594780E-01
 -4.80718912E-01  5.82669740E+00 -6.96306974E-01 -2.47313900E+00  5.82669740E+00
 -6.96306974E-01 -2.47313900E+00  5.82669740E+00 -6.96306974E-01 -2.47313900E+00
  5.82669740E+00 -6.96306974E-01 -2.47313900E+00  5.82669740E+00 -6.96306974E-01
 -2.47313900E+00  5.82669740E+00 -6.96306974E-01 -2.47313900E+00  7.67994023E+00
 -5.53065660E-01 -1.97974669E+00  7.67994023E+00 -5.53065660E-01 -1.97974669E+00
  7.67994023E+00 -5.53065660E-01 -1.97974669E+00  1.20935456E+00  3.49890902E-01
  1.52789288E+00  1.20935456E+00  3.49890902E-01  1.52789288E+00  1.20935456E+00
  3.49890902E-01  1.52789288E+00  9.12820557E-01 -5.85776711E-01 -1.95345676E+00
  9.12820557E-01 -5.85776711E-01 -1.95345676E+00  9.12820557E-01 -5.85776711E-01
 -1.95345676E+00  5.41878558E+00  2.75672749E-01  1.15865244E+00  5.41878558E+00
  2.75672749E-01  1.15865244E+00  5.41878558E+00  2.75672749E-01  1.15865244E+00
Num ILSW                                   I              100
ILSW                                       I   N=         100
           1           0           0           0           2           0
           0           0           0           0           0          -1
           5           0           0           0           2           0
           0           0           0           0           1           0
           1           1           0           0           0           0
           0           0      100000           0          -1           0
           0           0           0           0           0           0
           0           0           0           1           0           0
           0 -2000000000           1           0           0           0
           0           0           4          52           0           0
           0           0           0           0           0           0
           0           0           0           7           0           1
           0           0           0           0           0           0
           0           0           0           0           0           0
           0           0           0           0           0           0
           0           0           0           0           0           0
           0           0           0           0
Num RLSW                                   I               52
RLSW                                       R   N=          52
  1.00000000E+00  1.00000000E+00  1.00000000E+00  1.00000000E+00  1.00000000E+00
  0.00000000E+00  0.00000000E+00  1.00000000E+00  0.00000000E+00  0.00000000E+00
  0.00000000E+00  0.00000000E+00  1.00000000E+00  0.00000000E+00  0.00000000E+00
  0.00000000E+00  0.00000000E+00  1.00000000E+00  0.00000000E+00  0.00000000E+00
  0.00000000E+00  0.00000000E+00  1.00000000E+00  0.00000000E+00  0.00000000E+00
  0.00000000E+00  0.00000000E+00  1.00000000E+00  0.00000000E+00  0.00000000E+00
  0.00000000E+00  0.00000000E+00  1.00000000E+00  0.00000000E+00  0.00000000E+00
  0.00000000E+00  0.00000000E+00  0.00000000E+00  1.00000000E+00  1.00000000E+00
  0.00000000E+00  1.00000000E+00  0.00000000E+00  0.00000000E+00  0.00000000E+00
  0.00000000E+00  0.00000000E+00  0.00000000E+00  0.00000000E+00  0.00000000E+00
  0.00000000E+00  0.00000000E+00
MxBond                                     I                3
NBond                                      I   N=           7
           3           3           2           1           1           1
           1
IBond                                      I   N=          21
           2           5           6           1           3           7
           2           4           0           3           0           0
           1           0           0           1           0           0
           2           0           0
RBond                                      R   N=          21
  2.00000000E+00  1.00000000E+00  1.00000000E+00  2.00000000E+00  1.00000000E+00
  1.00000000E+00  1.00000000E+00  1.00000000E+00  0.00000000E+00  1.00000000E+00
  0.00000000E+00  0.00000000E+00  1.00000000E+00  0.00000000E+00  0.00000000E+00
  1.00000000E+00  0.00000000E+00  0.00000000E+00  1.00000000E+00  0.00000000E+00
  0.00000000E+00
Virial Ratio                               R      2.003215908101491E+00
SCF Energy                                 R     -1.488797769773386E+02
Total Energy                               R     -1.488797769773386E+02
S**2                                       R      6.741835086768173E-01
S**2 after annihilation                    R      5.570375019436908E-02
RMS Force                                  R      1.784086236965364E-02
RMS Density                                R      4.802891775274199E-11
Job Status                                 I                1
Nuclear derivative order                   I                1
External E-field                           R   N=          35
  0.00000000E+00  0.00000000E+00  0.00000000E+00  0.00000000E+00  0.00000000E+00
  0.00000000E+00  0.00000000E+00  0.00000000E+00  0.00000000E+00  0.00000000E+00
  0.00000000E+00  0.00000000E+00  0.00000000E+00  0.00000000E+00  0.00000000E+00
  0.00000000E+00  0.00000000E+00  0.00000000E+00  0.00000000E+00  0.00000000E+00
  0.00000000E+00  0.00000000E+00  0.00000000E+00  0.00000000E+00  0.00000000E+00
  0.00000000E+00  0.00000000E+00  0.00000000E+00  0.00000000E+00  0.00000000E+00
  0.00000000E+00  0.00000000E+00  0.00000000E+00  0.00000000E+00  0.00000000E+00
IOpCl                                      I                1
IROHF                                      I                0
Alpha Orbital Energies                     R   N=          62
 -1.56421764E+01 -1.55403650E+01 -1.12527245E+01 -1.32341635E+00 -1.04561507E+00
 -8.41678632E-01 -7.47231983E-01 -6.45050764E-01 -5.69628800E-01 -5.63368961E-01
 -4.26538502E-01 -2.94412382E-01  1.58889029E-01  1.91957543E-01  2.23361577E-01
  2.44609504E-01  2.71393788E-01  3.97265187E-01  5.58623426E-01  6.11970022E-01
  6.72222470E-01  6.78381173E-01  7.48251658E-01  8.14779862E-01  8.74715381E-01
  9.22688567E-01  9.45318764E-01  1.01391623E+00  1.03125579E+00  1.04465136E+00
  1.12925334E+00  1.20133364E+00  1.23123809E+00  1.29664561E+00  1.41855417E+00
  1.52767846E+00  1.54303661E+00  1.65141116E+00  1.78011411E+00  1.78891262E+00
  1.91570784E+00  1.93406193E+00  2.10669670E+00  2.17976474E+00  2.25959677E+00
  2.29202399E+00  2.34903893E+00  2.42497174E+00  2.50967551E+00  2.56160319E+00
  2.66192625E+00  2.79620836E+00  2.82117794E+00  2.90912606E+00  3.08113714E+00
  3.23384052E+00  3.28783282E+00  3.28836014E+00  3.46852842E+00  3.55243884E+00
  3.77795463E+00  4.01002569E+00
Beta Orbital Energies                      R   N=          62
 -1.56474547E+01 -1.55654840E+01 -1.12318810E+01 -1.34431975E+00 -1.06767326E+00
 -8.28209948E-01 -7.47290066E-01 -6.44528434E-01 -6.09426830E-01 -5.62739882E-01
 -4.56933266E-01 -3.52090824E-01  1.57601519E-01  1.82729492E-01  2.29608819E-01
  2.45137160E-01  2.73608879E-01  4.07450165E-01  5.41915792E-01  6.30099758E-01
  6.77810948E-01  7.58845352E-01  7.73337295E-01  8.24623006E-01  8.88462894E-01
  9.29464988E-01  9.39880770E-01  9.77988828E-01  1.00747378E+00  1.03247137E+00
  1.05680940E+00  1.19636331E+00  1.22062052E+00  1.28168282E+00  1.45694875E+00
  1.52746565E+00  1.54955434E+00  1.64128180E+00  1.78020392E+00  1.78086360E+00
  1.91623944E+00  1.94108294E+00  2.11276203E+00  2.19643058E+00  2.27570257E+00
  2.30383741E+00  2.33940786E+00  2.43123243E+00  2.49300826E+00  2.57523289E+00
  2.65903620E+00  2.76944633E+00  2.80796039E+00  2.89891132E+00  3.06290499E+00
  3.23794907E+00  3.25675240E+00  3.28792718E+00  3.45753520E+00  3.53783428E+00
  3.77365856E+00  4.00684559E+00
Alpha MO coefficients                      R   N=        3844
 -3.08008808E-04  9.55809406E-04 -9.75553416E-03  1.06862086E-03 -5.59108483E-06
 -4.41610608E-05 -3.87709819E-03  5.56192065E-04  2.15753954E-03 -6.66259601E-04
  6.22187732E-05 -2.75005811E-05  1.05734669E-03  2.90422712E-05  9.90356042E-01
 -3.61795239E-02  2.45138657E-02 -5.96442235E-05  7.31095627E-05  2.73621706E-04
 -2.71235575E-03 -8.64025639E-04 -3.16130130E-03 -6.08045229E-04 -1.32543720E-04
 -5.62085369E-04 -8.87892546E-04 -4.68646942E-05  4.21728900E-03  7.20543889E-04
 -5.06231904E-03  4.35267795E-04 -2.28683193E-04 -8.61925006E-04  1.38991898E-03
 -3.58869423E-04 -1.36807520E-03  7.72351712E-04 -7.56952058E-04  4.60727993E-04
  2.73684005E-04 -1.99146882E-04  1.35567706E-04 -1.76961692E-04  9.47315893E-05
 -2.53359913E-05 -9.65046300E-05 -3.16784399E-05  2.86444374E-04  1.32923305E-04
  1.04993391E-05  3.63297318E-05  4.78709957E-04  1.70217371E-03  8.71066535E-05
 -4.23082075E-05 -1.59581579E-04  2.31414659E-03 -2.19580845E-03 -1.15038285E-03
 -5.30066206E-04 -1.95048207E-03  4.07471294E-06  3.24142418E-04 -9.88945995E-04
  7.82141093E-06 -3.64356794E-05 -1.36011675E-04 -1.01932048E-03  8.47088815E-04
  3.17991604E-03 -1.16680422E-05  1.81629436E-05 -7.32415685E-05 -2.33436291E-04
  2.02469023E-06 -3.88845451E-03  8.61706724E-04 -1.53431668E-03 -5.59065543E-04
  1.54353383E-04  5.87563672E-04 -8.33118702E-04 -5.36272103E-04 -1.98070159E-03
  6.70359327E-04 -1.10893475E-03  4.55190866E-04  4.39436086E-04 -2.91647414E-04
  9.91092533E-01 -3.22642699E-02  1.28357595E-02  1.12271624E-03  8.35531188E-04
  3.08977156E-03 -6.58124822E-05  4.55651878E-04  1.69978373E-03 -1.18600947E-04
  4.17165137E-05 -4.94506288E-04 -1.50599048E-03 -7.26068022E-06  2.24780189E-03
 -3.13747369E-03 -2.28326254E-03 -2.18496391E-04 -7.64484944E-04 -5.84555759E-04
 -1.55542993E-03  2.78310065E-05  1.22130208E-05  4.50033290E-05  7.62966460E-04
  8.60298344E-04  1.13393264E-04 -1.32683802E-05 -5.20104718E-05  8.10565794E-04
  6.41120960E-04 -1.58247798E-04  3.03610761E-05  1.16660207E-04  9.90255493E-01
  3.84546895E-02 -1.28455933E-02  1.15183520E-03  2.20181467E-05  5.77431110E-05
  4.79306466E-03  2.41300652E-04  7.93819194E-04  6.11235637E-04  1.03419093E-04
  5.95329291E-04  9.98329181E-04  4.04470489E-05  1.77575417E-04 -3.84588206E-04
 -3.84161484E-03 -2.54834648E-04  5.49617662E-06  2.60566983E-05  7.99879846E-03
 -5.85670728E-04 -2.35756389E-03  1.09337051E-05  9.84861137E-06 -1.84999404E-04
 -6.59039663E-04 -5.36274689E-06  6.95798316E-07 -2.32815720E-05 -3.24186202E-03
 -7.90868660E-05 -4.93331296E-06 -1.66635166E-05 -9.54718209E-04 -5.54499417E-04
 -2.04609076E-03 -3.01949859E-04 -1.92989867E-04 -1.09634573E-04  1.48244355E-04
 -5.02133543E-05  5.23742713E-04  1.33717078E-04  1.89828903E-04 -6.58007536E-05
 -2.49405298E-04 -2.95122484E-03  4.31338607E-03 -8.42331274E-04  3.19764342E-04
  1.21081262E-03 -2.44370207E-03  5.23405701E-03 -9.88729710E-04 -2.86806694E-04
 -1.04713011E-03  2.20040745E-04  1.26339622E-04 -1.10834208E-03  6.18279330E-05
  2.54634658E-04 -8.98559717E-02  1.75224974E-01  2.51565379E-02  1.00210737E-01
 -2.43483455E-03 -1.12653284E-02  1.25618344E-02  8.05745770E-03  2.97585795E-02
 -8.76153644E-03 -1.64090294E-03 -1.14513682E-03  1.12517755E-02 -3.10367799E-04
  2.36565092E-01  4.74552843E-01  2.11461857E-01 -1.57002851E-02  1.67569704E-02
  6.28077199E-02  2.62920999E-02 -1.48105891E-02 -5.57793637E-02  4.66594318E-03
 -1.22678175E-02  6.23212160E-03  1.37625632E-02 -3.12007786E-03  1.37829344E-01
  2.67655629E-01  5.31460274E-02  5.08026207E-02 -2.98959894E-02 -1.12545054E-01
 -7.01720878E-03  2.34785615E-03  8.90398221E-03  1.21741063E-02 -1.19146146E-02
  8.24289167E-03  7.70534710E-03 -3.09324355E-03  7.29790784E-02  2.99726087E-03
 -1.27111548E-02  1.49495287E-04  8.35176551E-04  2.09618857E-02 -1.11091790E-02
  3.11376571E-03 -1.25469828E-03 -4.74520350E-03  3.03833531E-02  1.56887871E-02
  3.54519522E-03  1.10069259E-03  4.02446222E-03  1.17647453E-01 -1.77719106E-03
 -1.12895818E-02 -4.06470907E-03 -1.49031388E-02 -1.75248996E-01  3.40281171E-01
  9.45550616E-02  1.07035102E-01  4.90626868E-03  1.59528743E-02  3.29175773E-03
 -9.09747562E-04 -3.46583256E-03 -9.18314082E-03  1.70922436E-03 -1.44739349E-03
  1.08577611E-02  5.83223018E-04  5.38670573E-02  1.07150879E-01  2.76261562E-02
  2.55580229E-01 -4.11262391E-02 -1.58879645E-01 -1.17732237E-01  1.74390710E-02
  6.75784741E-02 -9.75890502E-03  1.06182357E-02 -2.41341434E-03  8.30482826E-03
  2.94234848E-03 -1.67351965E-01 -3.36009945E-01 -1.25337560E-01  3.05389430E-02
  2.35884928E-02  8.72568100E-02 -1.87354704E-03 -6.24522097E-04 -2.28759187E-03
 -9.75160912E-03  1.58627186E-03 -7.49371754E-03 -9.06791497E-03  3.07332207E-04
 -1.60258272E-01 -1.51139513E-02  2.01779437E-02  8.23541545E-04  2.62856367E-03
  9.91873519E-02  1.08133253E-02  6.05845832E-03 -3.27910699E-03 -1.23575666E-02
  7.50021920E-02  1.56026382E-04  6.41726151E-03  2.61076866E-03  9.59067787E-03
  5.73660066E-02  6.55619236E-03 -8.37504690E-03 -1.31017133E-03 -4.70014698E-03
  1.43151500E-01 -2.89427262E-01 -1.49900622E-01  8.86013626E-02  1.95155228E-02
  7.07886082E-02  3.31214312E-02  5.32057985E-03  1.91044788E-02 -5.07493868E-03
  6.80406437E-03 -5.18217877E-04  6.83896845E-03  1.90504585E-03  9.64942636E-02
  1.99793427E-01  1.16154687E-01 -1.53450125E-01 -6.72579696E-02 -2.47328485E-01
  5.65010311E-02  2.77460032E-02  1.02179289E-01  5.82464871E-03  8.27663833E-03
  1.98833460E-03 -3.40557412E-03  2.18383181E-03 -1.00512550E-01 -2.10719473E-01
 -1.12076022E-01  3.27578175E-03 -1.04367169E-02 -3.89708257E-02  4.87723264E-03
  9.85265189E-03  3.66166578E-02  6.83346420E-03  1.99521322E-03  4.73570292E-04
 -1.02442453E-02  4.15779651E-04 -9.22821889E-02 -1.74172759E-02  8.89891931E-03
  1.17828045E-03  4.19731468E-03 -1.01566261E-01 -1.10372148E-02 -3.38052057E-03
  2.92565140E-03  1.09804599E-02 -1.73877270E-01 -1.83110666E-02 -8.73914011E-03
 -4.24348888E-03 -1.56247058E-02  3.00763227E-01  4.64609482E-02 -1.50637471E-02
 -7.44079340E-03 -2.74038320E-02  6.98824023E-02 -1.40483231E-01 -1.44260641E-01
  1.63595583E-01 -3.99233092E-02 -1.52405498E-01  2.81415727E-02 -1.03107732E-02
 -3.90526739E-02 -1.01520561E-02 -7.12657401E-03 -1.91260118E-03  1.11309194E-02
 -1.78474514E-03  6.14459700E-02  1.40733381E-01  1.41912375E-01  1.06418151E-01
  6.94914537E-02  2.56701222E-01 -6.48078226E-02 -3.74791769E-02 -1.38287561E-01
  5.90104220E-03 -1.82359190E-03  2.27810194E-03 -2.29683159E-03 -5.12870723E-04
 -4.34359540E-02 -8.02835340E-02 -9.19921156E-02  2.80976641E-01 -1.12829752E-02
 -4.81991057E-02 -9.26146076E-02  3.54836906E-04  3.34751816E-03  3.66492977E-03
 -2.28157828E-02  3.41261123E-04 -4.63240648E-03 -6.17522658E-03 -2.64196399E-01
 -6.28502519E-02  2.34963999E-02  1.59069842E-03  5.41549573E-03 -2.03245773E-01
 -4.05318930E-02 -6.02831461E-03  3.91431727E-03  1.47257217E-02 -3.96605229E-02
  2.81308349E-03  7.18627058E-05 -1.57162302E-03 -5.85977378E-03 -1.57369681E-01
 -2.89201574E-02  7.35894725E-03  3.67317803E-03  1.35293181E-02  2.68052281E-02
 -4.55446260E-02 -1.26990533E-01  3.44204210E-01  7.04269770E-03  1.86833114E-02
  9.70727856E-02  1.28132310E-04 -1.66579587E-03 -1.80449240E-02 -4.03151427E-03
 -3.08284092E-03  2.06837000E-02 -8.44143588E-04 -4.83429196E-03 -1.53033703E-02
 -6.19395231E-03  3.66279292E-01 -2.31710802E-02 -9.43441933E-02 -1.86769260E-01
  1.51578259E-02  6.05628757E-02 -1.15209905E-02  1.17855456E-03 -4.09642952E-03
  5.75777676E-03  3.76877101E-04  5.77563804E-02  1.14792650E-01  1.35580254E-01
 -1.97889393E-01  4.58288884E-02  1.75160941E-01  6.86458111E-02 -2.09147120E-02
 -7.94649321E-02 -1.85185080E-02  1.37634520E-02 -6.10827928E-03  1.06206189E-02
  3.80746024E-03  2.14309978E-01  6.78860927E-02 -1.57553087E-02 -2.66016687E-03
 -9.57157743E-03 -1.23591910E-01 -1.92675506E-02 -2.68622016E-04  2.71513740E-03
  1.01272459E-02 -1.81423779E-01 -3.94972964E-02 -4.08048594E-03 -3.50651685E-03
 -1.29802518E-02 -9.30397413E-02 -3.12866488E-02 -4.01325657E-03  2.30350087E-03
  8.67223876E-03  7.02107100E-03 -1.98435161E-02 -1.45941764E-02  3.28847036E-02
  1.07183576E-01  3.99188817E-01  2.81044316E-02  4.73931511E-02  1.76245691E-01
  3.83315123E-03 -1.93214705E-02  1.19823882E-03 -2.03247642E-03 -5.21221812E-03
 -1.74465020E-03  4.24955040E-03 -2.86908682E-02  6.17719761E-03  3.70244210E-02
  1.37354749E-01 -2.01447652E-02 -1.46988643E-02 -5.39813702E-02  6.23777465E-03
 -1.90145973E-02  1.89326200E-03 -3.82282592E-03 -5.14301480E-03  2.98186308E-02
  6.63284422E-02  9.12277361E-02  1.50992188E-01 -4.79181798E-03 -2.13557501E-02
 -7.75575377E-02  2.71226851E-03  1.19277792E-02  3.11703127E-03 -1.18204564E-02
  1.25168855E-03 -7.63436772E-04 -3.17521978E-03 -1.12674469E-01 -4.55374691E-02
  8.12810236E-03  2.61283924E-04  8.04341730E-04  3.04839235E-01  1.11619472E-01
  1.16537322E-02 -3.70571773E-03 -1.40610933E-02 -3.04588180E-01 -8.85302856E-02
 -1.28810909E-02 -3.71829547E-03 -1.35655931E-02 -1.30659239E-01 -5.15875251E-02
  3.58858946E-03  2.40467849E-03  8.90043997E-03  3.66517031E-06 -7.38894299E-06
 -1.44313667E-05  1.84435178E-03 -3.13975200E-01  8.41023559E-02  1.00623435E-03
 -1.71896394E-01  4.60544597E-02 -2.70105434E-04  5.49650989E-03  5.68889828E-04
  8.64305433E-05 -2.04776314E-02  2.94286278E-06  3.81180635E-06  1.37695665E-05
 -2.52844438E-03  4.32252908E-01 -1.16014690E-01  1.81962011E-03 -3.10113818E-01
  8.32206646E-02 -5.43671862E-03 -2.70211730E-04  1.08520418E-02 -3.14513384E-03
  7.56605734E-04 -8.92154840E-06 -1.99785415E-05 -2.51374825E-05 -1.00632874E-03
  1.63216158E-01 -4.37773919E-02  6.40032164E-04 -1.04904384E-01  2.81391514E-02
  1.04813975E-02 -2.51237706E-03 -2.09512633E-02  5.93669829E-03  9.90820521E-03
  3.67132946E-05  1.50748709E-05  3.72618722E-05 -6.79539215E-03  1.82265586E-03
 -8.82524577E-05 -2.94806475E-05  5.10540258E-05 -9.21803616E-03  2.47688333E-03
  9.17069779E-05  2.73854985E-05  5.28513192E-05 -8.30788835E-03  2.23338476E-03
  3.67515282E-05  1.47883970E-05  7.97453330E-05 -1.37694838E-02  3.69172800E-03
  2.57637422E-02 -7.63015918E-02 -6.27742834E-02 -9.29183183E-02 -3.24737155E-03
 -1.00685633E-02 -1.35011111E-02 -5.14481240E-03 -1.88845344E-02  3.48939124E-03
  9.08161792E-03  1.45367853E-03 -1.22884631E-03  2.42458726E-03 -2.81656754E-02
 -7.26315048E-02 -7.15295981E-02 -4.06371602E-02 -4.40355429E-02 -1.63244995E-01
 -1.43015035E-02  2.59284980E-02  9.69571606E-02  1.97322574E-02  1.69585084E-02
  5.37753403E-03 -1.59731623E-02  4.37103163E-03  1.11057122E-01  2.25617491E-01
  4.11005365E-01  2.30039037E-01  1.13163896E-01  4.16772351E-01 -1.68448534E-01
 -8.10493323E-02 -2.98415985E-01 -1.06044925E-02 -7.67494393E-03 -5.79007589E-03
 -1.48116410E-03 -2.08564739E-03 -2.13638442E-01 -1.00275092E-01  1.52563667E-02
 -3.28074966E-03 -1.25620754E-02 -6.09321758E-03  1.50820488E-02 -1.69149520E-03
 -3.06950019E-04 -1.10746912E-03  4.58850898E-02  6.55675302E-02  1.95401631E-03
  3.79263630E-04  1.37091275E-03  1.95536463E-01  1.05125801E-01 -6.98784607E-03
 -2.12419568E-03 -7.76428998E-03 -7.89881446E-06  1.93658024E-05  4.22703675E-05
 -2.92660013E-03  4.97025497E-01 -1.33334462E-01 -2.89147480E-03  4.91404547E-01
 -1.31821100E-01 -1.44803853E-03  1.32017820E-03  2.89747535E-03 -7.78304427E-04
 -4.99245554E-03 -1.34889192E-06 -3.47057762E-06 -1.98375416E-06 -1.29896351E-03
  2.20408357E-01 -5.91325040E-02  1.67504898E-03 -2.84426233E-01  7.63045496E-02
 -8.37033094E-03  8.69939169E-03  1.67681724E-02 -4.44767509E-03 -3.28496399E-02
  7.62640882E-07  1.88829572E-06 -3.86164865E-07 -1.40769712E-03  2.40314637E-01
 -6.44729632E-02  1.34173075E-03 -2.28818310E-01  6.13866699E-02  1.07910271E-02
 -1.52274613E-03 -2.15602817E-02  6.15733243E-03  6.21999221E-03 -2.20835669E-06
 -1.80792166E-06  6.92455923E-05 -1.17945275E-02  3.16437854E-03 -1.75716237E-05
 -1.75819111E-05 -1.06907801E-04  1.80575399E-02 -4.84297143E-03 -1.26675239E-05
 -6.16204635E-06 -9.39752407E-05  1.58911910E-02 -4.26406229E-03 -1.92160063E-06
 -1.57027527E-06  4.14537499E-05 -7.09064019E-03  1.90250851E-03  2.97022886E-02
 -4.24781712E-02 -5.28524069E-01  5.53605801E-02 -2.00589093E-02 -7.59888246E-02
  1.95257024E-01 -8.32155686E-02 -3.14526002E-01  4.10723381E-03 -7.01480972E-03
  1.48134592E-03 -1.82643929E-03 -1.90048062E-03 -5.71422539E-02 -6.21152420E-02
 -9.30912871E-01  9.38810752E-02  4.71249776E-02  1.73624286E-01 -2.12409858E-01
 -1.01515292E-01 -3.73744356E-01 -2.23926694E-04  7.66263726E-03 -1.73642619E-03
 -5.79888974E-03  1.98437200E-03 -3.84699983E-02 -4.80876418E-02 -4.75938139E-01
  9.42855576E-02 -2.45849232E-03 -1.12678999E-02 -2.09712683E-01 -7.26736575E-05
  4.37437258E-03 -4.50704214E-03 -4.11033892E-03 -2.32183095E-03 -1.27608608E-04
 -1.10818089E-03  4.71660522E-02  6.18025448E-01 -4.94948417E-03  5.75562583E-04
  2.25643713E-03  3.23085695E-02  7.52759874E-01  3.94546149E-03 -2.01402290E-04
 -8.37517382E-04 -2.65060381E-02 -2.91764658E-02  9.51741172E-04 -1.25223269E-03
 -4.68661834E-03  6.73516270E-02  1.30273936E+00 -2.69191243E-03 -2.13616575E-03
 -7.90508136E-03 -9.20598976E-06  1.20005409E-05  1.84180915E-04 -7.54174765E-04
  1.26077418E-01 -3.38234203E-02 -1.94143763E-03  3.23501617E-01 -8.68087503E-02
  8.38486593E-04  7.69772444E-03 -1.63155837E-03  8.19192408E-04 -2.86495236E-02
 -3.38255014E-06 -4.81434685E-06 -5.05428928E-05 -2.07360238E-03  3.53133303E-01
 -9.47340024E-02  3.22036981E-03 -5.49164282E-01  1.47321874E-01  1.02106937E-02
 -2.16646172E-03 -2.04063068E-02  5.79467952E-03  8.59113545E-03 -8.13872320E-07
 -1.07501970E-07 -1.81212667E-05  2.31445373E-03 -3.93188793E-01  1.05489752E-01