0001_q000_m01_k00_opt_uwb97xd_def2svpd/0001_q000_m01_k00_force_uhf_def2t
Force     UHF                                                         Gen                 
Number of atoms                            I                7
Info1-9                                    I   N=           9
          13           9           0           0           0         100
           5           1           2
Full Title                                 C   N=           8
0001_q000_m01_k00_opt_uwb97xd_def2svpd/0001_q000_m01_k00_for
ce_uhf_def2tzvpd stable-force       
Route                                      C   N=          15
#p uhf/chkbasis force guess=read geom=check scf=(maxcycle=90
0,verytightlineq,xqc) integral=grid=ultrafine symmetry=None 
density=current pop=(cm5,hlygat,mbs,npa) output=wfx         
Charge                                     I                0
Multiplicity                               I                1
Number of electrons                        I               24
Number of alpha electrons                  I               12
Number of beta electrons                   I               12
Number of basis functions                  I              147
Number of independent functions            I              147
Number of point charges in /Mol/           I                0
Number of translation vectors              I                0
Atomic numbers                             I   N=           7
           6           7           7           1           1           1
           1
Nuclear charges                            R   N=           7
  6.00000000E+00  7.00000000E+00  7.00000000E+00  1.00000000E+00  1.00000000E+00
  1.00000000E+00  1.00000000E+00
Current cartesian coordinates              R   N=          21
  2.02695212E+00 -1.32657117E-01 -2.89151970E-01  4.49366243E+00 -1.69594780E-01
 -4.80718912E-01  5.82669740E+00 -6.96306974E-01 -2.47313900E+00  7.67994023E+00
 -5.53065660E-01 -1.97974669E+00  1.20935456E+00  3.49890902E-01  1.52789288E+00
  9.12820557E-01 -5.85776711E-01 -1.95345676E+00  5.41878558E+00  2.75672749E-01
  1.15865244E+00
Number of symbols in /Mol/                 I                0
Int Atom Types                             I   N=           7
           0           0           0           0           0           0
           0
Force Field                                I                0
Atom Types                                 C   N=           7
                                                            
                        
MM charges                                 R   N=           7
  0.00000000E+00  0.00000000E+00  0.00000000E+00  0.00000000E+00  0.00000000E+00
  0.00000000E+00  0.00000000E+00
Integer atomic weights                     I   N=           7
          12          14          14           1           1           1
           1
Real atomic weights                        R   N=           7
  1.20000000E+01  1.40030740E+01  1.40030740E+01  1.00782504E+00  1.00782504E+00
  1.00782504E+00  1.00782504E+00
Atom fragment info                         I   N=           7
           0           0           0           0           0           0
           0
Atom residue num                           I   N=           7
           0           0           0           0           0           0
           0
Nuclear spins                              I   N=           7
           0           2           2           1           1           1
           1
Nuclear ZEff                               R   N=           7
 -3.60000000E+00 -4.55000000E+00 -4.55000000E+00 -1.00000000E+00 -1.00000000E+00
 -1.00000000E+00 -1.00000000E+00
Nuclear ZNuc                               R   N=           7
  6.00000000E+00  7.00000000E+00  7.00000000E+00  1.00000000E+00  1.00000000E+00
  1.00000000E+00  1.00000000E+00
Nuclear QMom                               R   N=           7
  0.00000000E+00  2.04400000E+00  2.04400000E+00  0.00000000E+00  0.00000000E+00
  0.00000000E+00  0.00000000E+00
Nuclear GFac                               R   N=           7
  0.00000000E+00  4.03761000E-01  4.03761000E-01  2.79284600E+00  2.79284600E+00
  2.79284600E+00  2.79284600E+00
MicOpt                                     I   N=           7
          -1          -1          -1          -1          -1          -1
          -1
Number of residues                         I                0
Number of secondary structures             I                0
Number of contracted shells                I               59
Number of primitive shells                 I               94
Pure/Cartesian d shells                    I                0
Pure/Cartesian f shells                    I                0
Highest angular momentum                   I                3
Largest degree of contraction              I                6
Shell types                                I   N=          59
           0           0           0           0           0           0
           1           1           1          -2          -2          -2
          -3           0           0           0           0           0
           0           1           1           1          -2          -2
          -2          -3           0           0           0           0
           0           0           1           1           1          -2
          -2          -2          -3           0           0           0
           1           1           0           0           0           1
           1           0           0           0           1           1
           0           0           0           1           1
Number of primitives per shell             I   N=          59
           6           2           1           1           1           1
           4           1           1           1           1           1
           1           6           2           1           1           1
           1           4           1           1           1           1
           1           1           6           2           1           1
           1           1           4           1           1           1
           1           1           1           3           1           1
           1           1           3           1           1           1
           1           3           1           1           1           1
           3           1           1           1           1
Shell to atom map                          I   N=          59
           1           1           1           1           1           1
           1           1           1           1           1           1
           1           2           2           2           2           2
           2           2           2           2           2           2
           2           2           3           3           3           3
           3           3           3           3           3           3
           3           3           3           4           4           4
           4           4           5           5           5           5
           5           6           6           6           6           6
           7           7           7           7           7
Primitive exponents                        R   N=          94
  1.35753497E+04  2.03523337E+03  4.63225624E+02  1.31200196E+02  4.28530159E+01
  1.55841858E+01  6.20671385E+00  2.57648965E+00  5.76963394E-01  2.29728314E-01
  9.51644400E-02  4.84754014E-02  3.46972322E+01  7.95826228E+00  2.37808269E+00
  8.14332082E-01  2.88875473E-01  1.00568237E-01  1.09700000E+00  3.18000000E-01
  9.09853364E-02  7.61000000E-01  1.97308006E+04  2.95789587E+03  6.73221336E+02
  1.90682495E+02  6.22954419E+01  2.26541612E+01  8.97914774E+00  3.68630024E+00
  8.46600768E-01  3.36471338E-01  1.36476537E-01  6.84416058E-02  4.92003805E+01
  1.13467905E+01  3.42739724E+00  1.17855251E+00  4.16422050E-01  1.42608260E-01
  1.65400000E+00  4.69000000E-01  1.28296421E-01  1.09300000E+00  1.97308006E+04
  2.95789587E+03  6.73221336E+02  1.90682495E+02  6.22954419E+01  2.26541612E+01
  8.97914774E+00  3.68630024E+00  8.46600768E-01  3.36471338E-01  1.36476537E-01
  6.84416058E-02  4.92003805E+01  1.13467905E+01  3.42739724E+00  1.17855251E+00
  4.16422050E-01  1.42608260E-01  1.65400000E+00  4.69000000E-01  1.28296421E-01
  1.09300000E+00  3.40613410E+01  5.12357460E+00  1.16466260E+00  3.27230410E-01
  1.03072410E-01  8.00000000E-01  9.57741296E-02  3.40613410E+01  5.12357460E+00
  1.16466260E+00  3.27230410E-01  1.03072410E-01  8.00000000E-01  9.57741296E-02
  3.40613410E+01  5.12357460E+00  1.16466260E+00  3.27230410E-01  1.03072410E-01
  8.00000000E-01  9.57741296E-02  3.40613410E+01  5.12357460E+00  1.16466260E+00
  3.27230410E-01  1.03072410E-01  8.00000000E-01  9.57741296E-02
Contraction coefficients                   R   N=          94
  6.06455036E-04  4.69790889E-03  2.43324776E-02  9.73999683E-02  3.01955843E-01
  6.62336091E-01  6.55953085E-01  3.75856333E-01  1.00000000E+00  1.00000000E+00
  1.00000000E+00  1.00000000E+00  1.13272200E-02  7.61696592E-02  3.01922522E-01
  7.27850273E-01  1.00000000E+00  1.00000000E+00  1.00000000E+00  1.00000000E+00
  1.00000000E+00  1.00000000E+00  5.86264026E-04  4.54288206E-03  2.35584135E-02
  9.47091933E-02  2.97197849E-01  6.69162469E-01  6.45966836E-01  3.87005744E-01
  1.00000000E+00  1.00000000E+00  1.00000000E+00  1.00000000E+00  1.14488251E-02
  7.84223380E-02  3.08180947E-01  7.20271964E-01  1.00000000E+00  1.00000000E+00
  1.00000000E+00  1.00000000E+00  1.00000000E+00  1.00000000E+00  5.86264026E-04
  4.54288206E-03  2.35584135E-02  9.47091933E-02  2.97197849E-01  6.69162469E-01
  6.45966836E-01  3.87005744E-01  1.00000000E+00  1.00000000E+00  1.00000000E+00
  1.00000000E+00  1.14488251E-02  7.84223380E-02  3.08180947E-01  7.20271964E-01
  1.00000000E+00  1.00000000E+00  1.00000000E+00  1.00000000E+00  1.00000000E+00
  1.00000000E+00  2.54393072E-02  1.90085949E-01  8.52441130E-01  1.00000000E+00
  1.00000000E+00  1.00000000E+00  1.00000000E+00  2.54393072E-02  1.90085949E-01
  8.52441130E-01  1.00000000E+00  1.00000000E+00  1.00000000E+00  1.00000000E+00
  2.54393072E-02  1.90085949E-01  8.52441130E-01  1.00000000E+00  1.00000000E+00
  1.00000000E+00  1.00000000E+00  2.54393072E-02  1.90085949E-01  8.52441130E-01
  1.00000000E+00  1.00000000E+00  1.00000000E+00  1.00000000E+00
Coordinates of each shell                  R   N=         177
  2.02695212E+00 -1.32657117E-01 -2.89151970E-01  2.02695212E+00 -1.32657117E-01
 -2.89151970E-01  2.02695212E+00 -1.32657117E-01 -2.89151970E-01  2.02695212E+00
 -1.32657117E-01 -2.89151970E-01  2.02695212E+00 -1.32657117E-01 -2.89151970E-01
  2.02695212E+00 -1.32657117E-01 -2.89151970E-01  2.02695212E+00 -1.32657117E-01
 -2.89151970E-01  2.02695212E+00 -1.32657117E-01 -2.89151970E-01  2.02695212E+00
 -1.32657117E-01 -2.89151970E-01  2.02695212E+00 -1.32657117E-01 -2.89151970E-01
  2.02695212E+00 -1.32657117E-01 -2.89151970E-01  2.02695212E+00 -1.32657117E-01
 -2.89151970E-01  2.02695212E+00 -1.32657117E-01 -2.89151970E-01  4.49366243E+00
 -1.69594780E-01 -4.80718912E-01  4.49366243E+00 -1.69594780E-01 -4.80718912E-01
  4.49366243E+00 -1.69594780E-01 -4.80718912E-01  4.49366243E+00 -1.69594780E-01
 -4.80718912E-01  4.49366243E+00 -1.69594780E-01 -4.80718912E-01  4.49366243E+00
 -1.69594780E-01 -4.80718912E-01  4.49366243E+00 -1.69594780E-01 -4.80718912E-01
  4.49366243E+00 -1.69594780E-01 -4.80718912E-01  4.49366243E+00 -1.69594780E-01
 -4.80718912E-01  4.49366243E+00 -1.69594780E-01 -4.80718912E-01  4.49366243E+00
 -1.69594780E-01 -4.80718912E-01  4.49366243E+00 -1.69594780E-01 -4.80718912E-01
  4.49366243E+00 -1.69594780E-01 -4.80718912E-01  5.82669740E+00 -6.96306974E-01
 -2.47313900E+00  5.82669740E+00 -6.96306974E-01 -2.47313900E+00  5.82669740E+00
 -6.96306974E-01 -2.47313900E+00  5.82669740E+00 -6.96306974E-01 -2.47313900E+00
  5.82669740E+00 -6.96306974E-01 -2.47313900E+00  5.82669740E+00 -6.96306974E-01
 -2.47313900E+00  5.82669740E+00 -6.96306974E-01 -2.47313900E+00  5.82669740E+00
 -6.96306974E-01 -2.47313900E+00  5.82669740E+00 -6.96306974E-01 -2.47313900E+00
  5.82669740E+00 -6.96306974E-01 -2.47313900E+00  5.82669740E+00 -6.96306974E-01
 -2.47313900E+00  5.82669740E+00 -6.96306974E-01 -2.47313900E+00  5.82669740E+00
 -6.96306974E-01 -2.47313900E+00  7.67994023E+00 -5.53065660E-01 -1.97974669E+00
  7.67994023E+00 -5.53065660E-01 -1.97974669E+00  7.67994023E+00 -5.53065660E-01
 -1.97974669E+00  7.67994023E+00 -5.53065660E-01 -1.97974669E+00  7.67994023E+00
 -5.53065660E-01 -1.97974669E+00  1.20935456E+00  3.49890902E-01  1.52789288E+00
  1.20935456E+00  3.49890902E-01  1.52789288E+00  1.20935456E+00  3.49890902E-01
  1.52789288E+00  1.20935456E+00  3.49890902E-01  1.52789288E+00  1.20935456E+00
  3.49890902E-01  1.52789288E+00  9.12820557E-01 -5.85776711E-01 -1.95345676E+00
  9.12820557E-01 -5.85776711E-01 -1.95345676E+00  9.12820557E-01 -5.85776711E-01
 -1.95345676E+00  9.12820557E-01 -5.85776711E-01 -1.95345676E+00  9.12820557E-01
 -5.85776711E-01 -1.95345676E+00  5.41878558E+00  2.75672749E-01  1.15865244E+00
  5.41878558E+00  2.75672749E-01  1.15865244E+00  5.41878558E+00  2.75672749E-01
  1.15865244E+00  5.41878558E+00  2.75672749E-01  1.15865244E+00  5.41878558E+00
  2.75672749E-01  1.15865244E+00
Num ILSW                                   I              100
ILSW                                       I   N=         100
           1           0           0           0           2           0
           0           0           0           0           0          -1
           5           0           0           0           2           0
           0           0           0           0           1           0
           1           1           0           0           0           0
           0           0      100000           0          -1           0
           0           0           0           0           0           0
           0           0           0           1           0           0
           0 -2000000000           1           0           0           0
           0           0           4          52           0           0
           0           0           0           0           0           0
           0           0           0           7           0           1
           0           0           0           0           0           0
           0           0           0           0           0           0
           0           0           0           0           0           0
           0           0           0           0           0           0
           0           0           0           0
Num RLSW                                   I               52
RLSW                                       R   N=          52
  1.00000000E+00  1.00000000E+00  1.00000000E+00  1.00000000E+00  1.00000000E+00
  0.00000000E+00  0.00000000E+00  1.00000000E+00  0.00000000E+00  0.00000000E+00
  0.00000000E+00  0.00000000E+00  1.00000000E+00  0.00000000E+00  0.00000000E+00
  0.00000000E+00  0.00000000E+00  1.00000000E+00  0.00000000E+00  0.00000000E+00
  0.00000000E+00  0.00000000E+00  1.00000000E+00  0.00000000E+00  0.00000000E+00
  0.00000000E+00  0.00000000E+00  1.00000000E+00  0.00000000E+00  0.00000000E+00
  0.00000000E+00  0.00000000E+00  1.00000000E+00  0.00000000E+00  0.00000000E+00
  0.00000000E+00  0.00000000E+00  0.00000000E+00  1.00000000E+00  1.00000000E+00
  0.00000000E+00  1.00000000E+00  0.00000000E+00  0.00000000E+00  0.00000000E+00
  0.00000000E+00  0.00000000E+00  0.00000000E+00  0.00000000E+00  0.00000000E+00
  0.00000000E+00  0.00000000E+00
MxBond                                     I                3
NBond                                      I   N=           7
           3           3           2           1           1           1
           1
IBond                                      I   N=          21
           2           5           6           1           3           7
           2           4           0           3           0           0
           1           0           0           1           0           0
           2           0           0
RBond                                      R   N=          21
  2.00000000E+00  1.00000000E+00  1.00000000E+00  2.00000000E+00  1.00000000E+00
  1.00000000E+00  1.00000000E+00  1.00000000E+00  0.00000000E+00  1.00000000E+00
  0.00000000E+00  0.00000000E+00  1.00000000E+00  0.00000000E+00  0.00000000E+00
  1.00000000E+00  0.00000000E+00  0.00000000E+00  1.00000000E+00  0.00000000E+00
  0.00000000E+00
Virial Ratio                               R      2.000405632096975E+00
SCF Energy                                 R     -1.490556857781674E+02
Total Energy                               R     -1.490556857781674E+02
S**2                                       R      6.420197772124929E-01
S**2 after annihilation                    R      6.728122479040526E-02
RMS Force                                  R      1.676152704290576E-02
RMS Density                                R      1.714105139509393E-10
Job Status                                 I                1
Nuclear derivative order                   I                1
External E-field                           R   N=          35
  0.00000000E+00  0.00000000E+00  0.00000000E+00  0.00000000E+00  0.00000000E+00
  0.00000000E+00  0.00000000E+00  0.00000000E+00  0.00000000E+00  0.00000000E+00
  0.00000000E+00  0.00000000E+00  0.00000000E+00  0.00000000E+00  0.00000000E+00
  0.00000000E+00  0.00000000E+00  0.00000000E+00  0.00000000E+00  0.00000000E+00
  0.00000000E+00  0.00000000E+00  0.00000000E+00  0.00000000E+00  0.00000000E+00
  0.00000000E+00  0.00000000E+00  0.00000000E+00  0.00000000E+00  0.00000000E+00
  0.00000000E+00  0.00000000E+00  0.00000000E+00  0.00000000E+00  0.00000000E+00
IOpCl                                      I                1
IROHF                                      I                0
Alpha Orbital Energies                     R   N=         147
 -1.56509515E+01 -1.55474881E+01 -1.12539412E+01 -1.34121271E+00 -1.06042886E+00
 -8.53903032E-01 -7.52814057E-01 -6.48809713E-01 -5.75012202E-01 -5.63281982E-01
 -4.33933847E-01 -2.99686155E-01  7.06918786E-02  9.53937897E-02  1.21670447E-01
  1.45166524E-01  1.61386837E-01  1.80971932E-01  1.87755586E-01  1.91201615E-01
  2.36884388E-01  2.44275252E-01  2.52120669E-01  2.79682325E-01  2.82683192E-01
  3.09652971E-01  3.15842875E-01  3.44468300E-01  3.45817991E-01  3.48250101E-01
  3.71352347E-01  3.92189506E-01  4.13711956E-01  4.17095173E-01  4.38133467E-01
  4.47689797E-01  4.50052070E-01  4.66769056E-01  4.78287359E-01  5.07567710E-01
  5.10668922E-01  5.52884638E-01  5.62858937E-01  5.78115765E-01  5.95792891E-01
  5.97880127E-01  6.38051084E-01  6.55716907E-01  6.58793269E-01  6.80116745E-01
  7.04716896E-01  7.23283802E-01  8.14455797E-01  8.45189774E-01  8.73466615E-01
  8.90624362E-01  9.21549890E-01  9.26051708E-01  9.38371223E-01  9.73463261E-01
  9.98274776E-01  1.02744804E+00  1.04295353E+00  1.07785243E+00  1.11200172E+00
  1.14403059E+00  1.23959930E+00  1.28401819E+00  1.36976183E+00  1.39768448E+00
  1.51361081E+00  1.52125377E+00  1.61554638E+00  1.66670735E+00  1.69619552E+00
  1.84336115E+00  1.84581816E+00  1.85062618E+00  1.97186838E+00  2.01913882E+00
  2.04042160E+00  2.10111123E+00  2.12322399E+00  2.13332247E+00  2.21190995E+00
  2.25792738E+00  2.28734768E+00  2.34717088E+00  2.47546722E+00  2.50780531E+00
  2.51315287E+00  2.56347011E+00  2.67329659E+00  2.68031941E+00  2.71143936E+00
  2.78898548E+00  2.91792899E+00  2.92520309E+00  2.95934281E+00  3.03308759E+00
  3.13695115E+00  3.15291451E+00  3.20591047E+00  3.22823508E+00  3.29240766E+00
  3.37015189E+00  3.40990587E+00  3.45658710E+00  3.51499694E+00  3.51788420E+00
  3.62603946E+00  3.63275484E+00  3.66875028E+00  3.89447105E+00  3.92614552E+00
  4.06817083E+00  4.17688646E+00  4.18366610E+00  4.21228683E+00  4.36012465E+00
  4.48306417E+00  4.57364657E+00  4.58467208E+00  4.76160314E+00  4.97856863E+00
  5.01359345E+00  5.09695739E+00  5.14845973E+00  5.22618989E+00  5.24974922E+00
  5.26812285E+00  5.30212290E+00  5.40542090E+00  5.43707416E+00  5.58858369E+00
  5.60594748E+00  5.67605365E+00  5.82549377E+00  6.06285888E+00  6.11932267E+00
  6.17960022E+00  6.44871489E+00  6.60414006E+00  7.40517708E+00  2.37147549E+01
  3.34730955E+01  3.38216077E+01
Beta Orbital Energies                      R   N=         147
 -1.56573907E+01 -1.55705802E+01 -1.12349275E+01 -1.36360598E+00 -1.08297809E+00
 -8.40333973E-01 -7.53449879E-01 -6.49571691E-01 -6.13380987E-01 -5.69098171E-01
 -4.62356748E-01 -3.56162410E-01  7.14735732E-02  9.64745641E-02  1.20870447E-01
  1.37154357E-01  1.61694103E-01  1.83909426E-01  1.88086500E-01  1.91786582E-01
  2.37051112E-01  2.44731544E-01  2.48573968E-01  2.81529572E-01  2.96961909E-01
  3.10698111E-01  3.22721190E-01  3.43473506E-01  3.48799132E-01  3.53343814E-01
  3.73097445E-01  3.89474866E-01  4.17004140E-01  4.26808924E-01  4.39400478E-01
  4.47871647E-01  4.64714366E-01  4.66141541E-01  4.77774155E-01  5.07438873E-01
  5.14645274E-01  5.51639078E-01  5.62685572E-01  5.80063658E-01  5.97363356E-01
  6.01089036E-01  6.39169873E-01  6.47097347E-01  6.51128390E-01  6.90256928E-01
  7.12603978E-01  7.19412841E-01  7.96617712E-01  8.55183392E-01  8.78377362E-01
  8.89798543E-01  9.01506613E-01  9.22682169E-01  9.36957758E-01  9.72978327E-01
  1.00278101E+00  1.02222730E+00  1.07304449E+00  1.07624917E+00  1.11015681E+00
  1.17521602E+00  1.23516418E+00  1.29171911E+00  1.37843412E+00  1.40550454E+00
  1.49085669E+00  1.49413592E+00  1.60511263E+00  1.65941847E+00  1.68731175E+00
  1.83168733E+00  1.84870672E+00  1.90082677E+00  1.95090218E+00  2.03470852E+00
  2.04181893E+00  2.10031286E+00  2.12001862E+00  2.15525797E+00  2.21636864E+00
  2.26219287E+00  2.27590809E+00  2.34997967E+00  2.47598554E+00  2.50141918E+00
  2.51117311E+00  2.55877274E+00  2.63727395E+00  2.67558048E+00  2.72200376E+00
  2.78718150E+00  2.87210262E+00  2.92154379E+00  2.95932513E+00  3.03797430E+00
  3.13483870E+00  3.15289074E+00  3.19946193E+00  3.23273591E+00  3.30729367E+00
  3.39647475E+00  3.44354096E+00  3.48056420E+00  3.51629884E+00  3.54716363E+00
  3.63689446E+00  3.65023223E+00  3.65577447E+00  3.89998373E+00  3.93495052E+00
  4.06016543E+00  4.17012392E+00  4.17875360E+00  4.21173971E+00  4.34613056E+00
  4.48871854E+00  4.55726612E+00  4.56213471E+00  4.75283606E+00  4.98002573E+00
  5.00093157E+00  5.09717220E+00  5.11429237E+00  5.19931679E+00  5.21825922E+00
  5.23942016E+00  5.27200125E+00  5.37285390E+00  5.42565616E+00  5.59063265E+00
  5.59874181E+00  5.67131912E+00  5.81974871E+00  6.05806294E+00  6.11585609E+00
  6.16281391E+00  6.44273646E+00  6.60122838E+00  7.39537896E+00  2.37272681E+01
  3.34588278E+01  3.38177186E+01
Alpha MO coefficients                      R   N=       21609
  1.63566044E-06  2.88563158E-05  4.45175811E-04 -1.43192788E-03 -5.81313485E-03
 -8.39496581E-04  1.75722746E-04 -4.86253409E-06 -2.19570522E-05 -5.55483041E-04
  5.68021459E-05  2.23829722E-04 -3.71077930E-03  1.61131928E-04  6.81903805E-04
  7.57129933E-05  1.96697761E-05  3.65032386E-06 -1.18963435E-04  3.88921842E-06
 -4.53150114E-05  1.23634571E-04 -7.67337550E-05 -1.89818363E-04  3.08208379E-05
  2.43647254E-04  4.43537940E-04 -1.03054296E-04 -7.88766274E-04  1.09573369E-04
 -3.61233724E-05  1.11503709E-04 -3.72869231E-06  4.57362914E-05  9.64122034E-06
 -1.18447975E-04  1.29620048E-05  4.48998008E-01  6.30080451E-01  2.09498266E-02
 -1.05710893E-02  2.90027339E-02  5.24978520E-03  1.61921213E-04 -3.91118978E-05
 -1.49475887E-04 -2.02268676E-04  2.34275137E-05  9.18453773E-05  2.31067649E-03
 -1.56373861E-03 -5.87954439E-03  1.07597878E-04 -1.10679937E-04  1.44426857E-04
  3.15785221E-04 -2.57643357E-05  1.67142261E-04  9.40108769E-05  1.36794921E-04
  1.81450392E-04  2.75686501E-05  1.19851726E-03 -1.40970637E-03  8.67216801E-04
  9.56949515E-04 -3.65617869E-04  9.11336962E-06  3.72030186E-04  2.26931191E-05
  2.29713742E-05  1.12794066E-04 -1.62804730E-04  6.20661566E-06  2.09745305E-03
  2.94759014E-03  2.64780099E-04  4.80135558E-04 -1.59166738E-02 -6.36341068E-04
 -1.29404843E-04  4.68596384E-05  1.77495640E-04  2.22626392E-04 -1.71490593E-05
 -6.88030818E-05  4.22953212E-03 -1.47532395E-03 -5.59150494E-03 -2.27494975E-05
  2.29345176E-05 -1.26166460E-05 -4.77756287E-06  6.07693375E-06 -7.38038080E-05
  2.67900178E-04 -7.61906769E-05 -1.41994434E-04  7.00879803E-05 -5.32381817E-04
  9.37507627E-04 -3.10235059E-04 -1.72948227E-04  2.49013168E-04 -8.09514796E-06
  1.22637531E-04 -4.37969933E-05 -7.09568148E-05  6.44127257E-05  2.67256742E-05
 -2.50298859E-05 -2.91262394E-05 -9.43876268E-05 -1.16359049E-03  5.95826763E-05
 -1.06434246E-05 -4.09772432E-05  3.05686316E-04 -4.80499239E-05 -1.85795495E-04
  2.55521074E-05  7.89113464E-05 -7.79337775E-04 -4.21311155E-05 -3.88487388E-06
 -1.35767484E-05 -5.11308100E-04  4.13059765E-05  1.65088200E-04  1.05152283E-05
  1.84077621E-04 -3.79427140E-04  5.46648974E-06  5.16370362E-06  1.91177012E-05
 -1.15489147E-05 -3.21602627E-05 -1.19605735E-04  1.09856587E-04 -5.73784443E-04
 -3.37045838E-03  1.29930037E-04  6.75721264E-05  2.49009359E-04  4.13834599E-04
  1.63469927E-04  6.00201273E-04 -5.18843653E-07  3.26845738E-06  2.13611799E-04
 -1.17926649E-03  2.04840804E-04 -8.46773394E-04  9.07695024E-06 -3.27388135E-06
 -1.23977180E-05 -7.71415176E-04  3.04864852E-05  1.30447253E-04 -1.29238973E-03
  3.33437394E-04  1.27154069E-03  1.61319659E-05  3.51217015E-06  3.58539804E-06
 -1.56228870E-05  7.65575407E-07 -2.76930152E-06  1.19664342E-04 -8.55595368E-05
 -2.93942032E-04  2.85228963E-05 -1.46584737E-04  2.47571521E-04 -1.15999621E-04
 -1.52956300E-04  6.44513336E-05 -1.63694350E-05 -1.29398341E-05 -1.11858381E-05
  4.14121609E-06 -1.99218240E-05 -3.96202560E-05  6.86705596E-08 -2.19285563E-03
 -3.08801419E-03 -6.28475163E-04  4.10234103E-03 -1.33643428E-03  3.18052179E-03
  9.27173341E-05 -4.20018028E-05 -1.58583247E-04  1.23833057E-03 -4.58162525E-04
 -1.73486186E-03 -1.77199148E-03 -3.53215965E-05 -9.29625710E-05  3.39716994E-05
 -3.31864068E-05  9.37411951E-06 -2.56357992E-05 -9.19025849E-06  1.84304487E-04
 -6.16915250E-04  2.33089994E-04  5.01490732E-04 -1.59259335E-04  9.15171942E-04
  1.60976199E-04  4.68052682E-04  3.01160710E-05  4.42660513E-05  5.89508906E-05
 -5.00182676E-05  5.08440331E-05  6.77538679E-06 -2.50961183E-05 -6.99712146E-06
  4.49863544E-06  4.49275726E-01  6.30385847E-01  2.02852911E-02 -1.25763836E-02
  1.06223424E-02  1.00056910E-03  2.37948300E-04  7.20254655E-04  2.67943360E-03
  9.27035152E-04 -1.01824986E-03 -3.81565685E-03  2.09875161E-03  8.73339009E-04
  3.20934739E-03  3.70453132E-04 -5.45424285E-05  3.53814253E-04  5.83461562E-04
 -7.22781543E-06 -7.62744586E-04  8.89401613E-04 -4.23188348E-04 -1.63570666E-04
  2.36034881E-04  4.37453204E-04 -1.45214064E-04  3.08229182E-04  3.11876193E-04
 -3.48120264E-05 -1.08844247E-04  3.66979440E-06 -8.00970860E-05  1.40038810E-05
  3.92429438E-05  1.06201054E-04  2.82005794E-06  2.08203281E-04 -2.82629800E-04
 -6.28407417E-03  8.99355207E-05  4.79346454E-05  1.76701413E-04  1.76967148E-03
  2.02701011E-05  3.68774626E-05 -1.21921135E-06  1.87498937E-04 -1.90263100E-03
  6.57173026E-06 -2.40830923E-06 -9.14025564E-06 -4.21457532E-04  1.47614677E-04
  5.59317057E-04 -1.56412119E-05  1.41494559E-04 -1.35625023E-04  1.73230571E-05
 -1.51597045E-06 -6.02922871E-06 -4.19251971E-06 -5.23548867E-05 -1.95033290E-04
  4.31459641E-05 -6.38307475E-04 -6.54486188E-04 -2.23443465E-05  5.48611360E-05
  2.04970776E-04  3.52861321E-04 -8.31436555E-05 -3.17664995E-04  4.67207471E-01
  6.12159702E-01  2.28214928E-02 -1.74851357E-02  1.72612579E-02 -6.15036615E-04
  1.04856197E-03  1.37776891E-05  2.86972157E-05 -1.92885983E-03 -1.39450594E-05
 -9.98523582E-06 -9.21714152E-03  2.96780685E-05  3.13473908E-04 -1.86423211E-04
 -4.96055331E-06 -1.32943548E-04 -1.36886241E-04 -3.17027800E-06  2.35296459E-04
  1.68280139E-05  1.25353135E-04  2.56468626E-05  5.04146222E-06  3.52264319E-03
 -3.38411966E-04  1.48273834E-03 -9.64289850E-04 -9.97980708E-05  1.03051465E-04
 -5.59212042E-04  1.88512181E-05 -1.10759024E-04 -1.81629395E-04  2.13077212E-04
 -3.27597580E-05 -1.54570056E-04 -2.62463589E-04  1.72325176E-04  3.67173494E-04
  6.37964567E-03  4.34011253E-03 -3.31834392E-04  1.42760421E-05  6.04602972E-05
  6.05743363E-04 -1.69352101E-04 -6.44413872E-04 -7.90448826E-03  3.03985550E-04
  1.30536776E-03 -5.09237467E-05 -3.90874807E-06 -2.08045827E-05  1.63294517E-05
 -8.86830620E-07  5.12715052E-04 -1.81024582E-04  2.26142043E-04 -1.01549137E-04
 -4.94033601E-05 -2.72630181E-03 -5.81594777E-04 -6.34172634E-04  2.54214253E-03
 -1.27196297E-04 -1.37773869E-05  5.31651006E-05 -1.60638564E-05 -9.87873454E-06
  1.52523326E-05 -2.50399644E-05 -4.45309643E-06  5.64165266E-06  8.25283308E-06
  2.31101701E-04 -1.17118527E-03  4.44772420E-03 -8.24412674E-04 -1.45197573E-05
 -5.43900303E-07 -1.71031059E-06  5.96636065E-04 -1.35799322E-04 -5.19251740E-04
 -7.29975265E-04  1.00668013E-04  3.91547392E-04 -1.62804545E-05  7.46200198E-06
 -1.14350518E-05 -1.15367766E-05  1.84888751E-06 -4.08097259E-05  3.67980057E-04
 -4.75829888E-05 -1.02510342E-04  9.74466678E-05 -1.21854138E-04 -1.44690572E-04
 -1.10479043E-04 -1.67609253E-04 -4.09158110E-05  1.63331960E-05  5.31757459E-05
 -6.04129298E-07 -2.63790307E-05  2.48142116E-05  2.46550221E-06 -8.68008934E-06
 -3.64430032E-05 -2.85621180E-06 -2.49693719E-03  3.42340507E-05 -1.16511919E-05
 -4.41750778E-05  8.25341551E-04 -1.43205370E-04 -5.51765580E-04 -3.35556551E-05
  4.56473253E-04 -1.38161518E-02 -3.64683160E-05  6.31115861E-05  2.36133403E-04
 -1.53959804E-03  3.42846567E-04  1.31290813E-03 -2.41261026E-05  2.48117409E-04
 -1.21462401E-02 -1.02946787E-04 -5.68548178E-05 -2.09619980E-04 -2.17392850E-03
 -2.56593925E-04 -9.08195595E-04 -1.29583028E-04  1.18125105E-04  4.80755750E-03
  1.18204977E-04  8.68303688E-06  2.97820100E-05 -1.09540146E-03 -2.58626537E-04