0001_q000_m01_k00_opt_uwb97xd_def2svpd/0001_q000_m01_k00_force_uwb97xd_d
Force     UwB97XD                                                     Gen                 
Number of atoms                            I                7
Info1-9                                    I   N=           9
          13           9           0           0           0         100
           5          18       -5802
Full Title                                 C   N=           8
0001_q000_m01_k00_opt_uwb97xd_def2svpd/0001_q000_m01_k00_for
ce_uwb97xd_def2svpd stable-force    
Route                                      C   N=          15
#p uwb97xd/chkbasis force guess=read geom=check scf=(maxcycl
e=900,verytightlineq,xqc) integral=grid=ultrafine symmetry=N
one density=current pop=(cm5,hlygat,mbs,npa) output=wfx     
Charge                                     I                0
Multiplicity                               I                1
Number of electrons                        I               24
Number of alpha electrons                  I               12
Number of beta electrons                   I               12
Number of basis functions                  I               92
Number of independent functions            I               92
Number of point charges in /Mol/           I                0
Number of translation vectors              I                0
Atomic numbers                             I   N=           7
           6           7           7           1           1           1
           1
Nuclear charges                            R   N=           7
  6.00000000E+00  7.00000000E+00  7.00000000E+00  1.00000000E+00  1.00000000E+00
  1.00000000E+00  1.00000000E+00
Current cartesian coordinates              R   N=          21
  2.02695212E+00 -1.32657117E-01 -2.89151970E-01  4.49366243E+00 -1.69594780E-01
 -4.80718912E-01  5.82669740E+00 -6.96306974E-01 -2.47313900E+00  7.67994023E+00
 -5.53065660E-01 -1.97974669E+00  1.20935456E+00  3.49890902E-01  1.52789288E+00
  9.12820557E-01 -5.85776711E-01 -1.95345676E+00  5.41878558E+00  2.75672749E-01
  1.15865244E+00
Number of symbols in /Mol/                 I                0
Int Atom Types                             I   N=           7
           0           0           0           0           0           0
           0
Force Field                                I                0
Atom Types                                 C   N=           7
                                                            
                        
MM charges                                 R   N=           7
  0.00000000E+00  0.00000000E+00  0.00000000E+00  0.00000000E+00  0.00000000E+00
  0.00000000E+00  0.00000000E+00
Integer atomic weights                     I   N=           7
          12          14          14           1           1           1
           1
Real atomic weights                        R   N=           7
  1.20000000E+01  1.40030740E+01  1.40030740E+01  1.00782504E+00  1.00782504E+00
  1.00782504E+00  1.00782504E+00
Atom fragment info                         I   N=           7
           0           0           0           0           0           0
           0
Atom residue num                           I   N=           7
           0           0           0           0           0           0
           0
Nuclear spins                              I   N=           7
           0           2           2           1           1           1
           1
Nuclear ZEff                               R   N=           7
 -3.60000000E+00 -4.55000000E+00 -4.55000000E+00 -1.00000000E+00 -1.00000000E+00
 -1.00000000E+00 -1.00000000E+00
Nuclear ZNuc                               R   N=           7
  6.00000000E+00  7.00000000E+00  7.00000000E+00  1.00000000E+00  1.00000000E+00
  1.00000000E+00  1.00000000E+00
Nuclear QMom                               R   N=           7
  0.00000000E+00  2.04400000E+00  2.04400000E+00  0.00000000E+00  0.00000000E+00
  0.00000000E+00  0.00000000E+00
Nuclear GFac                               R   N=           7
  0.00000000E+00  4.03761000E-01  4.03761000E-01  2.79284600E+00  2.79284600E+00
  2.79284600E+00  2.79284600E+00
MicOpt                                     I   N=           7
          -1          -1          -1          -1          -1          -1
          -1
Number of residues                         I                0
Number of secondary structures             I                0
Number of contracted shells                I               40
Number of primitive shells                 I               66
Pure/Cartesian d shells                    I                0
Pure/Cartesian f shells                    I                0
Highest angular momentum                   I                2
Largest degree of contraction              I                5
Shell types                                I   N=          40
           0           0           0           0           1           1
          -2          -2           0           0           0           0
           1           1          -2          -2           0           0
           0           0           1           1          -2          -2
           0           0           1           1           0           0
           1           1           0           0           1           1
           0           0           1           1
Number of primitives per shell             I   N=          40
           5           1           1           1           3           1
           1           1           5           1           1           1
           3           1           1           1           5           1
           1           1           3           1           1           1
           3           1           1           1           3           1
           1           1           3           1           1           1
           3           1           1           1
Shell to atom map                          I   N=          40
           1           1           1           1           1           1
           1           1           2           2           2           2
           2           2           2           2           3           3
           3           3           3           3           3           3
           4           4           4           4           5           5
           5           5           6           6           6           6
           7           7           7           7
Primitive exponents                        R   N=          66
  1.23840169E+03  1.86290050E+02  4.22511763E+01  1.16765579E+01  3.59305065E+00
  4.02451474E-01  1.30901827E-01  6.70535403E-02  9.46809706E+00  2.01035451E+00
  5.47710047E-01  1.52686138E-01  8.00000000E-01  1.17131851E-01  1.71284159E+03
  2.57648127E+02  5.84582459E+01  1.61983679E+01  5.00526008E+00  5.87318566E-01
  1.87645923E-01  9.61712415E-02  1.35714702E+01  2.92573729E+00  7.99277508E-01
  2.19543480E-01  1.00000000E+00  1.66977081E-01  1.71284159E+03  2.57648127E+02
  5.84582459E+01  1.61983679E+01  5.00526008E+00  5.87318566E-01  1.87645923E-01
  9.61712415E-02  1.35714702E+01  2.92573729E+00  7.99277508E-01  2.19543480E-01
  1.00000000E+00  1.66977081E-01  1.30107010E+01  1.96225720E+00  4.44537960E-01
  1.21949620E-01  8.00000000E-01  1.17040991E-01  1.30107010E+01  1.96225720E+00
  4.44537960E-01  1.21949620E-01  8.00000000E-01  1.17040991E-01  1.30107010E+01
  1.96225720E+00  4.44537960E-01  1.21949620E-01  8.00000000E-01  1.17040991E-01
  1.30107010E+01  1.96225720E+00  4.44537960E-01  1.21949620E-01  8.00000000E-01
  1.17040991E-01
Contraction coefficients                   R   N=          66
  5.51736505E-03  4.10888286E-02  1.82253821E-01  4.68284594E-01  4.45758173E-01
  1.00000000E+00  1.00000000E+00  1.00000000E+00  5.68883320E-02  3.12940593E-01
  7.60650165E-01  1.00000000E+00  1.00000000E+00  1.00000000E+00 -5.44779958E-03
 -4.06271746E-02 -1.81119623E-01 -4.68439756E-01 -4.46168463E-01  1.00000000E+00
  1.00000000E+00  1.00000000E+00 -5.88481170E-02 -3.20246248E-01 -7.53282265E-01
  1.00000000E+00  1.00000000E+00  1.00000000E+00 -5.44779958E-03 -4.06271746E-02
 -1.81119623E-01 -4.68439756E-01 -4.46168463E-01  1.00000000E+00  1.00000000E+00
  1.00000000E+00 -5.88481170E-02 -3.20246248E-01 -7.53282265E-01  1.00000000E+00
  1.00000000E+00  1.00000000E+00  3.34854848E-02  2.34721871E-01  8.13770285E-01
  1.00000000E+00  1.00000000E+00  1.00000000E+00  3.34854848E-02  2.34721871E-01
  8.13770285E-01  1.00000000E+00  1.00000000E+00  1.00000000E+00  3.34854848E-02
  2.34721871E-01  8.13770285E-01  1.00000000E+00  1.00000000E+00  1.00000000E+00
  3.34854848E-02  2.34721871E-01  8.13770285E-01  1.00000000E+00  1.00000000E+00
  1.00000000E+00
Coordinates of each shell                  R   N=         120
  2.02695212E+00 -1.32657117E-01 -2.89151970E-01  2.02695212E+00 -1.32657117E-01
 -2.89151970E-01  2.02695212E+00 -1.32657117E-01 -2.89151970E-01  2.02695212E+00
 -1.32657117E-01 -2.89151970E-01  2.02695212E+00 -1.32657117E-01 -2.89151970E-01
  2.02695212E+00 -1.32657117E-01 -2.89151970E-01  2.02695212E+00 -1.32657117E-01
 -2.89151970E-01  2.02695212E+00 -1.32657117E-01 -2.89151970E-01  4.49366243E+00
 -1.69594780E-01 -4.80718912E-01  4.49366243E+00 -1.69594780E-01 -4.80718912E-01
  4.49366243E+00 -1.69594780E-01 -4.80718912E-01  4.49366243E+00 -1.69594780E-01
 -4.80718912E-01  4.49366243E+00 -1.69594780E-01 -4.80718912E-01  4.49366243E+00
 -1.69594780E-01 -4.80718912E-01  4.49366243E+00 -1.69594780E-01 -4.80718912E-01
  4.49366243E+00 -1.69594780E-01 -4.80718912E-01  5.82669740E+00 -6.96306974E-01
 -2.47313900E+00  5.82669740E+00 -6.96306974E-01 -2.47313900E+00  5.82669740E+00
 -6.96306974E-01 -2.47313900E+00  5.82669740E+00 -6.96306974E-01 -2.47313900E+00
  5.82669740E+00 -6.96306974E-01 -2.47313900E+00  5.82669740E+00 -6.96306974E-01
 -2.47313900E+00  5.82669740E+00 -6.96306974E-01 -2.47313900E+00  5.82669740E+00
 -6.96306974E-01 -2.47313900E+00  7.67994023E+00 -5.53065660E-01 -1.97974669E+00
  7.67994023E+00 -5.53065660E-01 -1.97974669E+00  7.67994023E+00 -5.53065660E-01
 -1.97974669E+00  7.67994023E+00 -5.53065660E-01 -1.97974669E+00  1.20935456E+00
  3.49890902E-01  1.52789288E+00  1.20935456E+00  3.49890902E-01  1.52789288E+00
  1.20935456E+00  3.49890902E-01  1.52789288E+00  1.20935456E+00  3.49890902E-01
  1.52789288E+00  9.12820557E-01 -5.85776711E-01 -1.95345676E+00  9.12820557E-01
 -5.85776711E-01 -1.95345676E+00  9.12820557E-01 -5.85776711E-01 -1.95345676E+00
  9.12820557E-01 -5.85776711E-01 -1.95345676E+00  5.41878558E+00  2.75672749E-01
  1.15865244E+00  5.41878558E+00  2.75672749E-01  1.15865244E+00  5.41878558E+00
  2.75672749E-01  1.15865244E+00  5.41878558E+00  2.75672749E-01  1.15865244E+00
Num ILSW                                   I              100
ILSW                                       I   N=         100
           1           0           0           0           2           0
           0           0           0           0        4639          -1
           5           0           0           0           2           0
           0           0           0           0           1           0
           1           1           0           0           0           0
           0           0      100000           0          -1           0
           0           0           0           0           0           0
           0           0           0           1           0           0
           0 -2000000000           1           0           0           0
           0           0         121          52           0           0
           0           0          58           0           0           0
           0           0           0           7           0           1
           0           0           0           0           0           0
           0           0           0           0           0           0
           0           0           0           0           0           0
           0           0           0           0           0           0
           0           0           0           0
Num RLSW                                   I               52
RLSW                                       R   N=          52
  1.00000000E+00  1.00000000E+00  1.00000000E+00  1.00000000E+00  1.00000000E+00
  0.00000000E+00  2.00000000E-01  2.22036000E-01  0.00000000E+00  7.77964000E-01
  0.00000000E+00  2.00000000E-01  0.00000000E+00  0.00000000E+00  1.00000000E+00
  0.00000000E+00  0.00000000E+00  1.00000000E+00  0.00000000E+00  0.00000000E+00
  0.00000000E+00  0.00000000E+00  1.00000000E+00  0.00000000E+00  0.00000000E+00
  0.00000000E+00  0.00000000E+00  1.00000000E+00  0.00000000E+00  0.00000000E+00
  0.00000000E+00  0.00000000E+00  1.00000000E+00  0.00000000E+00  0.00000000E+00
  0.00000000E+00  0.00000000E+00  0.00000000E+00  1.00000000E+00  1.00000000E+00
  0.00000000E+00  1.00000000E+00  0.00000000E+00  0.00000000E+00  0.00000000E+00
  0.00000000E+00  0.00000000E+00  0.00000000E+00  0.00000000E+00  0.00000000E+00
  0.00000000E+00  0.00000000E+00
MxBond                                     I                3
NBond                                      I   N=           7
           3           3           2           1           1           1
           1
IBond                                      I   N=          21
           2           5           6           1           3           7
           2           4           0           3           0           0
           1           0           0           1           0           0
           2           0           0
RBond                                      R   N=          21
  2.00000000E+00  1.00000000E+00  1.00000000E+00  2.00000000E+00  1.00000000E+00
  1.00000000E+00  1.00000000E+00  1.00000000E+00  0.00000000E+00  1.00000000E+00
  0.00000000E+00  0.00000000E+00  1.00000000E+00  0.00000000E+00  0.00000000E+00
  1.00000000E+00  0.00000000E+00  0.00000000E+00  1.00000000E+00  0.00000000E+00
  0.00000000E+00
Virial Ratio                               R      2.010233303811628E+00
SCF Energy                                 R     -1.497746662715824E+02
Total Energy                               R     -1.497746662715824E+02
S**2                                       R     -3.552713678800501E-15
S**2 after annihilation                    R      1.243449787580174E-14
RMS Force                                  R      7.916810991401442E-07
RMS Density                                R      1.772924751117308E-09
Job Status                                 I                1
Nuclear derivative order                   I                1
External E-field                           R   N=          35
  0.00000000E+00  0.00000000E+00  0.00000000E+00  0.00000000E+00  0.00000000E+00
  0.00000000E+00  0.00000000E+00  0.00000000E+00  0.00000000E+00  0.00000000E+00
  0.00000000E+00  0.00000000E+00  0.00000000E+00  0.00000000E+00  0.00000000E+00
  0.00000000E+00  0.00000000E+00  0.00000000E+00  0.00000000E+00  0.00000000E+00
  0.00000000E+00  0.00000000E+00  0.00000000E+00  0.00000000E+00  0.00000000E+00
  0.00000000E+00  0.00000000E+00  0.00000000E+00  0.00000000E+00  0.00000000E+00
  0.00000000E+00  0.00000000E+00  0.00000000E+00  0.00000000E+00  0.00000000E+00
IOpCl                                      I                1
IROHF                                      I                0
Alpha Orbital Energies                     R   N=          92
 -1.45740360E+01 -1.44289717E+01 -1.03247974E+01 -1.13483279E+00 -9.01896874E-01
 -7.37504676E-01 -6.55479442E-01 -5.72933828E-01 -5.23119685E-01 -5.04321987E-01
 -3.65410789E-01 -2.76403174E-01  4.72727835E-02  7.84602126E-02  1.14445274E-01
  1.55867187E-01  1.92877170E-01  2.06450754E-01  2.12615779E-01  2.20300130E-01
  2.70549202E-01  2.82985418E-01  2.96706493E-01  2.97948364E-01  3.29662934E-01
  3.48591904E-01  3.52744348E-01  3.77785007E-01  3.91165691E-01  4.01826435E-01
  4.14538413E-01  4.24452501E-01  4.47679639E-01  4.73473836E-01  5.00249268E-01
  5.06056057E-01  5.20232318E-01  5.27780268E-01  5.53102310E-01  5.63615120E-01
  5.91589362E-01  6.24857631E-01  6.71454647E-01  6.96055960E-01  7.17525363E-01
  7.34599827E-01  7.52407686E-01  8.13104593E-01  8.37326419E-01  8.42049369E-01
  9.32879796E-01  9.77769143E-01  1.07836846E+00  1.11602274E+00  1.15075207E+00
  1.17999257E+00  1.19931112E+00  1.24882431E+00  1.33257345E+00  1.38808971E+00
  1.47754954E+00  1.51664852E+00  1.61112889E+00  1.64709861E+00  1.68013298E+00
  1.70391136E+00  1.71173040E+00  1.80894007E+00  1.85448255E+00  1.87203634E+00
  1.88120308E+00  1.99222788E+00  2.02391725E+00  2.14086677E+00  2.17414572E+00
  2.26403618E+00  2.26693604E+00  2.31877755E+00  2.33380444E+00  2.39217537E+00
  2.50475839E+00  2.61233484E+00  2.64388394E+00  2.78995473E+00  2.80945804E+00
  2.99993558E+00  3.11050928E+00  3.16586382E+00  3.32002973E+00  3.40959063E+00
  3.58576824E+00  3.82409619E+00
Beta Orbital Energies                      R   N=          92
 -1.45740360E+01 -1.44289717E+01 -1.03247974E+01 -1.13483279E+00 -9.01896874E-01
 -7.37504676E-01 -6.55479442E-01 -5.72933828E-01 -5.23119685E-01 -5.04321987E-01
 -3.65410789E-01 -2.76403174E-01  4.72727835E-02  7.84602126E-02  1.14445274E-01
  1.55867187E-01  1.92877170E-01  2.06450754E-01  2.12615779E-01  2.20300130E-01
  2.70549202E-01  2.82985418E-01  2.96706493E-01  2.97948364E-01  3.29662934E-01
  3.48591904E-01  3.52744348E-01  3.77785007E-01  3.91165691E-01  4.01826435E-01
  4.14538413E-01  4.24452501E-01  4.47679639E-01  4.73473836E-01  5.00249268E-01
  5.06056057E-01  5.20232318E-01  5.27780268E-01  5.53102310E-01  5.63615120E-01
  5.91589362E-01  6.24857631E-01  6.71454647E-01  6.96055960E-01  7.17525363E-01
  7.34599827E-01  7.52407686E-01  8.13104593E-01  8.37326419E-01  8.42049369E-01
  9.32879796E-01  9.77769143E-01  1.07836846E+00  1.11602274E+00  1.15075207E+00
  1.17999257E+00  1.19931112E+00  1.24882431E+00  1.33257345E+00  1.38808971E+00
  1.47754954E+00  1.51664852E+00  1.61112889E+00  1.64709861E+00  1.68013298E+00
  1.70391136E+00  1.71173040E+00  1.80894007E+00  1.85448255E+00  1.87203634E+00
  1.88120308E+00  1.99222788E+00  2.02391725E+00  2.14086677E+00  2.17414572E+00
  2.26403618E+00  2.26693604E+00  2.31877755E+00  2.33380444E+00  2.39217537E+00
  2.50475839E+00  2.61233484E+00  2.64388394E+00  2.78995473E+00  2.80945804E+00
  2.99993558E+00  3.11050928E+00  3.16586382E+00  3.32002973E+00  3.40959063E+00
  3.58576824E+00  3.82409619E+00
Alpha MO coefficients                      R   N=        8464
 -2.80878912E-04 -1.93531727E-04 -4.74657368E-02 -5.61541480E-03  8.77992511E-04
  3.21991645E-05  1.00786432E-04 -2.06294788E-02 -1.52870564E-03 -5.24837999E-03
 -1.21772258E-03 -1.18382440E-04 -2.40310012E-04  1.28051439E-03 -1.71383951E-05
  2.44356756E-03  1.51393674E-03 -1.00119413E-03 -7.73125435E-03  3.13806868E-04
  9.88040546E-01 -5.23834635E-02  8.96644383E-02  1.88869677E-02 -3.24641062E-04
  3.26919609E-05  1.28789623E-04 -3.22808660E-03 -3.41394920E-03 -1.26551358E-02
 -5.75635603E-04 -2.83776926E-04 -5.82993804E-04 -1.01283446E-03 -8.89449186E-05
  9.87567650E-04 -1.14448797E-02  2.64512020E-03  7.70727074E-03 -2.97595738E-03
  8.02757749E-04  1.34312393E-03 -3.72892164E-02  8.34927817E-03  4.55372759E-04
 -2.96167898E-04 -1.11390726E-03  7.07034782E-03 -3.70133242E-03 -1.39508472E-02
  7.95436657E-04 -9.60188707E-04  4.34421135E-04  1.47496867E-04 -2.55190235E-04
 -2.54486596E-03  1.70011210E-03 -9.87718996E-04  9.51314282E-04  4.65709899E-04
  5.05422020E-04 -1.00422604E-02  1.44088287E-04 -4.80157333E-05 -1.82131807E-04
  3.05463092E-03 -2.17492924E-04 -8.77604733E-04  1.02524490E-03  8.99573279E-03
  2.29886306E-04 -2.58080616E-05 -1.01304827E-04 -2.22150276E-03 -7.30743056E-04
 -2.67601623E-03  5.08829493E-04  5.26337107E-04  6.09768132E-04 -2.19419773E-05
 -9.50720503E-05 -1.74768269E-03  1.39682746E-04  5.58408612E-04  2.58138461E-03
 -6.31888030E-03 -1.23127202E-03 -6.26717867E-04 -2.30896047E-03  1.59311267E-03
  8.95454338E-04  3.30272891E-03 -5.50838920E-06  9.11009386E-07 -8.01537367E-03
 -1.00773823E-03  1.13439654E-04 -4.11904639E-05 -1.56064348E-04 -4.32398248E-03
 -1.52428163E-03 -5.58694929E-03 -1.28773485E-05 -4.64530763E-04 -5.44734020E-05
 -1.55236777E-04 -1.26531546E-04 -9.90249707E-04  4.93802160E-03 -8.32650257E-04
 -1.27927113E-03  1.30843107E-03 -2.77227152E-04  9.41367502E-04 -1.86318630E-02
 -1.38060676E-02 -6.58096084E-04  2.04560400E-04  7.76880587E-04 -4.53648904E-03
  1.48965332E-03  5.65183330E-03  8.82561676E-04 -1.30212121E-03  5.41817899E-04
  3.76076440E-04 -3.44084738E-04 -5.63130854E-03 -4.96189774E-03 -2.03927838E-03
  2.81527995E-03 -1.30145022E-03  9.88434405E-01 -4.79356137E-02  5.38105835E-02
  1.16662437E-02  7.97796024E-04  8.73664612E-04  3.23902386E-03 -7.44312938E-03
  1.89532923E-03  7.22715693E-03  3.63160283E-04 -4.34791427E-05 -1.86295556E-04
 -1.27233459E-03 -2.68937621E-05 -2.48675328E-03 -5.61382792E-03  9.60796262E-05
  4.77072271E-03 -1.45004421E-03  2.34305468E-03 -2.65864135E-02 -3.00998723E-03
 -2.26228586E-04 -7.77418519E-04  9.71175193E-03  1.26214360E-03  4.49206670E-03
  6.42266922E-04  8.59220789E-03 -9.01219373E-05  5.00523444E-05  1.88385271E-04
 -2.12604506E-03 -4.54724756E-04 -1.65106958E-03  6.92965104E-05 -6.45003717E-03
  4.83597602E-04  2.97450095E-07 -9.44688423E-06  1.10619951E-03 -6.34637320E-04
 -2.38814468E-03  1.51383672E-03  1.84190750E-02  1.82846497E-04  2.31912063E-05
  8.25124809E-05 -2.77420374E-03 -1.15106028E-03 -4.22917788E-03  9.87568023E-01
  6.21935298E-02 -7.95284535E-02 -2.17598490E-02  1.71126955E-03  8.58882440E-06
 -4.21330589E-06  2.81100267E-02 -6.46734341E-05 -8.61771485E-04  8.13648485E-04
  1.30747745E-04  9.71091248E-04  1.94695207E-03  5.95649001E-05 -1.48708461E-02
  1.79465882E-03 -6.75423116E-03  2.34998433E-03  4.98910027E-04  2.79259108E-05
  1.09183745E-03 -1.55969687E-02  1.03424186E-03 -3.34660907E-04  1.72269598E-05
  7.16472566E-05  1.76818771E-02 -8.81524147E-04 -3.67050121E-03  3.76002015E-04
 -2.49375455E-05 -1.81033206E-04 -1.27675800E-03 -2.19224043E-05  9.79954137E-03
  3.26503762E-03  2.20539040E-03 -9.42055178E-03  7.69282032E-04 -7.36979239E-06
 -1.97654853E-04 -9.18347389E-03 -3.04344928E-04 -1.99878344E-06  7.65809934E-05
  2.85511385E-04  2.74132051E-03  5.26302055E-05  1.36268404E-04 -6.81380164E-05
 -1.47792959E-04 -7.66517068E-06  9.49238515E-05 -3.85552094E-05  7.93099963E-04
  7.63756176E-04  6.03557653E-04  6.96359612E-04  2.13907784E-04 -1.27865125E-04
  8.93576732E-03 -3.26756509E-04  8.10389291E-05  3.09145200E-04 -3.98665252E-03
  3.66674058E-04  1.45392396E-03 -2.68573032E-03  6.03293026E-02 -1.20795129E-03
  4.97961637E-04  1.88321778E-03  9.75078421E-03 -2.39493058E-03 -9.14758521E-03
 -2.40176377E-03  5.20108516E-02 -1.42997192E-03 -4.94131600E-04 -1.81006979E-03
  1.22193803E-02  1.72999240E-03  6.17615404E-03 -6.11926376E-04 -1.38286496E-02
 -6.33346800E-04 -1.20338826E-04 -4.34763525E-04  4.48732649E-03  6.67630766E-04
  2.39045114E-03 -8.17105867E-02  1.53455777E-01 -2.02184250E-04  8.77183225E-03
  9.83431911E-02 -2.22579924E-03 -1.04430309E-02  3.18114104E-02 -6.31128227E-03
 -2.42236787E-02 -6.01163558E-03 -2.43155059E-03  3.51448466E-04  1.16842142E-02
 -5.14961159E-04 -8.02780058E-03 -1.97404218E-02 -1.81666787E-03  8.07555817E-03
 -5.20393961E-03  2.43037329E-01  4.99010790E-01  1.52929689E-01 -6.35131268E-02
 -2.00696636E-02  1.51163801E-02  5.67885664E-02  3.38375585E-02 -1.45373058E-02
 -5.49245121E-02  4.00345047E-03 -8.24946709E-03  4.93193500E-03  1.03181317E-02
 -2.08439550E-03 -6.35749850E-03 -5.03584418E-02 -2.23673415E-03  4.45935016E-03
 -1.34620666E-02  1.40728213E-01  2.77739634E-01  1.26223724E-03  2.10584960E-02
  4.91774058E-02 -3.22057052E-02 -1.21118075E-01 -2.11987644E-02 -2.28547110E-04
 -3.87200655E-04  8.70549003E-03 -1.01737268E-02  5.38728810E-03  3.79489076E-03
 -2.67660475E-03 -5.39642126E-04 -4.34897590E-03  4.69866446E-04  2.66208805E-03
 -1.13452331E-03  7.13708097E-02  1.79469070E-03 -1.20552670E-02  1.77498194E-04
  9.25088729E-04 -2.90466586E-03 -3.79425805E-04 -1.34963748E-03  2.18569505E-02
  1.05500198E-02  1.75748743E-03 -9.87938600E-04 -3.72173350E-03  1.15800899E-02
 -3.24795482E-04 -1.45958935E-03  2.19847911E-02  3.71759829E-02  3.22473075E-03
  9.68778081E-04  3.54003699E-03  7.92765013E-03  1.21924573E-03  4.36445648E-03
  1.27355204E-01  8.85767200E-02 -8.62920830E-03 -3.86828226E-03 -1.42305378E-02
 -6.18080091E-03 -5.45389758E-03 -2.01932161E-02  1.56228694E-01 -3.16463354E-01
 -2.46019788E-02  1.06084453E-02 -1.25674749E-01 -6.08877137E-03 -1.99605779E-02
 -2.20248908E-02  6.61381030E-03  2.51394971E-02  6.33088925E-03 -3.20759338E-03
 -7.24018425E-04 -1.33941072E-02 -1.01864143E-03  2.29989297E-02  4.77326729E-03
  1.09437439E-02 -2.08476791E-03  1.27243921E-03 -7.17251313E-02 -1.50126843E-01
 -6.33163172E-02  9.14929167E-02 -2.64637063E-01  4.92014020E-02  1.89177333E-01
  9.48025374E-02 -1.45363610E-02 -5.62593730E-02  6.14415712E-03 -8.27001794E-03
  1.84580730E-03 -4.06236426E-03 -2.26351170E-03 -8.32357240E-03  2.19992844E-02
  2.28165659E-03  2.17896740E-02  6.16084401E-03  1.78007176E-01  3.69657680E-01
  1.46734503E-01 -2.61420388E-02 -3.30864181E-02 -2.74392290E-02 -1.01553729E-01
 -9.79356694E-03  5.50714473E-03  2.07401772E-02  5.79719527E-03 -8.91440398E-04
  3.81052414E-03  3.16078637E-03 -1.96101352E-04  1.06582766E-02 -8.92829392E-03
 -9.61502256E-04 -2.15767949E-02 -2.64992982E-03  1.58644531E-01  3.16178818E-02
 -1.64174238E-02 -8.12746833E-04 -2.67045085E-03  4.36130273E-03 -1.73547959E-03
 -6.56435537E-03 -8.72507913E-02 -7.06604348E-02 -5.25547378E-03  2.47838331E-03
  9.35533383E-03 -1.96315475E-02  5.83399530E-04  2.60957276E-03 -6.14030337E-02
 -3.11988812E-02 -5.87315164E-03 -1.78328401E-03 -6.51782675E-03 -6.35813275E-03
  4.08031126E-04  1.66577621E-03 -8.39847215E-02 -6.24521557E-02  1.02509592E-02
  1.50195085E-03  5.37450560E-03 -2.60774293E-03  4.18220911E-03  1.56439754E-02
  1.40205843E-01 -3.01982171E-01 -1.16717283E-01  4.00487897E-02  2.53708040E-02
  2.55572336E-02  9.46829166E-02 -1.56718611E-02 -2.41065925E-02 -8.95184101E-02
 -2.70839989E-03  8.66766705E-03 -1.56901668E-03 -9.38529044E-04  2.31187576E-03
  6.69379096E-02 -4.02468205E-02  2.76848955E-02 -1.92480839E-02 -1.09826823E-02
  7.19041000E-02  1.54604961E-01  9.23722499E-02 -6.89107453E-02 -2.25447704E-01
 -8.29727710E-02 -3.04324860E-01  9.07386535E-02  2.68431879E-02  9.80594598E-02
  5.27448060E-03  6.84127613E-03  1.70680745E-03 -3.39424924E-03  1.79854366E-03
 -5.34236042E-02 -1.17960344E-01 -2.19924238E-02  1.92300149E-02 -3.14584511E-02
 -7.67705512E-02 -1.67030885E-01 -1.44684065E-01  4.20942858E-02 -5.38936979E-02
 -7.00785099E-03 -2.49392755E-02  3.75684481E-03 -6.26325467E-03 -2.34277941E-02
  8.02032394E-03  6.38958506E-03  2.37355813E-03 -5.83107256E-03  1.64958755E-03
 -1.45309573E-02 -1.95569613E-04 -9.39961452E-04  2.19194084E-02  2.03849230E-04
 -2.48984946E-02 -7.95768490E-02  2.18314414E-03  8.28049170E-04  3.03877441E-03
  2.14849242E-02 -3.89287623E-04 -1.92025525E-03 -7.34255377E-02 -4.90777967E-02
 -2.61082205E-03  2.15633880E-03  8.09578526E-03 -3.61068472E-03 -6.34861836E-03
 -2.35606510E-02 -1.71616964E-01 -9.03341578E-02 -7.09668776E-03 -3.10311779E-03
 -1.14092995E-02 -4.36821897E-02  5.37221898E-03  2.09774916E-02  3.44480933E-01
  2.52302108E-01 -9.98906033E-03 -5.66389015E-03 -2.08942955E-02 -1.66709183E-02
 -1.04825374E-02 -3.87081252E-02  1.05155461E-01 -1.98706895E-01  8.15509352E-02
  2.03117343E-02  1.73039410E-01 -3.45552737E-02 -1.32626168E-01  3.31881958E-02
  2.59367746E-02  9.59585547E-02 -8.66367264E-03 -5.38295055E-03 -3.08689588E-03
  4.45114426E-03 -1.39753860E-03  4.55699436E-02  7.84089267E-02  1.89995918E-02
 -1.50119562E-02  2.08868402E-02  8.03220691E-02  1.97289227E-01  1.45536454E-01
  4.93894922E-02  5.96096335E-02  5.96405850E-02  2.21018317E-01 -4.28058819E-02
 -2.56380634E-02 -9.46448964E-02  5.85435277E-03  2.44810326E-03  1.59257233E-03
 -4.68722564E-03  6.03878945E-04  3.56825930E-02  1.24651709E-01 -5.00911828E-05
 -6.49045107E-02  3.26800590E-02 -6.75288339E-02 -1.35113938E-01  1.51769182E-02
 -7.37101181E-02  2.90249874E-01 -1.56379184E-02 -6.46314631E-02 -5.98140276E-02
  1.90651283E-02  7.23648795E-02  5.58039139E-03 -1.84490336E-02  1.97716382E-03
 -2.39430454E-03 -4.97490250E-03  1.71800327E-02  1.55527365E-02  7.15607705E-03
 -5.36973536E-03  4.12061471E-03 -2.70637937E-01  2.22662924E-02  1.85439563E-02
  1.85740333E-03  6.51807885E-03 -2.77777295E-02  3.22329062E-04  1.80674094E-03
 -2.34920173E-01 -1.59483773E-01 -4.19431570E-03  3.64641343E-03  1.36868271E-02
 -6.02245306E-02  2.31913847E-03  9.95409391E-03 -8.75720415E-02 -9.81025044E-02
 -7.30207165E-04 -2.63913748E-03 -9.82078872E-03 -1.96273958E-03  1.70757524E-03
  6.43758864E-03 -9.93675242E-02 -2.32519086E-01  2.84964210E-03  8.20613919E-04
  2.99667628E-03  3.16290751E-02  1.20554851E-02  4.42387728E-02  3.95573766E-02
 -6.46677290E-02  3.80929381E-03  1.43669034E-02  3.48153718E-01  7.31403145E-03
  1.95907048E-02  1.07030937E-01 -2.30937653E-03 -1.09643623E-02 -1.39584038E-02
 -2.12832815E-03 -3.15325746E-03  1.33181334E-02 -4.20335862E-04  2.62747151E-02
  1.27841057E-02  1.19452387E-02 -4.49018483E-03  3.39463842E-03 -3.30342129E-03
 -4.83349781E-03 -3.80758907E-02 -7.78788861E-02  3.72968288E-01 -2.32543958E-02
 -9.47742115E-02 -1.27479433E-01  1.49201056E-02  5.83627078E-02 -7.41972377E-03
 -2.58218744E-03 -2.90250280E-03  2.87250917E-03 -6.64296747E-04  1.13755263E-02
  3.60836848E-03 -1.02673162E-03 -2.33379152E-02  6.91871563E-04  6.30504066E-02
  1.29089423E-01  1.17720687E-01  9.38401715E-03 -2.12991364E-01  4.23424717E-02
  1.62510579E-01  5.23350567E-02 -1.57523255E-02 -5.98728205E-02 -1.70455299E-02
  9.68500102E-03 -6.29878802E-03  7.50550313E-03  2.67639393E-03 -4.74045820E-04
 -1.15293030E-02 -3.33057459E-03 -1.04296766E-02 -3.22083903E-03  2.16663656E-01