0001_q000_m01_k00_opt_uwb97xd_def2svpd/0001_q000_m01_k00_force_ub3lyp_de
Force     UB3LYP                                                      Gen                 
Number of atoms                            I                7
Info1-9                                    I   N=           9
          13           9           0           0           0         100
           5          18        -502
Full Title                                 C   N=           8
0001_q000_m01_k00_opt_uwb97xd_def2svpd/0001_q000_m01_k00_for
ce_ub3lyp_def2svp stable-force      
Route                                      C   N=          15
#p ub3lyp/chkbasis force guess=read geom=check scf=(maxcycle
=900,verytightlineq,xqc) integral=grid=ultrafine symmetry=No
ne density=current pop=(cm5,hlygat,mbs,npa) output=wfx      
Charge                                     I                0
Multiplicity                               I                1
Number of electrons                        I               24
Number of alpha electrons                  I               12
Number of beta electrons                   I               12
Number of basis functions                  I               62
Number of independent functions            I               62
Number of point charges in /Mol/           I                0
Number of translation vectors              I                0
Atomic numbers                             I   N=           7
           6           7           7           1           1           1
           1
Nuclear charges                            R   N=           7
  6.00000000E+00  7.00000000E+00  7.00000000E+00  1.00000000E+00  1.00000000E+00
  1.00000000E+00  1.00000000E+00
Current cartesian coordinates              R   N=          21
  2.02695212E+00 -1.32657117E-01 -2.89151970E-01  4.49366243E+00 -1.69594780E-01
 -4.80718912E-01  5.82669740E+00 -6.96306974E-01 -2.47313900E+00  7.67994023E+00
 -5.53065660E-01 -1.97974669E+00  1.20935456E+00  3.49890902E-01  1.52789288E+00
  9.12820557E-01 -5.85776711E-01 -1.95345676E+00  5.41878558E+00  2.75672749E-01
  1.15865244E+00
Number of symbols in /Mol/                 I                0
Int Atom Types                             I   N=           7
           0           0           0           0           0           0
           0
Force Field                                I                0
Atom Types                                 C   N=           7
                                                            
                        
MM charges                                 R   N=           7
  0.00000000E+00  0.00000000E+00  0.00000000E+00  0.00000000E+00  0.00000000E+00
  0.00000000E+00  0.00000000E+00
Integer atomic weights                     I   N=           7
          12          14          14           1           1           1
           1
Real atomic weights                        R   N=           7
  1.20000000E+01  1.40030740E+01  1.40030740E+01  1.00782504E+00  1.00782504E+00
  1.00782504E+00  1.00782504E+00
Atom fragment info                         I   N=           7
           0           0           0           0           0           0
           0
Atom residue num                           I   N=           7
           0           0           0           0           0           0
           0
Nuclear spins                              I   N=           7
           0           2           2           1           1           1
           1
Nuclear ZEff                               R   N=           7
 -3.60000000E+00 -4.55000000E+00 -4.55000000E+00 -1.00000000E+00 -1.00000000E+00
 -1.00000000E+00 -1.00000000E+00
Nuclear ZNuc                               R   N=           7
  6.00000000E+00  7.00000000E+00  7.00000000E+00  1.00000000E+00  1.00000000E+00
  1.00000000E+00  1.00000000E+00
Nuclear QMom                               R   N=           7
  0.00000000E+00  2.04400000E+00  2.04400000E+00  0.00000000E+00  0.00000000E+00
  0.00000000E+00  0.00000000E+00
Nuclear GFac                               R   N=           7
  0.00000000E+00  4.03761000E-01  4.03761000E-01  2.79284600E+00  2.79284600E+00
  2.79284600E+00  2.79284600E+00
MicOpt                                     I   N=           7
          -1          -1          -1          -1          -1          -1
          -1
Number of residues                         I                0
Number of secondary structures             I                0
Number of contracted shells                I               30
Number of primitive shells                 I               56
Pure/Cartesian d shells                    I                0
Pure/Cartesian f shells                    I                0
Highest angular momentum                   I                2
Largest degree of contraction              I                5
Shell types                                I   N=          30
           0           0           0           1           1          -2
           0           0           0           1           1          -2
           0           0           0           1           1          -2
           0           0           1           0           0           1
           0           0           1           0           0           1
Number of primitives per shell             I   N=          30
           5           1           1           3           1           1
           5           1           1           3           1           1
           5           1           1           3           1           1
           3           1           1           3           1           1
           3           1           1           3           1           1
Shell to atom map                          I   N=          30
           1           1           1           1           1           1
           2           2           2           2           2           2
           3           3           3           3           3           3
           4           4           4           5           5           5
           6           6           6           7           7           7
Primitive exponents                        R   N=          56
  1.23840169E+03  1.86290050E+02  4.22511763E+01  1.16765579E+01  3.59305065E+00
  4.02451474E-01  1.30901827E-01  9.46809706E+00  2.01035451E+00  5.47710047E-01
  1.52686138E-01  8.00000000E-01  1.71284159E+03  2.57648127E+02  5.84582459E+01
  1.61983679E+01  5.00526008E+00  5.87318566E-01  1.87645923E-01  1.35714702E+01
  2.92573729E+00  7.99277508E-01  2.19543480E-01  1.00000000E+00  1.71284159E+03
  2.57648127E+02  5.84582459E+01  1.61983679E+01  5.00526008E+00  5.87318566E-01
  1.87645923E-01  1.35714702E+01  2.92573729E+00  7.99277508E-01  2.19543480E-01
  1.00000000E+00  1.30107010E+01  1.96225720E+00  4.44537960E-01  1.21949620E-01
  8.00000000E-01  1.30107010E+01  1.96225720E+00  4.44537960E-01  1.21949620E-01
  8.00000000E-01  1.30107010E+01  1.96225720E+00  4.44537960E-01  1.21949620E-01
  8.00000000E-01  1.30107010E+01  1.96225720E+00  4.44537960E-01  1.21949620E-01
  8.00000000E-01
Contraction coefficients                   R   N=          56
  5.51736505E-03  4.10888286E-02  1.82253821E-01  4.68284594E-01  4.45758173E-01
  1.00000000E+00  1.00000000E+00  5.68883320E-02  3.12940593E-01  7.60650165E-01
  1.00000000E+00  1.00000000E+00 -5.44779958E-03 -4.06271746E-02 -1.81119623E-01
 -4.68439756E-01 -4.46168463E-01  1.00000000E+00  1.00000000E+00 -5.88481170E-02
 -3.20246248E-01 -7.53282265E-01  1.00000000E+00  1.00000000E+00 -5.44779958E-03
 -4.06271746E-02 -1.81119623E-01 -4.68439756E-01 -4.46168463E-01  1.00000000E+00
  1.00000000E+00 -5.88481170E-02 -3.20246248E-01 -7.53282265E-01  1.00000000E+00
  1.00000000E+00  3.34854848E-02  2.34721871E-01  8.13770285E-01  1.00000000E+00
  1.00000000E+00  3.34854848E-02  2.34721871E-01  8.13770285E-01  1.00000000E+00
  1.00000000E+00  3.34854848E-02  2.34721871E-01  8.13770285E-01  1.00000000E+00
  1.00000000E+00  3.34854848E-02  2.34721871E-01  8.13770285E-01  1.00000000E+00
  1.00000000E+00
Coordinates of each shell                  R   N=          90
  2.02695212E+00 -1.32657117E-01 -2.89151970E-01  2.02695212E+00 -1.32657117E-01
 -2.89151970E-01  2.02695212E+00 -1.32657117E-01 -2.89151970E-01  2.02695212E+00
 -1.32657117E-01 -2.89151970E-01  2.02695212E+00 -1.32657117E-01 -2.89151970E-01
  2.02695212E+00 -1.32657117E-01 -2.89151970E-01  4.49366243E+00 -1.69594780E-01
 -4.80718912E-01  4.49366243E+00 -1.69594780E-01 -4.80718912E-01  4.49366243E+00
 -1.69594780E-01 -4.80718912E-01  4.49366243E+00 -1.69594780E-01 -4.80718912E-01
  4.49366243E+00 -1.69594780E-01 -4.80718912E-01  4.49366243E+00 -1.69594780E-01
 -4.80718912E-01  5.82669740E+00 -6.96306974E-01 -2.47313900E+00  5.82669740E+00
 -6.96306974E-01 -2.47313900E+00  5.82669740E+00 -6.96306974E-01 -2.47313900E+00
  5.82669740E+00 -6.96306974E-01 -2.47313900E+00  5.82669740E+00 -6.96306974E-01
 -2.47313900E+00  5.82669740E+00 -6.96306974E-01 -2.47313900E+00  7.67994023E+00
 -5.53065660E-01 -1.97974669E+00  7.67994023E+00 -5.53065660E-01 -1.97974669E+00
  7.67994023E+00 -5.53065660E-01 -1.97974669E+00  1.20935456E+00  3.49890902E-01
  1.52789288E+00  1.20935456E+00  3.49890902E-01  1.52789288E+00  1.20935456E+00
  3.49890902E-01  1.52789288E+00  9.12820557E-01 -5.85776711E-01 -1.95345676E+00
  9.12820557E-01 -5.85776711E-01 -1.95345676E+00  9.12820557E-01 -5.85776711E-01
 -1.95345676E+00  5.41878558E+00  2.75672749E-01  1.15865244E+00  5.41878558E+00
  2.75672749E-01  1.15865244E+00  5.41878558E+00  2.75672749E-01  1.15865244E+00
Num ILSW                                   I              100
ILSW                                       I   N=         100
           1           0           0           0           2           0
           0           0           0           0         402          -1
           5           0           0           0           2           0
           0           0           0           0           1           0
           1           1           0           0           0           0
           0           0      100000           0          -1           0
           0           0           0           0           0           0
           0           0           0           1           0           0
           0 -2000000000           1           0           0           0
           0           0           4          52           0           0
           0           0           5           0           0           0
           0           0           0           7           0           1
           0           0           0           0           0           0
           0           0           0           0           0           0
           0           0           0           0           0           0
           0           0           0           0           0           0
           0           0           0           0
Num RLSW                                   I               52
RLSW                                       R   N=          52
  8.00000000E-01  7.20000000E-01  1.00000000E+00  8.10000000E-01  2.00000000E-01
  0.00000000E+00  0.00000000E+00  1.00000000E+00  0.00000000E+00  0.00000000E+00
  0.00000000E+00  0.00000000E+00  1.00000000E+00  0.00000000E+00  0.00000000E+00
  0.00000000E+00  0.00000000E+00  1.00000000E+00  0.00000000E+00  0.00000000E+00
  0.00000000E+00  0.00000000E+00  1.00000000E+00  0.00000000E+00  0.00000000E+00
  0.00000000E+00  0.00000000E+00  1.00000000E+00  0.00000000E+00  0.00000000E+00
  0.00000000E+00  0.00000000E+00  1.00000000E+00  0.00000000E+00  0.00000000E+00
  0.00000000E+00  0.00000000E+00  0.00000000E+00  1.00000000E+00  1.00000000E+00
  0.00000000E+00  1.00000000E+00  0.00000000E+00  0.00000000E+00  0.00000000E+00
  0.00000000E+00  0.00000000E+00  0.00000000E+00  0.00000000E+00  0.00000000E+00
  0.00000000E+00  0.00000000E+00
MxBond                                     I                3
NBond                                      I   N=           7
           3           3           2           1           1           1
           1
IBond                                      I   N=          21
           2           5           6           1           3           7
           2           4           0           3           0           0
           1           0           0           1           0           0
           2           0           0
RBond                                      R   N=          21
  2.00000000E+00  1.00000000E+00  1.00000000E+00  2.00000000E+00  1.00000000E+00
  1.00000000E+00  1.00000000E+00  1.00000000E+00  0.00000000E+00  1.00000000E+00
  0.00000000E+00  0.00000000E+00  1.00000000E+00  0.00000000E+00  0.00000000E+00
  1.00000000E+00  0.00000000E+00  0.00000000E+00  1.00000000E+00  0.00000000E+00
  0.00000000E+00
Virial Ratio                               R      2.009403231629789E+00
SCF Energy                                 R     -1.498134125874407E+02
Total Energy                               R     -1.498134125874407E+02
S**2                                       R      1.065814103640150E-14
S**2 after annihilation                    R     -1.296740492762208E-12
RMS Force                                  R      4.311214878796861E-03
RMS Density                                R      2.191051934235319E-09
Job Status                                 I                1
Nuclear derivative order                   I                1
External E-field                           R   N=          35
  0.00000000E+00  0.00000000E+00  0.00000000E+00  0.00000000E+00  0.00000000E+00
  0.00000000E+00  0.00000000E+00  0.00000000E+00  0.00000000E+00  0.00000000E+00
  0.00000000E+00  0.00000000E+00  0.00000000E+00  0.00000000E+00  0.00000000E+00
  0.00000000E+00  0.00000000E+00  0.00000000E+00  0.00000000E+00  0.00000000E+00
  0.00000000E+00  0.00000000E+00  0.00000000E+00  0.00000000E+00  0.00000000E+00
  0.00000000E+00  0.00000000E+00  0.00000000E+00  0.00000000E+00  0.00000000E+00
  0.00000000E+00  0.00000000E+00  0.00000000E+00  0.00000000E+00  0.00000000E+00
IOpCl                                      I                1
IROHF                                      I                0
Alpha Orbital Energies                     R   N=          62
 -1.44437831E+01 -1.43011929E+01 -1.02027755E+01 -1.02460465E+00 -7.96333927E-01
 -6.36580389E-01 -5.57361592E-01 -4.78297753E-01 -4.25709226E-01 -4.12061748E-01
 -2.68402455E-01 -1.89878847E-01 -9.95467975E-03  2.26279333E-02  1.01890260E-01
  1.16112970E-01  1.41726368E-01  2.45899959E-01  3.37270391E-01  4.33526314E-01
  4.73244292E-01  4.95474730E-01  5.16582510E-01  5.81874874E-01  6.40532475E-01
  6.69017227E-01  6.74728098E-01  7.39269891E-01  7.74164680E-01  8.00329773E-01
  8.15145649E-01  9.37365328E-01  9.64115070E-01  1.05160024E+00  1.18428191E+00
  1.25841818E+00  1.27916559E+00  1.38794119E+00  1.50895821E+00  1.51230715E+00
  1.64497809E+00  1.65476648E+00  1.81569260E+00  1.87710243E+00  1.95493356E+00
  2.00006024E+00  2.02385381E+00  2.11160208E+00  2.16861841E+00  2.24895378E+00
  2.32375249E+00  2.45014044E+00  2.45161992E+00  2.55434696E+00  2.70925808E+00
  2.86445909E+00  2.89210681E+00  2.92731351E+00  3.07916387E+00  3.16809169E+00
  3.37104852E+00  3.59810178E+00
Beta Orbital Energies                      R   N=          62
 -1.44437831E+01 -1.43011929E+01 -1.02027755E+01 -1.02460465E+00 -7.96333927E-01
 -6.36580389E-01 -5.57361592E-01 -4.78297753E-01 -4.25709226E-01 -4.12061748E-01
 -2.68402455E-01 -1.89878847E-01 -9.95467975E-03  2.26279333E-02  1.01890260E-01
  1.16112970E-01  1.41726368E-01  2.45899959E-01  3.37270391E-01  4.33526314E-01
  4.73244292E-01  4.95474730E-01  5.16582510E-01  5.81874874E-01  6.40532475E-01
  6.69017227E-01  6.74728098E-01  7.39269891E-01  7.74164680E-01  8.00329773E-01
  8.15145649E-01  9.37365328E-01  9.64115070E-01  1.05160024E+00  1.18428191E+00
  1.25841818E+00  1.27916559E+00  1.38794119E+00  1.50895821E+00  1.51230715E+00
  1.64497809E+00  1.65476648E+00  1.81569260E+00  1.87710243E+00  1.95493356E+00
  2.00006024E+00  2.02385381E+00  2.11160208E+00  2.16861841E+00  2.24895378E+00
  2.32375249E+00  2.45014044E+00  2.45161992E+00  2.55434696E+00  2.70925808E+00
  2.86445909E+00  2.89210681E+00  2.92731351E+00  3.07916387E+00  3.16809169E+00
  3.37104852E+00  3.59810178E+00
Alpha MO coefficients                      R   N=        3844
 -4.42570151E-04  1.47585425E-03 -1.40049484E-02  1.81258488E-03 -1.22039892E-05
 -8.50619791E-05 -5.55749963E-03  8.29452302E-04  3.21265395E-03 -1.17725263E-03
  3.19723190E-05 -8.88841374E-05  1.73073896E-03  2.87193523E-05  9.88287121E-01
 -4.55800608E-02  3.42508216E-02 -1.83709774E-04  1.67165359E-04  6.26894008E-04
 -3.98141589E-03 -1.31039142E-03 -4.79730889E-03 -8.92543335E-04 -3.24686372E-04
 -8.00899340E-04 -1.21663841E-03 -1.02652943E-04  5.26751654E-04  1.28324316E-03
 -7.27461181E-03  7.46301491E-04 -3.75823199E-04 -1.41718133E-03  1.96360433E-03
 -5.08587920E-04 -1.93870587E-03  1.19668565E-03 -1.25739898E-03  6.95866439E-04
  3.63812102E-04 -3.31985566E-04  2.33026911E-04 -2.43588913E-04  9.97525835E-05
 -3.56226188E-05 -1.34953486E-04  9.74943828E-06  3.35283035E-04  2.79512079E-04
  6.20315579E-06  1.71477810E-05  7.76532057E-04  2.49991415E-03  2.18926339E-04
 -5.29521048E-05 -2.02138075E-04  3.79802896E-03 -2.86829405E-03 -1.83319884E-03
 -8.45836269E-04 -3.11247824E-03  7.28406209E-07  4.87709733E-04 -1.61157965E-03
  3.68970980E-05 -5.78438239E-05 -2.16458309E-04 -1.68250401E-03  1.25099186E-03
  4.70001913E-03 -3.14573763E-05 -3.90556776E-05 -1.10686729E-04 -3.27278332E-04
 -1.44834897E-05  1.83604011E-04  1.19279326E-03 -2.28269483E-03 -9.07194621E-04
  2.69908294E-04  1.02589291E-03 -1.44136644E-03 -7.17706148E-04 -2.64368722E-03
  1.01570830E-03 -1.71358754E-03  6.55725044E-04  5.49118402E-04 -4.52270405E-04
  9.88756871E-01 -4.18718684E-02  1.87765763E-02  1.52938708E-03  9.40630907E-04
  3.47260925E-03 -4.52355453E-04  6.18605386E-04  2.31560787E-03  2.95446035E-04
  1.39040839E-04 -3.15543255E-04 -1.60637652E-03  1.79563970E-05  3.54240213E-03
 -4.44919267E-03 -3.47753878E-03 -3.43171770E-04 -1.20308020E-03 -8.74381230E-04
 -2.33601864E-03  4.60508031E-05  2.43233866E-05  8.97932792E-05  1.16684864E-03
  1.21197608E-03  1.88469219E-04 -1.82769154E-05 -7.23591834E-05  1.18916048E-03
  9.82583970E-04 -1.81503572E-04  1.70147303E-05  6.74367020E-05  9.88074402E-01
  4.94058946E-02 -1.64511126E-02  1.07742354E-03  1.68183488E-05  4.05513050E-05
  6.82590551E-03  3.36665165E-04  1.10474338E-03  1.55695339E-03  1.74512691E-04
  1.46493781E-03  2.36688979E-03  7.70448109E-05 -1.51145165E-04 -9.38897919E-04
 -6.08999343E-03 -1.04567368E-03  9.81051318E-06  5.94101016E-05  1.16381531E-02
 -7.87783728E-04 -3.19036896E-03  3.54554348E-04  1.10890943E-04 -2.54211207E-04
 -1.49592744E-03  1.18393772E-05  1.25528078E-05 -6.85078755E-05 -4.37283517E-03
 -1.25269318E-04 -1.02367625E-05 -3.54356646E-05 -1.49016058E-03 -7.57730731E-04
 -2.79196420E-03 -3.68077494E-04 -2.53657966E-04 -1.31901876E-04  1.87171547E-04
 -6.60693193E-05  7.45114401E-04  1.81216858E-04  2.73627526E-04 -1.03516848E-04
 -3.91814056E-04 -5.23429043E-03  5.67940730E-03 -1.58122483E-03  6.81226053E-04
  2.57473010E-03 -4.55346427E-03  6.96073666E-03 -1.94255358E-03 -6.30153941E-04
 -2.30579986E-03  2.49816351E-04  1.26151144E-04 -1.52341531E-03  9.28871479E-05
  3.79457202E-04 -8.08520915E-02  1.53013220E-01  2.82142298E-02  9.93431100E-02
 -2.18686696E-03 -1.03199242E-02  1.86158099E-02  5.85049464E-03  2.14006870E-02
 -6.24045340E-03 -1.27542437E-03  2.26790768E-04  1.16225552E-02 -2.05658627E-04
  2.43583386E-01  5.00473575E-01  1.76866755E-01 -2.20246927E-02  1.49585843E-02
  5.62427559E-02  2.51934986E-02 -1.09752621E-02 -4.14592507E-02  3.44283941E-03
 -9.18080594E-03  4.72390161E-03  1.05918670E-02 -2.33143042E-03  1.40798582E-01
  2.77970819E-01  5.94915411E-02  4.87506510E-02 -3.30293614E-02 -1.24179146E-01
 -8.46085776E-03  3.90521062E-03  1.47401786E-02  9.15730636E-03 -9.93878796E-03
  5.56997247E-03  3.63868333E-03 -2.61507931E-03  6.86217061E-02  4.80857658E-03
 -1.20842431E-02  4.31926909E-04  1.87427898E-03  1.77795639E-02 -7.52113527E-03
  2.64985042E-03 -1.06428033E-03 -4.02553548E-03  2.44374109E-02  1.26360361E-02
  3.03070351E-03  9.01430974E-04  3.29298395E-03  1.21711557E-01  1.99064510E-03
 -1.01617265E-02 -4.03319070E-03 -1.48104229E-02  1.53484320E-01 -2.94597023E-01
 -5.46664643E-02 -1.27382556E-01 -6.37261379E-03 -2.09812548E-02 -1.34241492E-02
 -2.38412027E-03 -8.59235730E-03  6.66803512E-03 -3.60093801E-03 -7.45934222E-04
 -1.40450272E-02 -1.13182214E-03 -7.31200709E-02 -1.51186974E-01 -5.20256413E-02
 -2.65279434E-01  4.99911550E-02  1.92135278E-01  1.06999667E-01 -1.63791170E-02
 -6.33931148E-02  6.35540421E-03 -8.47691788E-03  2.08407105E-03 -3.59960872E-03
 -2.31315267E-03  1.77471381E-01  3.65526773E-01  1.28754199E-01 -3.50452753E-02
 -2.86994519E-02 -1.06207984E-01  4.21635157E-03  2.98787140E-03  1.10452130E-02
  5.88398267E-03 -5.19949329E-04  3.67741026E-03  2.54129802E-03 -1.03876102E-04
  1.52991849E-01  1.84688834E-02 -1.82456590E-02 -3.75093532E-04 -9.99166977E-04
 -8.05324253E-02 -1.08076493E-02 -5.22869574E-03  2.51731227E-03  9.49963651E-03
 -5.77951314E-02 -1.08661525E-02 -5.05463764E-03 -1.99109360E-03 -7.31043247E-03
 -8.48217463E-02 -1.10565940E-02  1.26565366E-02  1.35213872E-03  4.76285176E-03
  1.39346655E-01 -2.80751932E-01 -7.51462004E-02  1.77754670E-02  2.49614815E-02
  9.26289244E-02  2.28464849E-02  8.49739056E-03  3.11704528E-02 -3.25236382E-03
  1.07952847E-02 -1.98604503E-03 -1.48828855E-03  2.87575552E-03  6.79607898E-02
  1.47241960E-01  4.63854705E-02 -2.31346285E-01 -8.40188142E-02 -3.08096944E-01
  9.08801567E-02  2.79559383E-02  1.02209885E-01  4.40567230E-03  5.89441030E-03
  9.85464049E-04 -4.36087144E-03  1.53186494E-03 -7.45458249E-02 -1.59351887E-01
 -7.98708540E-02 -5.52866654E-02 -5.35306550E-03 -1.87410256E-02  2.73438911E-02
  5.96828988E-03  2.16469944E-02  9.23933977E-03  7.20131432E-03  2.91064885E-03
 -6.10369899E-03  1.86498395E-03 -2.55440735E-02 -5.31499188E-03  2.09945291E-03
  1.17819503E-03  4.34555591E-03 -7.49570337E-02 -2.20864544E-02 -1.76316042E-03
  2.28074326E-03  8.54098763E-03 -1.53517117E-01 -2.26868261E-02 -7.68933661E-03
 -3.13197745E-03 -1.15045938E-02  3.29251849E-01  6.30367566E-02 -1.16853767E-02
 -6.52702413E-03 -2.40718201E-02  1.07846116E-01 -2.19850625E-01 -1.03264584E-01
  1.60753830E-01 -3.36936488E-02 -1.29144724E-01  4.02556831E-02 -8.99200324E-03
 -3.44052713E-02 -9.18752201E-03 -6.99387488E-03 -3.07538064E-03  5.43531525E-03
 -1.81786267E-03  8.14953165E-02  1.93744017E-01  1.23967360E-01  4.61666638E-02
  5.88682448E-02  2.18434205E-01 -1.68876345E-02 -2.91743265E-02 -1.08386416E-01
  6.73363213E-03  3.63415234E-03  1.70763218E-03 -5.84048816E-03  9.08818594E-04
 -6.77891144E-02 -1.35169998E-01 -1.16283720E-01  2.91729563E-01 -1.63937553E-02
 -6.74809176E-02 -8.32187710E-02  2.75525721E-03  1.20884730E-02  5.57095382E-03
 -1.91557193E-02  1.91541001E-03 -2.57491658E-03 -5.16664746E-03 -2.65650325E-01
 -7.16757263E-02  1.89937644E-02  1.41316274E-03  4.85190704E-03 -2.22519240E-01
 -5.78927244E-02 -5.54773619E-03  3.48719202E-03  1.31228279E-02 -9.13213867E-02
 -2.04845140E-02 -1.04498606E-03 -2.56225109E-03 -9.52770948E-03 -8.33791715E-02
 -2.51385466E-02  3.34065574E-03  1.22351155E-03  4.48641958E-03  4.27771005E-02
 -7.54105727E-02 -5.39356394E-02  3.48232136E-01  4.44323412E-03  8.89007524E-03
  1.08418089E-01  1.33717230E-03  2.59412127E-03 -1.49505614E-02 -1.79749634E-03
 -3.48418379E-03  1.38837974E-02 -3.25157541E-04 -9.20314593E-04 -2.90484208E-04
 -3.75660854E-02  3.69504373E-01 -2.29251827E-02 -9.34715760E-02 -1.30404143E-01
  1.24960679E-02  4.93937019E-02 -7.36533810E-03 -2.59842219E-03 -3.03024734E-03
  2.33645317E-03 -6.75109560E-04  5.87455506E-02  1.17929033E-01  1.06307199E-01
 -2.13453730E-01  4.00056078E-02  1.53808088E-01  6.01215782E-02 -1.74685579E-02
 -6.64383358E-02 -1.76428433E-02  9.60246329E-03 -6.57985033E-03  7.56992412E-03
  2.65451683E-03  2.13545490E-01  7.53600100E-02 -1.13276759E-02 -2.73901403E-03
 -9.96260096E-03 -1.55822455E-01 -5.07680064E-02  8.70783228E-04  2.75946738E-03
  1.02677436E-02 -1.92985825E-01 -5.67072118E-02 -1.86063054E-03 -3.14161739E-03
 -1.16689958E-02 -9.19255840E-02 -4.00510617E-02 -8.24704592E-03  2.20545304E-03
  8.39848009E-03  7.28886073E-06 -1.58968746E-05 -8.43155387E-06  1.23715712E-03
 -2.07616064E-01  5.57407961E-02  5.86659588E-04 -9.81687730E-02  2.63437901E-02
 -4.69221258E-04  5.85411641E-03  9.70290082E-04 -1.44022686E-05 -2.18496639E-02
  2.81675478E-06  7.53902432E-06 -1.75609803E-06 -2.88316303E-03  4.93654218E-01
 -1.32429476E-01  1.86791658E-03 -3.19335324E-01  8.56754654E-02 -3.12475160E-03
 -3.66008102E-04  6.23970309E-03 -1.81862651E-03  1.19933896E-03  2.93949186E-06
  7.09371585E-06  1.03524669E-05 -1.38423001E-03  2.37468961E-01 -6.37093376E-02
  7.58472936E-04 -1.29975571E-01  3.48718616E-02  1.00401123E-02 -1.77185730E-03
 -2.00630768E-02  5.71392487E-03  7.10778056E-03 -5.31459850E-06 -3.04723673E-06
  5.61186397E-05 -9.50005758E-03  2.54852462E-03  2.55396081E-05  1.44723436E-05
  3.32043399E-05 -5.42628645E-03  1.45511909E-03 -3.92275370E-05 -1.64071075E-05
  2.91139738E-05 -5.15441272E-03  1.38169159E-03 -1.74214327E-05 -7.59765778E-06
  9.74839672E-05 -1.66298796E-02  4.46285419E-03  9.34779790E-03 -2.75636905E-02
 -1.90698010E-02  4.22181635E-02  1.09617023E-01  4.07602341E-01  2.52984767E-02
  2.69783948E-02  9.99676189E-02  2.71094848E-03 -1.56162178E-02  8.19198033E-04
 -1.48606627E-03 -4.20359213E-03  1.82842988E-04  9.80522734E-03 -4.47618428E-02
  1.15863495E-02  3.58358509E-02  1.33518253E-01 -3.49724426E-02 -1.32069220E-04
  1.43436954E-04  5.07398018E-03 -1.87280541E-02  1.44209691E-03 -3.35664608E-03
 -5.06164271E-03  2.69283616E-02  6.47441615E-02  1.14151284E-01  1.40205218E-01
 -1.03832984E-02 -4.16667886E-02 -6.08573757E-02  9.95395452E-03  3.83751812E-02
  2.08720864E-03 -9.42849193E-03  7.11773516E-04 -9.41621211E-04 -2.54031069E-03
 -9.90791019E-02 -5.49747590E-02  5.51870169E-03  1.24024355E-04  3.37587689E-04
  3.17229278E-01  1.61022929E-01  1.10732347E-02 -1.80624504E-03 -6.98170324E-03
 -3.28938687E-01 -1.37978130E-01 -1.13212796E-02 -2.04681372E-03 -7.38006768E-03
 -1.37349194E-01 -5.58056984E-02  6.15372389E-04  1.88397592E-03  7.00154316E-03
  3.01863128E-02 -9.52473662E-02 -9.47206926E-02 -8.30941357E-02  5.68431438E-04
  3.94077442E-03  4.26850729E-03 -1.43965549E-03 -5.46545373E-03  2.51882741E-03
  7.22611633E-03  1.19382450E-03 -4.03015549E-04  1.93590438E-03 -3.48462967E-02
 -8.91052453E-02 -1.21923886E-01 -1.82805994E-02 -4.00357921E-02 -1.48831821E-01
 -6.42301631E-02  1.93419621E-02  7.35055402E-02  2.20316778E-02  1.34671661E-02
  6.64196555E-03 -1.55000043E-02  3.44187673E-03  1.24460011E-01  2.45900831E-01
  4.69294170E-01  2.44687132E-01  1.13793562E-01  4.18802219E-01 -1.49907211E-01
 -7.02078169E-02 -2.58414842E-01 -1.48565067E-02 -1.14571653E-02 -8.81195617E-03
 -4.48020604E-03 -3.14033402E-03 -2.20997891E-01 -1.28432018E-01  9.83759331E-03
 -4.27250037E-03 -1.61403247E-02 -1.72639815E-03  2.86065563E-02 -1.29662245E-03
 -3.05957713E-04 -1.11228507E-03  3.24545278E-02  8.88534627E-02  1.23351831E-03
 -2.10947744E-05 -1.05468965E-04  1.94916348E-01  1.32642113E-01 -6.54707279E-03
 -4.30673141E-04 -1.46142781E-03 -7.16116430E-06  1.59835210E-05  1.87813126E-05
 -2.36309423E-03  4.01271891E-01 -1.07646109E-01 -2.07309791E-03  3.51708377E-01
 -9.43431051E-02 -1.20963676E-03 -2.98443024E-03  2.39914738E-03 -8.28076208E-04
  1.10632722E-02 -1.80649552E-06 -5.02872410E-06  2.32703200E-06  2.87284776E-04
 -4.97504462E-02  1.33483715E-02 -7.45772072E-05  1.27564140E-02 -3.42629261E-03
 -9.35476889E-03  8.25525323E-03  1.87317024E-02 -5.03487992E-03 -3.12434834E-02
  9.02088360E-07  2.09627329E-06  7.57420680E-07 -2.60630190E-03  4.44604050E-01
 -1.19280968E-01  2.24229361E-03 -3.82246758E-01  1.02549863E-01  8.61354699E-03
  1.16546799E-03 -1.71957302E-02  5.01904064E-03 -3.90950821E-03 -1.59504717E-06
 -2.40702440E-06  1.25593219E-04 -2.14149189E-02  5.74536036E-03 -7.12231362E-06
 -8.66819623E-06 -8.90571015E-05  1.50595355E-02 -4.03935043E-03 -6.00566476E-06
  1.92032271E-06 -7.33772016E-05  1.24594421E-02 -3.34296784E-03 -4.44726309E-07
  1.12738155E-06 -2.86299730E-05  4.82826889E-03 -1.29535409E-03  8.63150282E-06
 -1.64568629E-05 -6.42248125E-05  2.12394832E-03 -3.59599872E-01  9.64655963E-02
  2.92521598E-03 -4.94170583E-01  1.32566953E-01 -7.51415843E-05 -5.20445362E-03
  1.20408397E-04 -2.71016463E-04  1.93923954E-02 -3.14937679E-07  1.12030744E-06
 -1.69745461E-05  2.53878281E-03 -4.31566048E-01  1.15788582E-01 -2.91137572E-03
  4.96063656E-01 -1.33097980E-01 -6.93162760E-03 -2.39694770E-03  1.38302430E-02
 -4.10306825E-03  8.58724550E-03 -1.55144368E-06 -2.73627279E-06 -1.54019229E-05
 -1.93843266E-03  3.30393524E-01 -8.86398058E-02  2.23128574E-03 -3.80373239E-01
  1.02046016E-01 -7.86477773E-04  2.71032223E-03  1.58603537E-03 -3.34576128E-04
 -1.01417396E-02  4.33245357E-06  1.08405750E-05  9.85241075E-05 -1.67823501E-02
  4.50256898E-03  1.79920687E-05  3.74277181E-05  1.09445177E-04 -1.86595764E-02
  5.00542433E-03  1.13375111E-05  2.68211622E-05  1.09903236E-04 -1.86386028E-02
  5.00049924E-03  8.13465949E-06  1.83644048E-05 -1.47641862E-04  2.51523790E-02
 -6.74793308E-03  2.55481926E-02 -4.68540320E-02 -3.22506749E-01  6.30552025E-02
 -2.32337346E-02 -8.80298225E-02  1.70090125E-01 -6.85646749E-02 -2.59402489E-01
  6.00271970E-03 -1.24891125E-02  1.95388942E-03 -3.34592886E-03 -3.38751515E-03
 -7.39915152E-02 -1.33912229E-01 -8.87338789E-01  1.24258229E-01  6.33776865E-02
  2.33469478E-01 -1.74096638E-01 -9.42714097E-02 -3.47496094E-01  3.75860637E-03
  1.43016328E-02  9.30362005E-04 -3.62472571E-03  3.79548228E-03 -4.42740363E-02
 -7.99060953E-02 -4.06030243E-01  1.05058858E-01 -3.91796313E-03 -1.68761282E-02