0001_q000_m01_k00_opt_uwb97xd_def2svpd/0001_q000_m01_k00_force_ub3lyp_de
Force     UB3LYP                                                      Gen                 
Number of atoms                            I                7
Info1-9                                    I   N=           9
          13           9           0           0           0         100
           5          18        -502
Full Title                                 C   N=           8
0001_q000_m01_k00_opt_uwb97xd_def2svpd/0001_q000_m01_k00_for
ce_ub3lyp_def2tzvpd stable-force    
Route                                      C   N=          15
#p ub3lyp/chkbasis force guess=read geom=check scf=(maxcycle
=900,verytightlineq,xqc) integral=grid=ultrafine symmetry=No
ne density=current pop=(cm5,hlygat,mbs,npa) output=wfx      
Charge                                     I                0
Multiplicity                               I                1
Number of electrons                        I               24
Number of alpha electrons                  I               12
Number of beta electrons                   I               12
Number of basis functions                  I              147
Number of independent functions            I              147
Number of point charges in /Mol/           I                0
Number of translation vectors              I                0
Atomic numbers                             I   N=           7
           6           7           7           1           1           1
           1
Nuclear charges                            R   N=           7
  6.00000000E+00  7.00000000E+00  7.00000000E+00  1.00000000E+00  1.00000000E+00
  1.00000000E+00  1.00000000E+00
Current cartesian coordinates              R   N=          21
  2.02695212E+00 -1.32657117E-01 -2.89151970E-01  4.49366243E+00 -1.69594780E-01
 -4.80718912E-01  5.82669740E+00 -6.96306974E-01 -2.47313900E+00  7.67994023E+00
 -5.53065660E-01 -1.97974669E+00  1.20935456E+00  3.49890902E-01  1.52789288E+00
  9.12820557E-01 -5.85776711E-01 -1.95345676E+00  5.41878558E+00  2.75672749E-01
  1.15865244E+00
Number of symbols in /Mol/                 I                0
Int Atom Types                             I   N=           7
           0           0           0           0           0           0
           0
Force Field                                I                0
Atom Types                                 C   N=           7
                                                            
                        
MM charges                                 R   N=           7
  0.00000000E+00  0.00000000E+00  0.00000000E+00  0.00000000E+00  0.00000000E+00
  0.00000000E+00  0.00000000E+00
Integer atomic weights                     I   N=           7
          12          14          14           1           1           1
           1
Real atomic weights                        R   N=           7
  1.20000000E+01  1.40030740E+01  1.40030740E+01  1.00782504E+00  1.00782504E+00
  1.00782504E+00  1.00782504E+00
Atom fragment info                         I   N=           7
           0           0           0           0           0           0
           0
Atom residue num                           I   N=           7
           0           0           0           0           0           0
           0
Nuclear spins                              I   N=           7
           0           2           2           1           1           1
           1
Nuclear ZEff                               R   N=           7
 -3.60000000E+00 -4.55000000E+00 -4.55000000E+00 -1.00000000E+00 -1.00000000E+00
 -1.00000000E+00 -1.00000000E+00
Nuclear ZNuc                               R   N=           7
  6.00000000E+00  7.00000000E+00  7.00000000E+00  1.00000000E+00  1.00000000E+00
  1.00000000E+00  1.00000000E+00
Nuclear QMom                               R   N=           7
  0.00000000E+00  2.04400000E+00  2.04400000E+00  0.00000000E+00  0.00000000E+00
  0.00000000E+00  0.00000000E+00
Nuclear GFac                               R   N=           7
  0.00000000E+00  4.03761000E-01  4.03761000E-01  2.79284600E+00  2.79284600E+00
  2.79284600E+00  2.79284600E+00
MicOpt                                     I   N=           7
          -1          -1          -1          -1          -1          -1
          -1
Number of residues                         I                0
Number of secondary structures             I                0
Number of contracted shells                I               59
Number of primitive shells                 I               94
Pure/Cartesian d shells                    I                0
Pure/Cartesian f shells                    I                0
Highest angular momentum                   I                3
Largest degree of contraction              I                6
Shell types                                I   N=          59
           0           0           0           0           0           0
           1           1           1          -2          -2          -2
          -3           0           0           0           0           0
           0           1           1           1          -2          -2
          -2          -3           0           0           0           0
           0           0           1           1           1          -2
          -2          -2          -3           0           0           0
           1           1           0           0           0           1
           1           0           0           0           1           1
           0           0           0           1           1
Number of primitives per shell             I   N=          59
           6           2           1           1           1           1
           4           1           1           1           1           1
           1           6           2           1           1           1
           1           4           1           1           1           1
           1           1           6           2           1           1
           1           1           4           1           1           1
           1           1           1           3           1           1
           1           1           3           1           1           1
           1           3           1           1           1           1
           3           1           1           1           1
Shell to atom map                          I   N=          59
           1           1           1           1           1           1
           1           1           1           1           1           1
           1           2           2           2           2           2
           2           2           2           2           2           2
           2           2           3           3           3           3
           3           3           3           3           3           3
           3           3           3           4           4           4
           4           4           5           5           5           5
           5           6           6           6           6           6
           7           7           7           7           7
Primitive exponents                        R   N=          94
  1.35753497E+04  2.03523337E+03  4.63225624E+02  1.31200196E+02  4.28530159E+01
  1.55841858E+01  6.20671385E+00  2.57648965E+00  5.76963394E-01  2.29728314E-01
  9.51644400E-02  4.84754014E-02  3.46972322E+01  7.95826228E+00  2.37808269E+00
  8.14332082E-01  2.88875473E-01  1.00568237E-01  1.09700000E+00  3.18000000E-01
  9.09853364E-02  7.61000000E-01  1.97308006E+04  2.95789587E+03  6.73221336E+02
  1.90682495E+02  6.22954419E+01  2.26541612E+01  8.97914774E+00  3.68630024E+00
  8.46600768E-01  3.36471338E-01  1.36476537E-01  6.84416058E-02  4.92003805E+01
  1.13467905E+01  3.42739724E+00  1.17855251E+00  4.16422050E-01  1.42608260E-01
  1.65400000E+00  4.69000000E-01  1.28296421E-01  1.09300000E+00  1.97308006E+04
  2.95789587E+03  6.73221336E+02  1.90682495E+02  6.22954419E+01  2.26541612E+01
  8.97914774E+00  3.68630024E+00  8.46600768E-01  3.36471338E-01  1.36476537E-01
  6.84416058E-02  4.92003805E+01  1.13467905E+01  3.42739724E+00  1.17855251E+00
  4.16422050E-01  1.42608260E-01  1.65400000E+00  4.69000000E-01  1.28296421E-01
  1.09300000E+00  3.40613410E+01  5.12357460E+00  1.16466260E+00  3.27230410E-01
  1.03072410E-01  8.00000000E-01  9.57741296E-02  3.40613410E+01  5.12357460E+00
  1.16466260E+00  3.27230410E-01  1.03072410E-01  8.00000000E-01  9.57741296E-02
  3.40613410E+01  5.12357460E+00  1.16466260E+00  3.27230410E-01  1.03072410E-01
  8.00000000E-01  9.57741296E-02  3.40613410E+01  5.12357460E+00  1.16466260E+00
  3.27230410E-01  1.03072410E-01  8.00000000E-01  9.57741296E-02
Contraction coefficients                   R   N=          94
  6.06455036E-04  4.69790889E-03  2.43324776E-02  9.73999683E-02  3.01955843E-01
  6.62336091E-01  6.55953085E-01  3.75856333E-01  1.00000000E+00  1.00000000E+00
  1.00000000E+00  1.00000000E+00  1.13272200E-02  7.61696592E-02  3.01922522E-01
  7.27850273E-01  1.00000000E+00  1.00000000E+00  1.00000000E+00  1.00000000E+00
  1.00000000E+00  1.00000000E+00  5.86264026E-04  4.54288206E-03  2.35584135E-02
  9.47091933E-02  2.97197849E-01  6.69162469E-01  6.45966836E-01  3.87005744E-01
  1.00000000E+00  1.00000000E+00  1.00000000E+00  1.00000000E+00  1.14488251E-02
  7.84223380E-02  3.08180947E-01  7.20271964E-01  1.00000000E+00  1.00000000E+00
  1.00000000E+00  1.00000000E+00  1.00000000E+00  1.00000000E+00  5.86264026E-04
  4.54288206E-03  2.35584135E-02  9.47091933E-02  2.97197849E-01  6.69162469E-01
  6.45966836E-01  3.87005744E-01  1.00000000E+00  1.00000000E+00  1.00000000E+00
  1.00000000E+00  1.14488251E-02  7.84223380E-02  3.08180947E-01  7.20271964E-01
  1.00000000E+00  1.00000000E+00  1.00000000E+00  1.00000000E+00  1.00000000E+00
  1.00000000E+00  2.54393072E-02  1.90085949E-01  8.52441130E-01  1.00000000E+00
  1.00000000E+00  1.00000000E+00  1.00000000E+00  2.54393072E-02  1.90085949E-01
  8.52441130E-01  1.00000000E+00  1.00000000E+00  1.00000000E+00  1.00000000E+00
  2.54393072E-02  1.90085949E-01  8.52441130E-01  1.00000000E+00  1.00000000E+00
  1.00000000E+00  1.00000000E+00  2.54393072E-02  1.90085949E-01  8.52441130E-01
  1.00000000E+00  1.00000000E+00  1.00000000E+00  1.00000000E+00
Coordinates of each shell                  R   N=         177
  2.02695212E+00 -1.32657117E-01 -2.89151970E-01  2.02695212E+00 -1.32657117E-01
 -2.89151970E-01  2.02695212E+00 -1.32657117E-01 -2.89151970E-01  2.02695212E+00
 -1.32657117E-01 -2.89151970E-01  2.02695212E+00 -1.32657117E-01 -2.89151970E-01
  2.02695212E+00 -1.32657117E-01 -2.89151970E-01  2.02695212E+00 -1.32657117E-01
 -2.89151970E-01  2.02695212E+00 -1.32657117E-01 -2.89151970E-01  2.02695212E+00
 -1.32657117E-01 -2.89151970E-01  2.02695212E+00 -1.32657117E-01 -2.89151970E-01
  2.02695212E+00 -1.32657117E-01 -2.89151970E-01  2.02695212E+00 -1.32657117E-01
 -2.89151970E-01  2.02695212E+00 -1.32657117E-01 -2.89151970E-01  4.49366243E+00
 -1.69594780E-01 -4.80718912E-01  4.49366243E+00 -1.69594780E-01 -4.80718912E-01
  4.49366243E+00 -1.69594780E-01 -4.80718912E-01  4.49366243E+00 -1.69594780E-01
 -4.80718912E-01  4.49366243E+00 -1.69594780E-01 -4.80718912E-01  4.49366243E+00
 -1.69594780E-01 -4.80718912E-01  4.49366243E+00 -1.69594780E-01 -4.80718912E-01
  4.49366243E+00 -1.69594780E-01 -4.80718912E-01  4.49366243E+00 -1.69594780E-01
 -4.80718912E-01  4.49366243E+00 -1.69594780E-01 -4.80718912E-01  4.49366243E+00
 -1.69594780E-01 -4.80718912E-01  4.49366243E+00 -1.69594780E-01 -4.80718912E-01
  4.49366243E+00 -1.69594780E-01 -4.80718912E-01  5.82669740E+00 -6.96306974E-01
 -2.47313900E+00  5.82669740E+00 -6.96306974E-01 -2.47313900E+00  5.82669740E+00
 -6.96306974E-01 -2.47313900E+00  5.82669740E+00 -6.96306974E-01 -2.47313900E+00
  5.82669740E+00 -6.96306974E-01 -2.47313900E+00  5.82669740E+00 -6.96306974E-01
 -2.47313900E+00  5.82669740E+00 -6.96306974E-01 -2.47313900E+00  5.82669740E+00
 -6.96306974E-01 -2.47313900E+00  5.82669740E+00 -6.96306974E-01 -2.47313900E+00
  5.82669740E+00 -6.96306974E-01 -2.47313900E+00  5.82669740E+00 -6.96306974E-01
 -2.47313900E+00  5.82669740E+00 -6.96306974E-01 -2.47313900E+00  5.82669740E+00
 -6.96306974E-01 -2.47313900E+00  7.67994023E+00 -5.53065660E-01 -1.97974669E+00
  7.67994023E+00 -5.53065660E-01 -1.97974669E+00  7.67994023E+00 -5.53065660E-01
 -1.97974669E+00  7.67994023E+00 -5.53065660E-01 -1.97974669E+00  7.67994023E+00
 -5.53065660E-01 -1.97974669E+00  1.20935456E+00  3.49890902E-01  1.52789288E+00
  1.20935456E+00  3.49890902E-01  1.52789288E+00  1.20935456E+00  3.49890902E-01
  1.52789288E+00  1.20935456E+00  3.49890902E-01  1.52789288E+00  1.20935456E+00
  3.49890902E-01  1.52789288E+00  9.12820557E-01 -5.85776711E-01 -1.95345676E+00
  9.12820557E-01 -5.85776711E-01 -1.95345676E+00  9.12820557E-01 -5.85776711E-01
 -1.95345676E+00  9.12820557E-01 -5.85776711E-01 -1.95345676E+00  9.12820557E-01
 -5.85776711E-01 -1.95345676E+00  5.41878558E+00  2.75672749E-01  1.15865244E+00
  5.41878558E+00  2.75672749E-01  1.15865244E+00  5.41878558E+00  2.75672749E-01
  1.15865244E+00  5.41878558E+00  2.75672749E-01  1.15865244E+00  5.41878558E+00
  2.75672749E-01  1.15865244E+00
Num ILSW                                   I              100
ILSW                                       I   N=         100
           1           0           0           0           2           0
           0           0           0           0         402          -1
           5           0           0           0           2           0
           0           0           0           0           1           0
           1           1           0           0           0           0
           0           0      100000           0          -1           0
           0           0           0           0           0           0
           0           0           0           1           0           0
           0 -2000000000           1           0           0           0
           0           0           4          52           0           0
           0           0           5           0           0           0
           0           0           0           7           0           1
           0           0           0           0           0           0
           0           0           0           0           0           0
           0           0           0           0           0           0
           0           0           0           0           0           0
           0           0           0           0
Num RLSW                                   I               52
RLSW                                       R   N=          52
  8.00000000E-01  7.20000000E-01  1.00000000E+00  8.10000000E-01  2.00000000E-01
  0.00000000E+00  0.00000000E+00  1.00000000E+00  0.00000000E+00  0.00000000E+00
  0.00000000E+00  0.00000000E+00  1.00000000E+00  0.00000000E+00  0.00000000E+00
  0.00000000E+00  0.00000000E+00  1.00000000E+00  0.00000000E+00  0.00000000E+00
  0.00000000E+00  0.00000000E+00  1.00000000E+00  0.00000000E+00  0.00000000E+00
  0.00000000E+00  0.00000000E+00  1.00000000E+00  0.00000000E+00  0.00000000E+00
  0.00000000E+00  0.00000000E+00  1.00000000E+00  0.00000000E+00  0.00000000E+00
  0.00000000E+00  0.00000000E+00  0.00000000E+00  1.00000000E+00  1.00000000E+00
  0.00000000E+00  1.00000000E+00  0.00000000E+00  0.00000000E+00  0.00000000E+00
  0.00000000E+00  0.00000000E+00  0.00000000E+00  0.00000000E+00  0.00000000E+00
  0.00000000E+00  0.00000000E+00
MxBond                                     I                3
NBond                                      I   N=           7
           3           3           2           1           1           1
           1
IBond                                      I   N=          21
           2           5           6           1           3           7
           2           4           0           3           0           0
           1           0           0           1           0           0
           2           0           0
RBond                                      R   N=          21
  2.00000000E+00  1.00000000E+00  1.00000000E+00  2.00000000E+00  1.00000000E+00
  1.00000000E+00  1.00000000E+00  1.00000000E+00  0.00000000E+00  1.00000000E+00
  0.00000000E+00  0.00000000E+00  1.00000000E+00  0.00000000E+00  0.00000000E+00
  1.00000000E+00  0.00000000E+00  0.00000000E+00  1.00000000E+00  0.00000000E+00
  0.00000000E+00
Virial Ratio                               R      2.005000336184553E+00
SCF Energy                                 R     -1.499953322738722E+02
Total Energy                               R     -1.499953322738722E+02
S**2                                       R     -1.776356839400250E-14
S**2 after annihilation                    R      3.570477247194354E-13
RMS Force                                  R      3.232948421948369E-03
RMS Density                                R      3.154071925930144E-10
Job Status                                 I                1
Nuclear derivative order                   I                1
External E-field                           R   N=          35
  0.00000000E+00  0.00000000E+00  0.00000000E+00  0.00000000E+00  0.00000000E+00
  0.00000000E+00  0.00000000E+00  0.00000000E+00  0.00000000E+00  0.00000000E+00
  0.00000000E+00  0.00000000E+00  0.00000000E+00  0.00000000E+00  0.00000000E+00
  0.00000000E+00  0.00000000E+00  0.00000000E+00  0.00000000E+00  0.00000000E+00
  0.00000000E+00  0.00000000E+00  0.00000000E+00  0.00000000E+00  0.00000000E+00
  0.00000000E+00  0.00000000E+00  0.00000000E+00  0.00000000E+00  0.00000000E+00
  0.00000000E+00  0.00000000E+00  0.00000000E+00  0.00000000E+00  0.00000000E+00
IOpCl                                      I                1
IROHF                                      I                0
Alpha Orbital Energies                     R   N=         147
 -1.44396982E+01 -1.43052235E+01 -1.01994931E+01 -1.04354075E+00 -8.12330306E-01
 -6.48821828E-01 -5.70065571E-01 -4.88668729E-01 -4.34570688E-01 -4.23242334E-01
 -2.87728788E-01 -2.05119705E-01 -2.96555492E-02 -1.39239450E-02  2.73039119E-02
  4.72346281E-02  8.34568869E-02  9.98495378E-02  1.00728826E-01  1.08544941E-01
  1.55694104E-01  1.62484120E-01  1.63540464E-01  1.84507598E-01  1.87126075E-01
  2.05804726E-01  2.18931015E-01  2.46859596E-01  2.52912971E-01  2.54338151E-01
  2.80690750E-01  2.84217437E-01  2.93633453E-01  3.13355881E-01  3.26413041E-01
  3.46227344E-01  3.49248887E-01  3.60818499E-01  3.80808717E-01  3.98308467E-01
  4.03648769E-01  4.21069108E-01  4.24061236E-01  4.46860960E-01  4.64426396E-01
  4.71368463E-01  5.07457600E-01  5.19601585E-01  5.22784290E-01  5.58981546E-01
  5.69356332E-01  5.76019297E-01  6.38994897E-01  6.79308375E-01  6.91175894E-01
  7.01719868E-01  7.37874203E-01  7.38636651E-01  7.58481050E-01  7.81284939E-01
  8.30029398E-01  8.55322646E-01  8.63673334E-01  9.06538596E-01  9.37797959E-01
  9.53057668E-01  1.05336036E+00  1.08493804E+00  1.16056957E+00  1.18751813E+00
  1.26289552E+00  1.27870152E+00  1.37824254E+00  1.41778259E+00  1.42512623E+00
  1.56394128E+00  1.57866384E+00  1.59247924E+00  1.68259979E+00  1.75232841E+00
  1.77515991E+00  1.81477351E+00  1.83978923E+00  1.86015445E+00  1.90660995E+00
  1.96484699E+00  1.99591354E+00  2.05022530E+00  2.16052684E+00  2.20406231E+00
  2.20504736E+00  2.23833230E+00  2.28198677E+00  2.35528328E+00  2.39529077E+00
  2.47346766E+00  2.51263593E+00  2.59387710E+00  2.64568390E+00  2.72018771E+00
  2.79442021E+00  2.81805200E+00  2.84555573E+00  2.87946762E+00  2.94442115E+00
  3.02431406E+00  3.08409265E+00  3.14492850E+00  3.16723404E+00  3.18340371E+00
  3.27385015E+00  3.29773707E+00  3.30390621E+00  3.52514358E+00  3.56045517E+00
  3.67864475E+00  3.78962105E+00  3.80366135E+00  3.83399302E+00  3.96918005E+00
  4.11113810E+00  4.17641109E+00  4.18592823E+00  4.35266127E+00  4.57780967E+00
  4.60125599E+00  4.68907289E+00  4.69160025E+00  4.76062704E+00  4.79081551E+00
  4.82446182E+00  4.85476739E+00  4.94577040E+00  4.98253764E+00  5.16703542E+00
  5.16837158E+00  5.23792641E+00  5.37550985E+00  5.60732163E+00  5.66052921E+00
  5.73876333E+00  5.97582797E+00  6.15083061E+00  6.92957468E+00  2.25836254E+01
  3.21196111E+01  3.24288429E+01
Beta Orbital Energies                      R   N=         147
 -1.44396982E+01 -1.43052235E+01 -1.01994931E+01 -1.04354075E+00 -8.12330306E-01
 -6.48821828E-01 -5.70065571E-01 -4.88668729E-01 -4.34570688E-01 -4.23242334E-01
 -2.87728788E-01 -2.05119705E-01 -2.96555492E-02 -1.39239450E-02  2.73039119E-02
  4.72346281E-02  8.34568869E-02  9.98495378E-02  1.00728826E-01  1.08544941E-01
  1.55694104E-01  1.62484120E-01  1.63540464E-01  1.84507598E-01  1.87126075E-01
  2.05804726E-01  2.18931015E-01  2.46859596E-01  2.52912971E-01  2.54338151E-01
  2.80690750E-01  2.84217437E-01  2.93633453E-01  3.13355881E-01  3.26413041E-01
  3.46227344E-01  3.49248887E-01  3.60818499E-01  3.80808717E-01  3.98308467E-01
  4.03648769E-01  4.21069108E-01  4.24061236E-01  4.46860960E-01  4.64426396E-01
  4.71368463E-01  5.07457600E-01  5.19601585E-01  5.22784290E-01  5.58981546E-01
  5.69356332E-01  5.76019297E-01  6.38994897E-01  6.79308375E-01  6.91175894E-01
  7.01719868E-01  7.37874203E-01  7.38636651E-01  7.58481050E-01  7.81284939E-01
  8.30029398E-01  8.55322646E-01  8.63673334E-01  9.06538596E-01  9.37797959E-01
  9.53057668E-01  1.05336036E+00  1.08493804E+00  1.16056957E+00  1.18751813E+00
  1.26289552E+00  1.27870152E+00  1.37824254E+00  1.41778259E+00  1.42512623E+00
  1.56394128E+00  1.57866384E+00  1.59247924E+00  1.68259979E+00  1.75232841E+00
  1.77515991E+00  1.81477351E+00  1.83978923E+00  1.86015445E+00  1.90660995E+00
  1.96484699E+00  1.99591354E+00  2.05022530E+00  2.16052684E+00  2.20406231E+00
  2.20504736E+00  2.23833230E+00  2.28198677E+00  2.35528328E+00  2.39529077E+00
  2.47346766E+00  2.51263593E+00  2.59387710E+00  2.64568390E+00  2.72018771E+00
  2.79442021E+00  2.81805200E+00  2.84555573E+00  2.87946762E+00  2.94442115E+00
  3.02431406E+00  3.08409265E+00  3.14492850E+00  3.16723404E+00  3.18340371E+00
  3.27385015E+00  3.29773707E+00  3.30390621E+00  3.52514358E+00  3.56045517E+00
  3.67864475E+00  3.78962105E+00  3.80366135E+00  3.83399302E+00  3.96918005E+00
  4.11113810E+00  4.17641109E+00  4.18592823E+00  4.35266127E+00  4.57780967E+00
  4.60125599E+00  4.68907289E+00  4.69160025E+00  4.76062704E+00  4.79081551E+00
  4.82446182E+00  4.85476739E+00  4.94577040E+00  4.98253764E+00  5.16703542E+00
  5.16837158E+00  5.23792641E+00  5.37550985E+00  5.60732163E+00  5.66052921E+00
  5.73876333E+00  5.97582797E+00  6.15083061E+00  6.92957468E+00  2.25836254E+01
  3.21196111E+01  3.24288429E+01
Alpha MO coefficients                      R   N=       21609
  9.62211010E-06 -2.12657871E-05  2.43311544E-04  4.92698803E-03 -5.34059601E-03
 -3.39021401E-03  3.78743782E-04 -1.04868026E-05 -4.73449418E-05  5.44060131E-03
  2.23483329E-04  7.13961469E-04 -1.03232629E-02  3.90111827E-04  1.68089100E-03
  6.66968119E-06  5.82716927E-06  2.11378112E-05  6.14361226E-05  2.31830331E-06
 -1.55794450E-03  4.03281351E-04 -3.62618007E-04  1.43455978E-03  1.24391550E-04
  9.56389423E-04  2.56558169E-03 -1.93791716E-04 -2.38663252E-03  6.59995320E-04
 -1.36998930E-04  4.43992104E-04 -6.35291502E-06  1.86295875E-04  1.46281809E-04
 -1.67209014E-04  5.91871331E-05  4.48362736E-01  6.26500233E-01  4.08322507E-02
 -4.57315004E-02  9.42356786E-02  1.93511207E-02 -8.04886250E-05 -1.04379893E-04
 -3.87462965E-04  1.44459897E-03  7.61532201E-04  2.80717319E-03  1.53967418E-02
 -5.85091218E-03 -2.21464600E-02  3.68197328E-05 -3.34256308E-04  1.56905773E-04
  4.86777759E-04 -8.37187942E-05  2.92751442E-04  2.46555749E-03 -3.88617958E-04
 -1.90904191E-03  6.38485447E-04  5.75211597E-03 -4.81166237E-03  3.52980720E-03
  2.36000098E-03 -1.25763331E-03  2.92984234E-05 -6.68052242E-05  8.40995177E-05
  1.12583492E-04 -1.38249384E-05  4.20887020E-05  4.22142570E-05  5.02805072E-04
  7.52564114E-04 -1.07104975E-03  8.12904325E-03 -6.10567498E-02 -2.91958416E-03
 -1.36082037E-04  1.96714859E-05  7.63010135E-05 -1.32136450E-03  8.81907198E-04
  3.31609832E-03  1.53608177E-02 -5.46098090E-03 -2.06906676E-02  1.87853820E-05
 -1.03335978E-04  2.70752025E-05  6.35298187E-05 -2.69377637E-05  7.10334897E-04
 -1.95124470E-04  3.46212201E-04 -2.81584832E-05 -5.21330476E-05 -1.87266334E-03
  3.47143588E-03 -1.13457158E-03 -7.62203248E-04  9.20645641E-04  5.41709477E-06
  3.27628157E-04 -6.16952853E-05 -1.27667940E-04  1.68458729E-04  5.82909418E-05
 -4.38557386E-05 -8.32710368E-05 -4.11496932E-04 -2.24142609E-03  3.36655374E-04
 -7.36718507E-05 -2.81972959E-04  5.93767557E-04 -1.73228362E-04 -6.58715586E-04
  2.60735935E-04  6.91358662E-04 -4.68028830E-03 -2.35680811E-04 -4.48672024E-05
 -1.62176945E-04 -2.70448828E-03  2.31112006E-04  9.20427851E-04  1.90605634E-04
  1.34113167E-03 -6.77144960E-03  1.28435236E-04  4.82027474E-05  1.76803259E-04
 -5.52048171E-04 -3.25000421E-04 -1.19904674E-03  1.06469756E-04 -1.49739287E-03
 -1.61597235E-02  9.12484334E-05  1.41882752E-04  5.26818018E-04  2.29031809E-03
  7.37381935E-04  2.69815302E-03  4.55279674E-06 -2.83478035E-05  1.09410279E-03
 -6.37438496E-03 -2.27928395E-02 -2.00840906E-03  1.97739774E-04 -8.99978301E-06
 -3.78331837E-05 -3.33854985E-03  8.60801098E-05  3.93619917E-04 -8.60523858E-03
 -3.62771645E-04 -1.16409827E-03  3.15946099E-05  3.47787122E-05  2.85040251E-06
 -4.56594651E-05  8.80255349E-06  2.35969579E-04  4.21318445E-04 -1.73297199E-04
 -1.01801780E-03  1.00828144E-04 -8.94565384E-04  2.84149132E-03 -8.06398224E-04
 -1.30614451E-03  7.45760635E-04 -5.68475982E-05 -6.98294184E-05 -6.25538052E-08
  8.65894847E-05 -8.98472131E-05 -1.66946132E-04  2.55375810E-05 -5.48064156E-04
 -7.18819630E-04 -1.68961933E-03  1.04074367E-02 -3.07440301E-02  4.16058217E-03
  1.00380916E-04 -8.28194288E-06 -3.30614566E-05  1.52016540E-03 -1.04972551E-03
 -3.94606193E-03 -1.73581767E-02  4.04730746E-03  1.54655089E-02  5.74301529E-05
 -1.10969035E-04  2.73197097E-05 -2.37567364E-06 -2.97573486E-05  4.90553252E-04
 -7.59013088E-04  5.15050438E-04  9.49708018E-04 -1.91683414E-04 -4.39213635E-03
  1.57272935E-03 -1.44369049E-03  2.57639701E-03  4.49896071E-04  5.67815398E-05
 -2.60937310E-04  1.10794629E-04  1.24526407E-04 -1.44827024E-04 -7.79343451E-05
  4.49073936E-05  4.48337588E-01  6.26766619E-01  3.90374384E-02 -3.97065284E-02
  7.68972244E-02  8.04101867E-03 -1.53544028E-05  7.41669565E-04  2.76478432E-03
  2.46317800E-03 -1.53465660E-03 -5.77408921E-03 -6.47738476E-03  4.73028114E-03
  1.77732335E-02  7.75462047E-05 -2.37934576E-04  1.01505010E-04  2.22364093E-04
 -6.10678812E-05 -9.62880539E-04  1.81899463E-03 -6.46572646E-04 -6.11391739E-04
  4.79836515E-04 -1.11297339E-04 -4.11573868E-03  9.46687845E-04  3.56367990E-03
 -1.06094343E-03 -8.12947575E-05  2.43164352E-04 -1.44661623E-04 -1.50216040E-04
  1.35278139E-04  7.51901255E-05 -5.51657209E-05  4.11746235E-04 -1.22331736E-03
 -2.59092051E-02  2.10123933E-04  3.59925920E-05  1.29558533E-04  6.97972144E-03
  7.11076251E-04  2.49775103E-03 -4.36604821E-05  3.47712094E-04  7.15750463E-03
  1.44453733E-05  5.28677383E-06  1.93639250E-05 -6.97076289E-04 -1.07342622E-04
 -3.86324071E-04 -7.57821269E-05  4.20684819E-04 -2.39143056E-03  8.16154253E-05
 -1.88883453E-05 -7.21807841E-05  7.58539909E-04 -2.50734525E-04 -9.50804951E-04
  4.02280769E-05 -4.89079126E-04  6.21775295E-03 -3.24730855E-05  8.83555359E-05
  3.30033836E-04 -2.13140875E-03 -3.39688527E-04 -1.21940687E-03  4.66812605E-01
  6.08171905E-01  4.05331947E-02 -3.47284123E-02  6.72453050E-02 -1.66033504E-03
  1.78832014E-03 -7.16929539E-06 -6.54984961E-05  2.21541625E-03 -6.31815478E-05
 -2.83106894E-04 -2.57883180E-02  9.57628789E-05  9.25170209E-04 -8.19571948E-06
 -9.92157183E-05  3.94395801E-04  1.38083084E-03 -9.76341575E-06 -3.07226682E-04
 -1.80304380E-04  4.79224905E-04  2.19387073E-03 -2.18511386E-05  1.17430103E-02
  2.10431395E-04  5.15958591E-03 -2.49595952E-03  3.51363065E-05  2.63751018E-04
 -1.44771861E-03  5.70948173E-05 -2.67412875E-04 -4.27745743E-04  6.70721961E-04
 -7.57220352E-05 -7.60415683E-05 -1.59723109E-04  2.03863665E-03 -7.60838959E-03
  1.05049900E-02  1.40471292E-02 -6.44432066E-04  3.97520105E-05  1.62222687E-04
  7.09961360E-03 -4.76411603E-04 -1.93072552E-03 -1.52799847E-02  7.11792015E-04
  2.98501347E-03 -3.50838878E-05 -4.39600525E-06 -5.44601733E-05 -1.27496863E-04
 -2.75257636E-06  2.76538469E-03  1.13912333E-04  5.72602746E-04 -2.81158978E-03
 -1.52410763E-06 -6.04775971E-03 -9.31598197E-04 -1.42152233E-03  5.58019503E-03
 -1.86731132E-04  6.08844811E-05 -5.03798105E-04 -2.85605130E-05 -1.38599855E-04
  2.62254699E-05  7.29967078E-04 -3.44020007E-05  3.93953914E-06 -1.92241489E-05
  5.79002009E-04 -2.65394937E-03  1.10628208E-02 -3.26920788E-03 -1.01877112E-04
  4.98985126E-06  2.08360753E-05  1.53971622E-03 -2.57035840E-04 -9.91823187E-04
 -1.89795517E-03  3.96728065E-04  1.52151898E-03 -2.97622992E-05 -3.94061347E-05
 -2.03856504E-05 -1.80622065E-05 -1.08163225E-05  1.56165804E-04  1.00107607E-03
 -1.30274443E-05 -3.38926052E-04  2.64583583E-04 -5.04043896E-05 -6.57695672E-04
 -2.17910553E-04 -6.50702595E-04 -1.84257392E-04  6.30293876E-05  8.05931868E-05
  1.51560826E-05 -6.75564459E-05  4.73429142E-05  3.21592516E-05 -2.10183903E-05
 -1.67992583E-04  1.75012693E-04 -5.84287529E-03  9.27849660E-05 -3.93454401E-05
 -1.48670489E-04  2.12344616E-03 -4.03018390E-04 -1.54841575E-03 -5.14765824E-04
 -4.34367354E-04 -4.48421646E-02 -6.38877386E-04  4.29329729E-04  1.61472423E-03
 -5.72266065E-03  1.05851752E-03  4.07492713E-03 -4.82807012E-04 -8.26501999E-04
 -4.25156016E-02 -9.49665287E-04 -3.98150265E-04 -1.46307182E-03 -7.14428231E-03
 -8.75056576E-04 -3.10266495E-03 -3.30310810E-04  2.91847159E-04  8.95921373E-03
  3.99260456E-04 -4.58004564E-06 -2.57848391E-05 -2.16904638E-03 -6.43491402E-04