0001_q000_m01_k00_opt_uwb97xd_def2svpd/0001_q000_m01_k00_force_ub3lyp_de
Force     UB3LYP                                                      Gen                 
Number of atoms                            I                7
Info1-9                                    I   N=           9
          13           9           0           0           0         100
           5          18        -502
Full Title                                 C   N=           8
0001_q000_m01_k00_opt_uwb97xd_def2svpd/0001_q000_m01_k00_for
ce_ub3lyp_def2tzvp stable-force     
Route                                      C   N=          15
#p ub3lyp/chkbasis force guess=read geom=check scf=(maxcycle
=900,verytightlineq,xqc) integral=grid=ultrafine symmetry=No
ne density=current pop=(cm5,hlygat,mbs,npa) output=wfx      
Charge                                     I                0
Multiplicity                               I                1
Number of electrons                        I               24
Number of alpha electrons                  I               12
Number of beta electrons                   I               12
Number of basis functions                  I              117
Number of independent functions            I              117
Number of point charges in /Mol/           I                0
Number of translation vectors              I                0
Atomic numbers                             I   N=           7
           6           7           7           1           1           1
           1
Nuclear charges                            R   N=           7
  6.00000000E+00  7.00000000E+00  7.00000000E+00  1.00000000E+00  1.00000000E+00
  1.00000000E+00  1.00000000E+00
Current cartesian coordinates              R   N=          21
  2.02695212E+00 -1.32657117E-01 -2.89151970E-01  4.49366243E+00 -1.69594780E-01
 -4.80718912E-01  5.82669740E+00 -6.96306974E-01 -2.47313900E+00  7.67994023E+00
 -5.53065660E-01 -1.97974669E+00  1.20935456E+00  3.49890902E-01  1.52789288E+00
  9.12820557E-01 -5.85776711E-01 -1.95345676E+00  5.41878558E+00  2.75672749E-01
  1.15865244E+00
Number of symbols in /Mol/                 I                0
Int Atom Types                             I   N=           7
           0           0           0           0           0           0
           0
Force Field                                I                0
Atom Types                                 C   N=           7
                                                            
                        
MM charges                                 R   N=           7
  0.00000000E+00  0.00000000E+00  0.00000000E+00  0.00000000E+00  0.00000000E+00
  0.00000000E+00  0.00000000E+00
Integer atomic weights                     I   N=           7
          12          14          14           1           1           1
           1
Real atomic weights                        R   N=           7
  1.20000000E+01  1.40030740E+01  1.40030740E+01  1.00782504E+00  1.00782504E+00
  1.00782504E+00  1.00782504E+00
Atom fragment info                         I   N=           7
           0           0           0           0           0           0
           0
Atom residue num                           I   N=           7
           0           0           0           0           0           0
           0
Nuclear spins                              I   N=           7
           0           2           2           1           1           1
           1
Nuclear ZEff                               R   N=           7
 -3.60000000E+00 -4.55000000E+00 -4.55000000E+00 -1.00000000E+00 -1.00000000E+00
 -1.00000000E+00 -1.00000000E+00
Nuclear ZNuc                               R   N=           7
  6.00000000E+00  7.00000000E+00  7.00000000E+00  1.00000000E+00  1.00000000E+00
  1.00000000E+00  1.00000000E+00
Nuclear QMom                               R   N=           7
  0.00000000E+00  2.04400000E+00  2.04400000E+00  0.00000000E+00  0.00000000E+00
  0.00000000E+00  0.00000000E+00
Nuclear GFac                               R   N=           7
  0.00000000E+00  4.03761000E-01  4.03761000E-01  2.79284600E+00  2.79284600E+00
  2.79284600E+00  2.79284600E+00
MicOpt                                     I   N=           7
          -1          -1          -1          -1          -1          -1
          -1
Number of residues                         I                0
Number of secondary structures             I                0
Number of contracted shells                I               49
Number of primitive shells                 I               84
Pure/Cartesian d shells                    I                0
Pure/Cartesian f shells                    I                0
Highest angular momentum                   I                3
Largest degree of contraction              I                6
Shell types                                I   N=          49
           0           0           0           0           0           1
           1           1          -2          -2          -3           0
           0           0           0           0           1           1
           1          -2          -2          -3           0           0
           0           0           0           1           1           1
          -2          -2          -3           0           0           0
           1           0           0           0           1           0
           0           0           1           0           0           0
           1
Number of primitives per shell             I   N=          49
           6           2           1           1           1           4
           1           1           1           1           1           6
           2           1           1           1           4           1
           1           1           1           1           6           2
           1           1           1           4           1           1
           1           1           1           3           1           1
           1           3           1           1           1           3
           1           1           1           3           1           1
           1
Shell to atom map                          I   N=          49
           1           1           1           1           1           1
           1           1           1           1           1           2
           2           2           2           2           2           2
           2           2           2           2           3           3
           3           3           3           3           3           3
           3           3           3           4           4           4
           4           5           5           5           5           6
           6           6           6           7           7           7
           7
Primitive exponents                        R   N=          84
  1.35753497E+04  2.03523337E+03  4.63225624E+02  1.31200196E+02  4.28530159E+01
  1.55841858E+01  6.20671385E+00  2.57648965E+00  5.76963394E-01  2.29728314E-01
  9.51644400E-02  3.46972322E+01  7.95826228E+00  2.37808269E+00  8.14332082E-01
  2.88875473E-01  1.00568237E-01  1.09700000E+00  3.18000000E-01  7.61000000E-01
  1.97308006E+04  2.95789587E+03  6.73221336E+02  1.90682495E+02  6.22954419E+01
  2.26541612E+01  8.97914774E+00  3.68630024E+00  8.46600768E-01  3.36471338E-01
  1.36476537E-01  4.92003805E+01  1.13467905E+01  3.42739724E+00  1.17855251E+00
  4.16422050E-01  1.42608260E-01  1.65400000E+00  4.69000000E-01  1.09300000E+00
  1.97308006E+04  2.95789587E+03  6.73221336E+02  1.90682495E+02  6.22954419E+01
  2.26541612E+01  8.97914774E+00  3.68630024E+00  8.46600768E-01  3.36471338E-01
  1.36476537E-01  4.92003805E+01  1.13467905E+01  3.42739724E+00  1.17855251E+00
  4.16422050E-01  1.42608260E-01  1.65400000E+00  4.69000000E-01  1.09300000E+00
  3.40613410E+01  5.12357460E+00  1.16466260E+00  3.27230410E-01  1.03072410E-01
  8.00000000E-01  3.40613410E+01  5.12357460E+00  1.16466260E+00  3.27230410E-01
  1.03072410E-01  8.00000000E-01  3.40613410E+01  5.12357460E+00  1.16466260E+00
  3.27230410E-01  1.03072410E-01  8.00000000E-01  3.40613410E+01  5.12357460E+00
  1.16466260E+00  3.27230410E-01  1.03072410E-01  8.00000000E-01
Contraction coefficients                   R   N=          84
  6.06455036E-04  4.69790889E-03  2.43324776E-02  9.73999683E-02  3.01955843E-01
  6.62336091E-01  6.55953085E-01  3.75856333E-01  1.00000000E+00  1.00000000E+00
  1.00000000E+00  1.13272200E-02  7.61696592E-02  3.01922522E-01  7.27850273E-01
  1.00000000E+00  1.00000000E+00  1.00000000E+00  1.00000000E+00  1.00000000E+00
  5.86264026E-04  4.54288206E-03  2.35584135E-02  9.47091933E-02  2.97197849E-01
  6.69162469E-01  6.45966836E-01  3.87005744E-01  1.00000000E+00  1.00000000E+00
  1.00000000E+00  1.14488251E-02  7.84223380E-02  3.08180947E-01  7.20271964E-01
  1.00000000E+00  1.00000000E+00  1.00000000E+00  1.00000000E+00  1.00000000E+00
  5.86264026E-04  4.54288206E-03  2.35584135E-02  9.47091933E-02  2.97197849E-01
  6.69162469E-01  6.45966836E-01  3.87005744E-01  1.00000000E+00  1.00000000E+00
  1.00000000E+00  1.14488251E-02  7.84223380E-02  3.08180947E-01  7.20271964E-01
  1.00000000E+00  1.00000000E+00  1.00000000E+00  1.00000000E+00  1.00000000E+00
  2.54393072E-02  1.90085949E-01  8.52441130E-01  1.00000000E+00  1.00000000E+00
  1.00000000E+00  2.54393072E-02  1.90085949E-01  8.52441130E-01  1.00000000E+00
  1.00000000E+00  1.00000000E+00  2.54393072E-02  1.90085949E-01  8.52441130E-01
  1.00000000E+00  1.00000000E+00  1.00000000E+00  2.54393072E-02  1.90085949E-01
  8.52441130E-01  1.00000000E+00  1.00000000E+00  1.00000000E+00
Coordinates of each shell                  R   N=         147
  2.02695212E+00 -1.32657117E-01 -2.89151970E-01  2.02695212E+00 -1.32657117E-01
 -2.89151970E-01  2.02695212E+00 -1.32657117E-01 -2.89151970E-01  2.02695212E+00
 -1.32657117E-01 -2.89151970E-01  2.02695212E+00 -1.32657117E-01 -2.89151970E-01
  2.02695212E+00 -1.32657117E-01 -2.89151970E-01  2.02695212E+00 -1.32657117E-01
 -2.89151970E-01  2.02695212E+00 -1.32657117E-01 -2.89151970E-01  2.02695212E+00
 -1.32657117E-01 -2.89151970E-01  2.02695212E+00 -1.32657117E-01 -2.89151970E-01
  2.02695212E+00 -1.32657117E-01 -2.89151970E-01  4.49366243E+00 -1.69594780E-01
 -4.80718912E-01  4.49366243E+00 -1.69594780E-01 -4.80718912E-01  4.49366243E+00
 -1.69594780E-01 -4.80718912E-01  4.49366243E+00 -1.69594780E-01 -4.80718912E-01
  4.49366243E+00 -1.69594780E-01 -4.80718912E-01  4.49366243E+00 -1.69594780E-01
 -4.80718912E-01  4.49366243E+00 -1.69594780E-01 -4.80718912E-01  4.49366243E+00
 -1.69594780E-01 -4.80718912E-01  4.49366243E+00 -1.69594780E-01 -4.80718912E-01
  4.49366243E+00 -1.69594780E-01 -4.80718912E-01  4.49366243E+00 -1.69594780E-01
 -4.80718912E-01  5.82669740E+00 -6.96306974E-01 -2.47313900E+00  5.82669740E+00
 -6.96306974E-01 -2.47313900E+00  5.82669740E+00 -6.96306974E-01 -2.47313900E+00
  5.82669740E+00 -6.96306974E-01 -2.47313900E+00  5.82669740E+00 -6.96306974E-01
 -2.47313900E+00  5.82669740E+00 -6.96306974E-01 -2.47313900E+00  5.82669740E+00
 -6.96306974E-01 -2.47313900E+00  5.82669740E+00 -6.96306974E-01 -2.47313900E+00
  5.82669740E+00 -6.96306974E-01 -2.47313900E+00  5.82669740E+00 -6.96306974E-01
 -2.47313900E+00  5.82669740E+00 -6.96306974E-01 -2.47313900E+00  7.67994023E+00
 -5.53065660E-01 -1.97974669E+00  7.67994023E+00 -5.53065660E-01 -1.97974669E+00
  7.67994023E+00 -5.53065660E-01 -1.97974669E+00  7.67994023E+00 -5.53065660E-01
 -1.97974669E+00  1.20935456E+00  3.49890902E-01  1.52789288E+00  1.20935456E+00
  3.49890902E-01  1.52789288E+00  1.20935456E+00  3.49890902E-01  1.52789288E+00
  1.20935456E+00  3.49890902E-01  1.52789288E+00  9.12820557E-01 -5.85776711E-01
 -1.95345676E+00  9.12820557E-01 -5.85776711E-01 -1.95345676E+00  9.12820557E-01
 -5.85776711E-01 -1.95345676E+00  9.12820557E-01 -5.85776711E-01 -1.95345676E+00
  5.41878558E+00  2.75672749E-01  1.15865244E+00  5.41878558E+00  2.75672749E-01
  1.15865244E+00  5.41878558E+00  2.75672749E-01  1.15865244E+00  5.41878558E+00
  2.75672749E-01  1.15865244E+00
Num ILSW                                   I              100
ILSW                                       I   N=         100
           1           0           0           0           2           0
           0           0           0           0         402          -1
           5           0           0           0           2           0
           0           0           0           0           1           0
           1           1           0           0           0           0
           0           0      100000           0          -1           0
           0           0           0           0           0           0
           0           0           0           1           0           0
           0 -2000000000           1           0           0           0
           0           0           4          52           0           0
           0           0           5           0           0           0
           0           0           0           7           0           1
           0           0           0           0           0           0
           0           0           0           0           0           0
           0           0           0           0           0           0
           0           0           0           0           0           0
           0           0           0           0
Num RLSW                                   I               52
RLSW                                       R   N=          52
  8.00000000E-01  7.20000000E-01  1.00000000E+00  8.10000000E-01  2.00000000E-01
  0.00000000E+00  0.00000000E+00  1.00000000E+00  0.00000000E+00  0.00000000E+00
  0.00000000E+00  0.00000000E+00  1.00000000E+00  0.00000000E+00  0.00000000E+00
  0.00000000E+00  0.00000000E+00  1.00000000E+00  0.00000000E+00  0.00000000E+00
  0.00000000E+00  0.00000000E+00  1.00000000E+00  0.00000000E+00  0.00000000E+00
  0.00000000E+00  0.00000000E+00  1.00000000E+00  0.00000000E+00  0.00000000E+00
  0.00000000E+00  0.00000000E+00  1.00000000E+00  0.00000000E+00  0.00000000E+00
  0.00000000E+00  0.00000000E+00  0.00000000E+00  1.00000000E+00  1.00000000E+00
  0.00000000E+00  1.00000000E+00  0.00000000E+00  0.00000000E+00  0.00000000E+00
  0.00000000E+00  0.00000000E+00  0.00000000E+00  0.00000000E+00  0.00000000E+00
  0.00000000E+00  0.00000000E+00
MxBond                                     I                3
NBond                                      I   N=           7
           3           3           2           1           1           1
           1
IBond                                      I   N=          21
           2           5           6           1           3           7
           2           4           0           3           0           0
           1           0           0           1           0           0
           2           0           0
RBond                                      R   N=          21
  2.00000000E+00  1.00000000E+00  1.00000000E+00  2.00000000E+00  1.00000000E+00
  1.00000000E+00  1.00000000E+00  1.00000000E+00  0.00000000E+00  1.00000000E+00
  0.00000000E+00  0.00000000E+00  1.00000000E+00  0.00000000E+00  0.00000000E+00
  1.00000000E+00  0.00000000E+00  0.00000000E+00  1.00000000E+00  0.00000000E+00
  0.00000000E+00
Virial Ratio                               R      2.004778299782948E+00
SCF Energy                                 R     -1.499925212632447E+02
Total Energy                               R     -1.499925212632447E+02
S**2                                       R     -1.421085471520200E-14
S**2 after annihilation                    R     -5.897504706808937E-13
RMS Force                                  R      3.186680603601233E-03
RMS Density                                R      2.843754367247705E-09
Job Status                                 I                1
Nuclear derivative order                   I                1
External E-field                           R   N=          35
  0.00000000E+00  0.00000000E+00  0.00000000E+00  0.00000000E+00  0.00000000E+00
  0.00000000E+00  0.00000000E+00  0.00000000E+00  0.00000000E+00  0.00000000E+00
  0.00000000E+00  0.00000000E+00  0.00000000E+00  0.00000000E+00  0.00000000E+00
  0.00000000E+00  0.00000000E+00  0.00000000E+00  0.00000000E+00  0.00000000E+00
  0.00000000E+00  0.00000000E+00  0.00000000E+00  0.00000000E+00  0.00000000E+00
  0.00000000E+00  0.00000000E+00  0.00000000E+00  0.00000000E+00  0.00000000E+00
  0.00000000E+00  0.00000000E+00  0.00000000E+00  0.00000000E+00  0.00000000E+00
IOpCl                                      I                1
IROHF                                      I                0
Alpha Orbital Energies                     R   N=         117
 -1.44370698E+01 -1.42998313E+01 -1.01960790E+01 -1.04107178E+00 -8.09949440E-01
 -6.46894655E-01 -5.67915231E-01 -4.86309606E-01 -4.32060780E-01 -4.20857516E-01
 -2.84170711E-01 -2.01634852E-01 -2.52623163E-02  2.42054888E-03  7.52953823E-02
  8.66594719E-02  1.14960475E-01  1.57043539E-01  1.97937250E-01  2.28427330E-01
  2.65825459E-01  2.75545304E-01  3.39979814E-01  3.59655198E-01  3.79554890E-01
  4.07747019E-01  4.13856928E-01  4.31854729E-01  4.51270723E-01  4.82111982E-01
  5.00883343E-01  5.22925294E-01  5.63725044E-01  6.01801712E-01  6.07021426E-01
  7.15424356E-01  7.46888536E-01  8.95533152E-01  9.60193405E-01  1.00338500E+00
  1.03720797E+00  1.06456639E+00  1.19736080E+00  1.24573724E+00  1.30974928E+00
  1.34616609E+00  1.43385655E+00  1.45813695E+00  1.46663873E+00  1.51014231E+00
  1.56476766E+00  1.62740238E+00  1.64367505E+00  1.70724791E+00  1.76165187E+00
  1.77151738E+00  1.81916635E+00  1.92002085E+00  1.95189537E+00  2.00686879E+00
  2.05143202E+00  2.07387870E+00  2.09016110E+00  2.13318411E+00  2.15233303E+00
  2.28339235E+00  2.33201300E+00  2.33279821E+00  2.48334851E+00  2.56571169E+00
  2.61785247E+00  2.68279438E+00  2.75009825E+00  2.78333813E+00  2.81484269E+00
  2.88906486E+00  2.93245402E+00  3.03024553E+00  3.13475658E+00  3.15880414E+00
  3.20593176E+00  3.21467940E+00  3.26624005E+00  3.43709286E+00  3.49215862E+00
  3.61191452E+00  3.68742866E+00  3.72920065E+00  3.73054428E+00  3.94363519E+00
  3.95637785E+00  4.08169351E+00  4.15512887E+00  4.26326710E+00  4.45393872E+00
  4.51396038E+00  4.59803485E+00  4.62323044E+00  4.66605532E+00  4.69825111E+00
  4.71949924E+00  4.75750023E+00  4.87320973E+00  4.94358462E+00  5.01976057E+00
  5.15021397E+00  5.15186807E+00  5.23017494E+00  5.56066987E+00  5.56793547E+00
  5.71547872E+00  5.92762832E+00  6.09722119E+00  6.85475220E+00  2.23659806E+01
  3.16492432E+01  3.21274835E+01
Beta Orbital Energies                      R   N=         117
 -1.44370698E+01 -1.42998313E+01 -1.01960790E+01 -1.04107178E+00 -8.09949440E-01
 -6.46894655E-01 -5.67915231E-01 -4.86309606E-01 -4.32060780E-01 -4.20857516E-01
 -2.84170711E-01 -2.01634852E-01 -2.52623163E-02  2.42054888E-03  7.52953823E-02
  8.66594719E-02  1.14960475E-01  1.57043539E-01  1.97937250E-01  2.28427330E-01
  2.65825459E-01  2.75545304E-01  3.39979814E-01  3.59655198E-01  3.79554890E-01
  4.07747019E-01  4.13856928E-01  4.31854729E-01  4.51270723E-01  4.82111982E-01
  5.00883343E-01  5.22925294E-01  5.63725044E-01  6.01801712E-01  6.07021426E-01
  7.15424356E-01  7.46888536E-01  8.95533152E-01  9.60193405E-01  1.00338500E+00
  1.03720797E+00  1.06456639E+00  1.19736080E+00  1.24573724E+00  1.30974928E+00
  1.34616609E+00  1.43385655E+00  1.45813695E+00  1.46663873E+00  1.51014231E+00
  1.56476766E+00  1.62740238E+00  1.64367505E+00  1.70724791E+00  1.76165187E+00
  1.77151738E+00  1.81916635E+00  1.92002085E+00  1.95189537E+00  2.00686879E+00
  2.05143202E+00  2.07387870E+00  2.09016110E+00  2.13318411E+00  2.15233303E+00
  2.28339235E+00  2.33201300E+00  2.33279821E+00  2.48334851E+00  2.56571169E+00
  2.61785247E+00  2.68279438E+00  2.75009825E+00  2.78333813E+00  2.81484269E+00
  2.88906486E+00  2.93245402E+00  3.03024553E+00  3.13475658E+00  3.15880414E+00
  3.20593176E+00  3.21467940E+00  3.26624005E+00  3.43709286E+00  3.49215862E+00
  3.61191452E+00  3.68742866E+00  3.72920065E+00  3.73054428E+00  3.94363519E+00
  3.95637785E+00  4.08169351E+00  4.15512887E+00  4.26326710E+00  4.45393872E+00
  4.51396038E+00  4.59803485E+00  4.62323044E+00  4.66605532E+00  4.69825111E+00
  4.71949924E+00  4.75750023E+00  4.87320973E+00  4.94358462E+00  5.01976057E+00
  5.15021397E+00  5.15186807E+00  5.23017494E+00  5.56066987E+00  5.56793547E+00
  5.71547872E+00  5.92762832E+00  6.09722119E+00  6.85475220E+00  2.23659806E+01
  3.16492432E+01  3.21274835E+01
Alpha MO coefficients                      R   N=       13689
  4.09344394E-06  1.11379035E-05 -1.02332701E-03  1.04968160E-02 -4.80076013E-03
  2.77837128E-04 -5.15297162E-06 -2.52839435E-05  7.03137279E-03  1.79593347E-04
  5.16003763E-04 -7.44540578E-04  3.20511656E-04  1.21072718E-03 -4.86942499E-05
  2.89052909E-05 -8.80663550E-07  8.06119001E-05  8.70359766E-06 -9.12156502E-04
  7.99459695E-04  2.46359333E-04  2.41328343E-03  2.43144958E-04 -1.72775117E-04
  2.69256555E-04 -1.11771664E-05  2.33177778E-04  1.12561958E-04 -3.86584395E-05
  7.67248990E-05  4.48334060E-01  6.26698414E-01  3.94279684E-02 -3.87204596E-02
  1.67524633E-02 -2.14232582E-04 -1.13631340E-04 -4.18997276E-04  2.22530639E-03
  9.17853872E-04  3.37270462E-03  2.63581448E-03 -8.44568393E-04 -3.20568696E-03
  1.24026011E-04 -4.33688955E-04  2.14082612E-04  5.35828431E-04 -1.09730643E-04
 -4.21232116E-04  3.51882284E-03 -9.63845840E-04 -2.68674033E-03  9.11044421E-04
  6.78775521E-05 -2.07086978E-04  1.27792844E-04  1.37860871E-04 -6.53062438E-05
  7.64373469E-05  5.31718805E-05  4.80590455E-04  7.41772072E-04 -1.43916604E-03
  8.96703014E-03 -8.00625475E-03 -7.44548472E-05 -1.95872710E-05 -7.13839191E-05
 -2.49903884E-03  1.32827305E-03  5.00566970E-03  1.33016168E-03 -6.37040977E-04
 -2.40362359E-03 -5.29999357E-06 -9.96245853E-05  1.69529597E-06  1.73796283E-05
 -2.65220644E-05  1.13511290E-03 -7.92982252E-04  6.41712647E-04  2.72248085E-04
 -2.08546790E-04 -3.98018677E-06  3.29109214E-04 -5.40711918E-05 -9.95089768E-05
  1.64669814E-04  4.45128082E-05 -3.43784963E-05 -1.68956804E-04 -1.66335547E-04
  9.58721207E-05  2.19408284E-04 -8.24613964E-05 -3.12163865E-04  2.22783748E-04
 -6.88472884E-04  5.70284406E-04 -4.43269890E-04  1.65494114E-06  1.58839099E-05
  1.34991609E-04 -6.60634355E-04  1.67380394E-03 -1.51827257E-04 -1.46525280E-05
 -5.12539139E-05 -1.51966586E-04  1.00549045E-03 -2.09931090E-03 -1.19384857E-04
  1.16207051E-04  4.35748391E-04 -2.63899834E-06  1.32196586E-05  5.14303314E-05
 -1.20373064E-03 -2.94176905E-03  4.45934255E-05 -6.87633130E-06 -2.65980705E-05
 -2.14436868E-03  2.23740148E-04  8.80941575E-04 -1.22129479E-03  6.40246110E-04
  2.41322611E-03 -1.70072773E-05  1.22629823E-05 -8.59081687E-06 -5.88101852E-07
  3.27293116E-06  6.74513117E-04  7.64944239E-04  1.68735887E-04 -6.02222234E-04
  1.98456101E-04 -5.55980374E-05 -1.78520306E-04 -6.61492735E-06  7.40194099E-05
 -1.03952298E-04 -6.59484843E-05  2.27906910E-05 -5.29741784E-04 -6.76211940E-04
 -1.22636331E-03  7.89421007E-03 -4.26205348E-04  9.61147497E-05 -2.43635589E-05
 -9.29077206E-05  1.43150572E-03 -8.33537044E-04 -3.13827011E-03 -2.59989768E-03
 -5.54070701E-04 -2.00834488E-03  7.60541835E-05 -1.20510633E-04  1.38582960E-05
 -8.09604466E-05 -3.32593374E-05 -6.83856448E-06 -2.14599448E-04  2.56733253E-04
  9.04866748E-04 -4.65523795E-05  1.05935677E-04 -4.01289556E-04  1.60401535E-04
  1.44903425E-04 -1.93055418E-04 -3.41669889E-05  5.46977655E-05  4.48286824E-01
  6.27072852E-01  3.58353878E-02 -2.66199755E-02  1.17434595E-02  1.41345871E-05
  7.57728249E-04  2.82398705E-03  1.76291380E-03 -1.32711204E-03 -4.98517561E-03
  1.15566756E-03  4.69067511E-04  1.72304728E-03  1.56584944E-04 -2.93612463E-04
  1.41724128E-04  2.25894522E-04 -7.58984138E-05 -1.07249744E-03  1.51128725E-03
 -6.63646843E-04 -4.73406192E-04  3.98861917E-04 -9.85585979E-05  1.63654422E-04
 -1.38212116E-04 -1.11171076E-04  9.45542080E-05  6.12532723E-05 -4.22462765E-05
  8.60226705E-05  7.33346087E-04 -3.28757217E-03  2.10467376E-04  6.95225459E-05
  2.54534518E-04 -5.11725602E-05 -8.36586361E-04 -1.20743740E-03 -1.95762190E-04
  4.24521529E-05  1.62555882E-04 -1.59569135E-04 -3.90916638E-04  1.54432106E-03
 -7.30951840E-05 -4.18583967E-05 -1.54337829E-04 -9.02472153E-05  3.10611405E-04
  1.47282317E-03 -2.78196483E-04  7.71621123E-05  2.93712775E-04  4.66771550E-01
  6.08460849E-01  3.51038118E-02 -4.38878308E-03  9.89684915E-03  1.78495053E-03
 -7.96006696E-06 -6.82515676E-05  8.44841233E-03 -8.85665020E-05 -5.13948780E-04
 -7.14640839E-04 -1.24025253E-04 -4.46315871E-04 -1.89806323E-05 -1.39629964E-04
  5.20127028E-04  1.83536592E-03 -1.50607339E-05 -1.23878118E-03 -4.52129829E-04
  4.99517270E-04  3.88396239E-03 -7.49333018E-05  3.76818455E-04 -1.98175482E-03
  9.73720190E-05 -3.54501646E-04 -5.53377473E-04  1.00832526E-03 -9.71646436E-05
 -7.62356666E-05 -1.49068629E-04  2.80732015E-03 -1.17433702E-02 -3.17278335E-03
 -8.59780561E-04  3.69654731E-05  1.56583766E-04  1.08975243E-02 -4.77383361E-04
 -2.01752172E-03 -2.50801831E-04  3.66536549E-05  1.41993835E-04 -5.06972965E-05
 -2.35165859E-05 -6.56964315E-05 -1.38881586E-04 -8.03702648E-06  3.61057949E-03
  4.85682249E-04  5.66489984E-04 -4.30522013E-03  8.07144074E-05  9.89993203E-05
 -6.50821474E-04 -8.33762969E-06 -1.56431340E-04  1.56209396E-05  8.90317601E-04
 -3.65429555E-05  1.17619239E-06  1.56259382E-05  1.74014067E-04 -1.55688910E-03
  1.02646008E-03 -1.27875626E-04 -3.39060090E-06 -9.84378734E-06  1.76436645E-03
 -1.85477058E-04 -7.29921054E-04  4.30946904E-04  1.77638067E-04  6.52755111E-04
 -3.48393391E-05 -5.53145753E-05 -3.35288431E-05 -5.43397394E-05 -1.55309901E-05
  2.25605654E-04  1.03557624E-03  8.70973585E-05 -1.13724443E-04  2.76642735E-04
  8.26307800E-05  6.92631533E-05  4.13710557E-05 -4.82718634E-05  4.97610375E-05
  5.26381778E-05 -1.29657695E-05 -2.25278816E-04 -4.70599485E-04 -1.26116421E-04
  1.17737291E-04  4.96800735E-06  1.59399015E-05 -7.46670133E-04 -1.53246862E-03
 -1.88751684E-03 -8.49029228E-04  5.51290128E-04  2.07401864E-03 -7.15283530E-04
 -1.49993832E-03 -2.53343419E-03 -1.15866261E-03 -5.02021577E-04 -1.84559936E-03
 -4.08662282E-04 -7.04154885E-05 -3.12659865E-05  4.30816477E-04 -3.05477827E-05
 -1.23282524E-04 -3.08785884E-02 -6.43048667E-02  1.01755287E-01  6.10173743E-02
  1.33892268E-02  7.10153505E-02 -1.65810244E-03 -7.72993863E-03  2.84202154E-02
 -1.57137903E-03 -6.47801525E-03  2.86537987E-03  2.18041263E-04  7.50598046E-04
 -3.49096899E-03 -1.77595262E-03  6.72231066E-04  8.41298128E-03 -3.76776111E-04
 -3.26403096E-03 -3.35748630E-03 -7.96700818E-04  2.97581593E-03 -8.67165219E-04
  5.36454537E-04 -1.59507377E-03 -3.87270950E-06 -7.90739341E-04 -1.49111758E-05
  2.04761693E-03 -2.26862477E-04 -8.78306610E-02 -1.97603992E-01  2.99954608E-01
  3.54757197E-01  5.32710071E-02  1.45876848E-02 -1.03997436E-02 -3.90861511E-02
  9.50605716E-03 -7.51595210E-03 -2.82257323E-02  4.54973042E-03  2.07114577E-03
  7.62198170E-03  3.28419330E-03 -4.30317195E-03  3.41457049E-03  6.22329188E-03
 -1.07612073E-03  5.15705188E-03 -1.18386161E-02  6.27509787E-03  1.30503694E-02
 -3.01316306E-03 -1.65917970E-04  6.02971247E-03 -8.45049722E-04 -1.40726209E-03
  2.33927568E-03 -1.11563777E-03 -5.21082901E-04 -5.13429054E-02 -1.14965874E-01
  1.74918654E-01  1.70678905E-01  4.39931932E-02 -3.48620702E-02  2.34886370E-02
  8.83134858E-02 -1.74194465E-02  1.44710601E-02  5.43199180E-02 -6.56474977E-03
  2.40992926E-03  9.12568568E-03  4.63779117E-03 -6.04487787E-03  3.21515908E-03
  3.23013356E-03 -1.57884265E-03  6.08227999E-03 -6.18294511E-03  3.90928976E-03
  3.13231418E-03 -1.61596410E-03  1.55869200E-04 -2.78783490E-03  1.26842306E-03
  2.15585261E-03 -1.16880084E-03  2.03377903E-04  7.78179575E-04  3.42623650E-02
  2.85267875E-02  1.94306617E-03 -7.49864470E-03  2.46962266E-04  1.08450686E-03
  1.03932231E-02  1.28370059E-02 -2.78024971E-03  3.00013692E-03 -4.93715699E-04
 -1.90653855E-03  1.08182700E-02  1.34692318E-02 -1.58151625E-03  2.81610535E-03
  4.52026439E-04  1.62283650E-03  5.90697495E-02  4.75041639E-02 -1.66531511E-03
 -4.00066786E-03 -2.87216107E-03 -1.06178171E-02  5.88023095E-02  1.24366138E-01
 -1.99592494E-01 -1.69433640E-01 -2.59253205E-02 -9.08619299E-02 -4.38104017E-03
 -1.43538489E-02 -3.99577728E-02 -3.05554153E-03 -1.05226238E-02 -4.52037624E-03
 -1.21994875E-03 -4.44916326E-03  3.91155417E-03 -7.80374291E-04 -1.55824815E-03
 -1.21467496E-02 -3.54329942E-04  6.03359549E-04 -4.52320741E-03 -2.09730656E-03
 -8.19413810E-03 -1.31306570E-03 -4.10621279E-04  4.99146436E-03 -2.69105473E-04
  4.97869482E-05  9.46654260E-04 -3.76938014E-03 -6.03152436E-05  2.68310102E-02
  6.06057770E-02 -9.19074690E-02 -1.31739305E-01 -4.05407605E-02  1.91460700E-01
 -3.62376378E-02 -1.39256982E-01  1.27935367E-01 -2.24432058E-02 -8.64510604E-02
  3.54376942E-02 -4.77137401E-03 -1.85598077E-02  4.50472101E-03 -6.00634882E-03
  1.16749249E-03 -3.62255797E-03 -1.65207675E-03  8.79201843E-04 -1.54175054E-03
 -9.19718841E-04 -4.66771728E-03 -4.69822249E-04  2.27418069E-04 -2.95277560E-04
 -9.95885227E-04 -2.18668145E-03  8.02014224E-04  2.73943957E-03 -7.24060606E-04
 -6.53451365E-02 -1.47422872E-01  2.23946435E-01  2.76510462E-01  8.27636495E-02
  2.90520772E-02  1.92611253E-02  7.11585533E-02  1.33828956E-02  1.73951721E-02
  6.45463755E-02 -5.78265111E-04  2.71934748E-03  1.01479729E-02  2.95513370E-03
 -1.57056173E-03  2.49261492E-03  3.54038199E-03 -3.75897919E-04  8.40535538E-03
 -6.08049445E-03  5.56971088E-03  4.84976013E-03 -1.56571224E-03  5.57130259E-04
 -3.60037104E-03  1.58462092E-03  2.15050417E-03 -1.22357230E-03  1.09507075E-03
  8.07355571E-04  7.46135601E-02  7.46401107E-02  9.57169367E-03 -1.41072575E-02
 -3.94443478E-04 -1.16172849E-03 -3.97746602E-02 -4.01035828E-02 -2.87156172E-03
 -4.89085473E-03  1.24285435E-03  4.74070731E-03 -2.79550104E-02 -2.49209822E-02