0001_q000_m01_k00_opt_uwb97xd_def2svpd/0001_q000_m01_k00_force_uwb97xd_d
Force     UwB97XD                                                     Gen                 
Number of atoms                            I                7
Info1-9                                    I   N=           9
          13           9           0           0           0         100
           5          18       -5802
Full Title                                 C   N=           8
0001_q000_m01_k00_opt_uwb97xd_def2svpd/0001_q000_m01_k00_for
ce_uwb97xd_def2svp stable-force     
Route                                      C   N=          15
#p uwb97xd/chkbasis force guess=read geom=check scf=(maxcycl
e=900,verytightlineq,xqc) integral=grid=ultrafine symmetry=N
one density=current pop=(cm5,hlygat,mbs,npa) output=wfx     
Charge                                     I                0
Multiplicity                               I                1
Number of electrons                        I               24
Number of alpha electrons                  I               12
Number of beta electrons                   I               12
Number of basis functions                  I               62
Number of independent functions            I               62
Number of point charges in /Mol/           I                0
Number of translation vectors              I                0
Atomic numbers                             I   N=           7
           6           7           7           1           1           1
           1
Nuclear charges                            R   N=           7
  6.00000000E+00  7.00000000E+00  7.00000000E+00  1.00000000E+00  1.00000000E+00
  1.00000000E+00  1.00000000E+00
Current cartesian coordinates              R   N=          21
  2.02695212E+00 -1.32657117E-01 -2.89151970E-01  4.49366243E+00 -1.69594780E-01
 -4.80718912E-01  5.82669740E+00 -6.96306974E-01 -2.47313900E+00  7.67994023E+00
 -5.53065660E-01 -1.97974669E+00  1.20935456E+00  3.49890902E-01  1.52789288E+00
  9.12820557E-01 -5.85776711E-01 -1.95345676E+00  5.41878558E+00  2.75672749E-01
  1.15865244E+00
Number of symbols in /Mol/                 I                0
Int Atom Types                             I   N=           7
           0           0           0           0           0           0
           0
Force Field                                I                0
Atom Types                                 C   N=           7
                                                            
                        
MM charges                                 R   N=           7
  0.00000000E+00  0.00000000E+00  0.00000000E+00  0.00000000E+00  0.00000000E+00
  0.00000000E+00  0.00000000E+00
Integer atomic weights                     I   N=           7
          12          14          14           1           1           1
           1
Real atomic weights                        R   N=           7
  1.20000000E+01  1.40030740E+01  1.40030740E+01  1.00782504E+00  1.00782504E+00
  1.00782504E+00  1.00782504E+00
Atom fragment info                         I   N=           7
           0           0           0           0           0           0
           0
Atom residue num                           I   N=           7
           0           0           0           0           0           0
           0
Nuclear spins                              I   N=           7
           0           2           2           1           1           1
           1
Nuclear ZEff                               R   N=           7
 -3.60000000E+00 -4.55000000E+00 -4.55000000E+00 -1.00000000E+00 -1.00000000E+00
 -1.00000000E+00 -1.00000000E+00
Nuclear ZNuc                               R   N=           7
  6.00000000E+00  7.00000000E+00  7.00000000E+00  1.00000000E+00  1.00000000E+00
  1.00000000E+00  1.00000000E+00
Nuclear QMom                               R   N=           7
  0.00000000E+00  2.04400000E+00  2.04400000E+00  0.00000000E+00  0.00000000E+00
  0.00000000E+00  0.00000000E+00
Nuclear GFac                               R   N=           7
  0.00000000E+00  4.03761000E-01  4.03761000E-01  2.79284600E+00  2.79284600E+00
  2.79284600E+00  2.79284600E+00
MicOpt                                     I   N=           7
          -1          -1          -1          -1          -1          -1
          -1
Number of residues                         I                0
Number of secondary structures             I                0
Number of contracted shells                I               30
Number of primitive shells                 I               56
Pure/Cartesian d shells                    I                0
Pure/Cartesian f shells                    I                0
Highest angular momentum                   I                2
Largest degree of contraction              I                5
Shell types                                I   N=          30
           0           0           0           1           1          -2
           0           0           0           1           1          -2
           0           0           0           1           1          -2
           0           0           1           0           0           1
           0           0           1           0           0           1
Number of primitives per shell             I   N=          30
           5           1           1           3           1           1
           5           1           1           3           1           1
           5           1           1           3           1           1
           3           1           1           3           1           1
           3           1           1           3           1           1
Shell to atom map                          I   N=          30
           1           1           1           1           1           1
           2           2           2           2           2           2
           3           3           3           3           3           3
           4           4           4           5           5           5
           6           6           6           7           7           7
Primitive exponents                        R   N=          56
  1.23840169E+03  1.86290050E+02  4.22511763E+01  1.16765579E+01  3.59305065E+00
  4.02451474E-01  1.30901827E-01  9.46809706E+00  2.01035451E+00  5.47710047E-01
  1.52686138E-01  8.00000000E-01  1.71284159E+03  2.57648127E+02  5.84582459E+01
  1.61983679E+01  5.00526008E+00  5.87318566E-01  1.87645923E-01  1.35714702E+01
  2.92573729E+00  7.99277508E-01  2.19543480E-01  1.00000000E+00  1.71284159E+03
  2.57648127E+02  5.84582459E+01  1.61983679E+01  5.00526008E+00  5.87318566E-01
  1.87645923E-01  1.35714702E+01  2.92573729E+00  7.99277508E-01  2.19543480E-01
  1.00000000E+00  1.30107010E+01  1.96225720E+00  4.44537960E-01  1.21949620E-01
  8.00000000E-01  1.30107010E+01  1.96225720E+00  4.44537960E-01  1.21949620E-01
  8.00000000E-01  1.30107010E+01  1.96225720E+00  4.44537960E-01  1.21949620E-01
  8.00000000E-01  1.30107010E+01  1.96225720E+00  4.44537960E-01  1.21949620E-01
  8.00000000E-01
Contraction coefficients                   R   N=          56
  5.51736505E-03  4.10888286E-02  1.82253821E-01  4.68284594E-01  4.45758173E-01
  1.00000000E+00  1.00000000E+00  5.68883320E-02  3.12940593E-01  7.60650165E-01
  1.00000000E+00  1.00000000E+00 -5.44779958E-03 -4.06271746E-02 -1.81119623E-01
 -4.68439756E-01 -4.46168463E-01  1.00000000E+00  1.00000000E+00 -5.88481170E-02
 -3.20246248E-01 -7.53282265E-01  1.00000000E+00  1.00000000E+00 -5.44779958E-03
 -4.06271746E-02 -1.81119623E-01 -4.68439756E-01 -4.46168463E-01  1.00000000E+00
  1.00000000E+00 -5.88481170E-02 -3.20246248E-01 -7.53282265E-01  1.00000000E+00
  1.00000000E+00  3.34854848E-02  2.34721871E-01  8.13770285E-01  1.00000000E+00
  1.00000000E+00  3.34854848E-02  2.34721871E-01  8.13770285E-01  1.00000000E+00
  1.00000000E+00  3.34854848E-02  2.34721871E-01  8.13770285E-01  1.00000000E+00
  1.00000000E+00  3.34854848E-02  2.34721871E-01  8.13770285E-01  1.00000000E+00
  1.00000000E+00
Coordinates of each shell                  R   N=          90
  2.02695212E+00 -1.32657117E-01 -2.89151970E-01  2.02695212E+00 -1.32657117E-01
 -2.89151970E-01  2.02695212E+00 -1.32657117E-01 -2.89151970E-01  2.02695212E+00
 -1.32657117E-01 -2.89151970E-01  2.02695212E+00 -1.32657117E-01 -2.89151970E-01
  2.02695212E+00 -1.32657117E-01 -2.89151970E-01  4.49366243E+00 -1.69594780E-01
 -4.80718912E-01  4.49366243E+00 -1.69594780E-01 -4.80718912E-01  4.49366243E+00
 -1.69594780E-01 -4.80718912E-01  4.49366243E+00 -1.69594780E-01 -4.80718912E-01
  4.49366243E+00 -1.69594780E-01 -4.80718912E-01  4.49366243E+00 -1.69594780E-01
 -4.80718912E-01  5.82669740E+00 -6.96306974E-01 -2.47313900E+00  5.82669740E+00
 -6.96306974E-01 -2.47313900E+00  5.82669740E+00 -6.96306974E-01 -2.47313900E+00
  5.82669740E+00 -6.96306974E-01 -2.47313900E+00  5.82669740E+00 -6.96306974E-01
 -2.47313900E+00  5.82669740E+00 -6.96306974E-01 -2.47313900E+00  7.67994023E+00
 -5.53065660E-01 -1.97974669E+00  7.67994023E+00 -5.53065660E-01 -1.97974669E+00
  7.67994023E+00 -5.53065660E-01 -1.97974669E+00  1.20935456E+00  3.49890902E-01
  1.52789288E+00  1.20935456E+00  3.49890902E-01  1.52789288E+00  1.20935456E+00
  3.49890902E-01  1.52789288E+00  9.12820557E-01 -5.85776711E-01 -1.95345676E+00
  9.12820557E-01 -5.85776711E-01 -1.95345676E+00  9.12820557E-01 -5.85776711E-01
 -1.95345676E+00  5.41878558E+00  2.75672749E-01  1.15865244E+00  5.41878558E+00
  2.75672749E-01  1.15865244E+00  5.41878558E+00  2.75672749E-01  1.15865244E+00
Num ILSW                                   I              100
ILSW                                       I   N=         100
           1           0           0           0           2           0
           0           0           0           0        4639          -1
           5           0           0           0           2           0
           0           0           0           0           1           0
           1           1           0           0           0           0
           0           0      100000           0          -1           0
           0           0           0           0           0           0
           0           0           0           1           0           0
           0 -2000000000           1           0           0           0
           0           0         121          52           0           0
           0           0          58           0           0           0
           0           0           0           7           0           1
           0           0           0           0           0           0
           0           0           0           0           0           0
           0           0           0           0           0           0
           0           0           0           0           0           0
           0           0           0           0
Num RLSW                                   I               52
RLSW                                       R   N=          52
  1.00000000E+00  1.00000000E+00  1.00000000E+00  1.00000000E+00  1.00000000E+00
  0.00000000E+00  2.00000000E-01  2.22036000E-01  0.00000000E+00  7.77964000E-01
  0.00000000E+00  2.00000000E-01  0.00000000E+00  0.00000000E+00  1.00000000E+00
  0.00000000E+00  0.00000000E+00  1.00000000E+00  0.00000000E+00  0.00000000E+00
  0.00000000E+00  0.00000000E+00  1.00000000E+00  0.00000000E+00  0.00000000E+00
  0.00000000E+00  0.00000000E+00  1.00000000E+00  0.00000000E+00  0.00000000E+00
  0.00000000E+00  0.00000000E+00  1.00000000E+00  0.00000000E+00  0.00000000E+00
  0.00000000E+00  0.00000000E+00  0.00000000E+00  1.00000000E+00  1.00000000E+00
  0.00000000E+00  1.00000000E+00  0.00000000E+00  0.00000000E+00  0.00000000E+00
  0.00000000E+00  0.00000000E+00  0.00000000E+00  0.00000000E+00  0.00000000E+00
  0.00000000E+00  0.00000000E+00
MxBond                                     I                3
NBond                                      I   N=           7
           3           3           2           1           1           1
           1
IBond                                      I   N=          21
           2           5           6           1           3           7
           2           4           0           3           0           0
           1           0           0           1           0           0
           2           0           0
RBond                                      R   N=          21
  2.00000000E+00  1.00000000E+00  1.00000000E+00  2.00000000E+00  1.00000000E+00
  1.00000000E+00  1.00000000E+00  1.00000000E+00  0.00000000E+00  1.00000000E+00
  0.00000000E+00  0.00000000E+00  1.00000000E+00  0.00000000E+00  0.00000000E+00
  1.00000000E+00  0.00000000E+00  0.00000000E+00  1.00000000E+00  0.00000000E+00
  0.00000000E+00
Virial Ratio                               R      2.009432895677501E+00
SCF Energy                                 R     -1.497579746703278E+02
Total Energy                               R     -1.497579746703278E+02
S**2                                       R     -8.881784197001252E-15
S**2 after annihilation                    R     -1.339373056907786E-12
RMS Force                                  R      3.514788939366497E-03
RMS Density                                R      7.371279629351557E-10
Job Status                                 I                1
Nuclear derivative order                   I                1
External E-field                           R   N=          35
  0.00000000E+00  0.00000000E+00  0.00000000E+00  0.00000000E+00  0.00000000E+00
  0.00000000E+00  0.00000000E+00  0.00000000E+00  0.00000000E+00  0.00000000E+00
  0.00000000E+00  0.00000000E+00  0.00000000E+00  0.00000000E+00  0.00000000E+00
  0.00000000E+00  0.00000000E+00  0.00000000E+00  0.00000000E+00  0.00000000E+00
  0.00000000E+00  0.00000000E+00  0.00000000E+00  0.00000000E+00  0.00000000E+00
  0.00000000E+00  0.00000000E+00  0.00000000E+00  0.00000000E+00  0.00000000E+00
  0.00000000E+00  0.00000000E+00  0.00000000E+00  0.00000000E+00  0.00000000E+00
IOpCl                                      I                1
IROHF                                      I                0
Alpha Orbital Energies                     R   N=          62
 -1.45654690E+01 -1.44168311E+01 -1.03144546E+01 -1.12697250E+00 -8.93906109E-01
 -7.30228328E-01 -6.47143947E-01 -5.64300343E-01 -5.15537609E-01 -4.95703350E-01
 -3.51743774E-01 -2.63829733E-01  6.29741727E-02  1.07899800E-01  1.86779445E-01
  2.03504852E-01  2.25969178E-01  3.27529797E-01  4.21977112E-01  5.17885479E-01
  5.60358278E-01  5.86003236E-01  6.03656940E-01  6.69535794E-01  7.30806821E-01
  7.60761953E-01  7.68663127E-01  8.31346687E-01  8.60665141E-01  8.92426284E-01
  9.09218788E-01  1.02887053E+00  1.05198864E+00  1.14057352E+00  1.26564804E+00
  1.34745071E+00  1.36052479E+00  1.47224822E+00  1.59576139E+00  1.59627491E+00
  1.73324316E+00  1.74257150E+00  1.90171584E+00  1.96309145E+00  2.04235921E+00
  2.08676469E+00  2.11243747E+00  2.19541214E+00  2.26070277E+00  2.33372737E+00
  2.41347275E+00  2.53574988E+00  2.54394089E+00  2.64225843E+00  2.79478210E+00
  2.95485096E+00  2.97789699E+00  3.01744509E+00  3.16670420E+00  3.25977037E+00
  3.45974936E+00  3.68866873E+00
Beta Orbital Energies                      R   N=          62
 -1.45654690E+01 -1.44168311E+01 -1.03144546E+01 -1.12697250E+00 -8.93906109E-01
 -7.30228328E-01 -6.47143947E-01 -5.64300343E-01 -5.15537609E-01 -4.95703350E-01
 -3.51743774E-01 -2.63829733E-01  6.29741727E-02  1.07899800E-01  1.86779445E-01
  2.03504852E-01  2.25969178E-01  3.27529797E-01  4.21977112E-01  5.17885479E-01
  5.60358278E-01  5.86003236E-01  6.03656940E-01  6.69535794E-01  7.30806821E-01
  7.60761953E-01  7.68663127E-01  8.31346687E-01  8.60665141E-01  8.92426284E-01
  9.09218788E-01  1.02887053E+00  1.05198864E+00  1.14057352E+00  1.26564804E+00
  1.34745071E+00  1.36052479E+00  1.47224822E+00  1.59576139E+00  1.59627491E+00
  1.73324316E+00  1.74257150E+00  1.90171584E+00  1.96309145E+00  2.04235921E+00
  2.08676469E+00  2.11243747E+00  2.19541214E+00  2.26070277E+00  2.33372737E+00
  2.41347275E+00  2.53574988E+00  2.54394089E+00  2.64225843E+00  2.79478210E+00
  2.95485096E+00  2.97789699E+00  3.01744509E+00  3.16670420E+00  3.25977037E+00
  3.45974936E+00  3.68866873E+00
Alpha MO coefficients                      R   N=        3844
 -4.29437076E-04  1.44935955E-03 -1.35444244E-02  1.75441745E-03 -1.18550619E-05
 -8.24877550E-05 -5.36639563E-03  7.98224089E-04  3.09208176E-03 -1.12663296E-03
  3.54137458E-05 -7.95649204E-05  1.67522427E-03  2.90068175E-05  9.88507301E-01
 -4.45756516E-02  3.31386974E-02 -2.00024304E-04  1.58726849E-04  5.95882718E-04
 -3.84740839E-03 -1.25696133E-03 -4.60104352E-03 -8.67726998E-04 -2.89872316E-04
 -7.88768174E-04 -1.21850469E-03 -9.33122335E-05  5.99745431E-04  1.24481001E-03
 -6.99981806E-03  7.18699767E-04 -3.62890238E-04 -1.36837134E-03  1.89328425E-03
 -4.88112098E-04 -1.86085457E-03  1.15599906E-03 -1.20919603E-03  6.73540319E-04
  3.55924728E-04 -3.19181044E-04  2.19423338E-04 -2.32716017E-04  1.00840912E-04
 -3.48859876E-05 -1.32231668E-04  7.27491002E-06  3.35863406E-04  2.60841268E-04
  6.89131640E-06  2.01180472E-05  7.43690967E-04  2.41395342E-03  2.01901682E-04
 -5.22667853E-05 -1.99208833E-04  3.65234388E-03 -2.80529476E-03 -1.75972299E-03
 -8.11508390E-04 -2.98613031E-03  8.19807447E-07  4.71735993E-04 -1.53219543E-03
  3.59723833E-05 -5.55223014E-05 -2.07783843E-04 -1.60045019E-03  1.21209892E-03
  4.55324591E-03 -3.05616268E-05 -3.09457110E-05 -1.07694298E-04 -3.18675576E-04
 -1.22025011E-05  8.09625467E-05  1.16522803E-03 -2.17761026E-03 -8.80715384E-04
  2.61524148E-04  9.94062358E-04 -1.35773705E-03 -7.09323630E-04 -2.61427030E-03
  9.90375781E-04 -1.66630041E-03  6.41011803E-04  5.40989679E-04 -4.39702231E-04
  9.88975930E-01 -4.09434834E-02  1.81035369E-02  1.49305582E-03  9.52298085E-04
  3.51690791E-03 -3.95218957E-04  6.02469251E-04  2.25422237E-03  2.71835113E-04
  1.57094551E-04 -3.20763651E-04 -1.58396234E-03  2.30507751E-05  3.42659136E-03
 -4.32442511E-03 -3.35775369E-03 -3.31217329E-04 -1.16114496E-03 -8.47986306E-04
 -2.25854145E-03  4.45309096E-05  2.27320162E-05  8.38901138E-05  1.12582865E-03
  1.18383270E-03  1.79701667E-04 -1.74841830E-05 -6.92087640E-05  1.15905019E-03
  9.48264753E-04 -1.82714655E-04  1.93206331E-05  7.60570030E-05  9.88396496E-01
  4.78100824E-02 -1.58912446E-02  1.16108591E-03  1.77478529E-05  4.20688752E-05
  6.54833839E-03  3.24091416E-04  1.06397210E-03  1.45108307E-03  1.59051353E-04
  1.39333502E-03  2.30292929E-03  7.20410715E-05 -1.21123967E-04 -9.12661350E-04
 -5.76094632E-03 -9.78462681E-04  1.00047599E-05  5.86576990E-05  1.11460614E-02
 -7.64585257E-04 -3.09313668E-03  3.08518705E-04  9.61923587E-05 -2.48498697E-04
 -1.39608861E-03  9.08002958E-06  9.23979007E-06 -5.66833972E-05 -4.25605769E-03
 -1.18494125E-04 -9.48946996E-06 -3.27962610E-05 -1.39726328E-03 -7.32663910E-04
 -2.70056313E-03 -3.59426738E-04 -2.45605815E-04 -1.27868596E-04  1.85952358E-04
 -6.39168070E-05  7.15723654E-04  1.76743778E-04  2.63349717E-04 -9.78377324E-05
 -3.70421171E-04 -4.93773642E-03  5.49509016E-03 -1.47081285E-03  6.26476218E-04
  2.36817413E-03 -4.27837038E-03  6.72717240E-03 -1.79876523E-03 -5.77988118E-04
 -2.11453186E-03  2.49531818E-04  1.15929378E-04 -1.46912216E-03  8.78515531E-05
  3.59500016E-04 -8.13977060E-02  1.52864700E-01  2.80961619E-02  9.86214164E-02
 -2.14942555E-03 -1.01645484E-02  1.75504518E-02  5.81689070E-03  2.12986555E-02
 -6.05333245E-03 -1.19359192E-03  2.45801040E-04  1.13622601E-02 -1.86771882E-04
  2.43446813E-01  4.98156355E-01  1.83722808E-01 -2.09695138E-02  1.46573374E-02
  5.50970339E-02  2.34477983E-02 -1.05836465E-02 -3.99613215E-02  3.44001474E-03
 -8.87870152E-03  4.65716442E-03  1.03584888E-02 -2.25319010E-03  1.39430746E-01
  2.73500970E-01  6.27063192E-02  4.85017357E-02 -3.23894257E-02 -1.21788276E-01
 -7.82257532E-03  4.16837890E-03  1.57073296E-02  9.12614277E-03 -9.78104552E-03
  5.52710415E-03  3.54071724E-03 -2.57401875E-03  6.70430443E-02  3.91019210E-03
 -1.16926364E-02  4.16613392E-04  1.80851419E-03  1.79907709E-02 -7.33340548E-03
  2.60091778E-03 -1.04140933E-03 -3.93918829E-03  2.45278097E-02  1.23880947E-02
  2.95424165E-03  8.79135660E-04  3.21161367E-03  1.21124946E-01  3.17715766E-04
 -9.89956002E-03 -3.95734634E-03 -1.45343278E-02  1.53876529E-01 -2.92854689E-01
 -5.85959730E-02 -1.23920571E-01 -6.37717778E-03 -2.10741348E-02 -1.08507556E-02
 -1.99685746E-03 -7.20523061E-03  6.43054232E-03 -3.68410437E-03 -7.75441803E-04
 -1.37335650E-02 -1.15051039E-03 -7.09996111E-02 -1.45737988E-01 -5.59266926E-02
 -2.63585257E-01  4.94803485E-02  1.90194363E-01  1.10574313E-01 -1.72459840E-02
 -6.67024832E-02  5.98465352E-03 -8.12715598E-03  1.97411845E-03 -3.34574485E-03
 -2.21658798E-03  1.77388214E-01  3.62553910E-01  1.34592228E-01 -3.39943154E-02
 -2.80314219E-02 -1.03741111E-01  4.99432027E-03  3.02021584E-03  1.11490521E-02
  5.99240197E-03 -7.10647207E-04  3.73367615E-03  2.55268633E-03 -1.54837713E-04
  1.51768717E-01  1.63131623E-02 -1.78152959E-02 -4.27196436E-04 -1.20293677E-03
 -8.21521945E-02 -1.08942510E-02 -5.10863751E-03  2.48752986E-03  9.38591680E-03
 -5.81919503E-02 -9.01919111E-03 -4.89074826E-03 -1.93498690E-03 -7.10497894E-03
 -8.19558114E-02 -9.37336401E-03  1.19560696E-02  1.32961253E-03  4.69474162E-03
  1.39452148E-01 -2.79552509E-01 -8.05264959E-02  2.12358464E-02  2.45828713E-02
  9.11407336E-02  2.55530826E-02  7.84020827E-03  2.86606423E-02 -3.18012071E-03
  1.07819863E-02 -1.98320628E-03 -1.60324478E-03  2.87076518E-03  6.90745294E-02
  1.48848265E-01  5.16978904E-02 -2.27543603E-01 -8.30071252E-02 -3.04406792E-01
  9.31847569E-02  2.99127927E-02  1.09452438E-01  4.16717388E-03  5.61168641E-03
  9.69279557E-04 -3.99829768E-03  1.46035120E-03 -7.61708306E-02 -1.62171927E-01
 -8.09039704E-02 -5.23887622E-02 -5.93864623E-03 -2.09868689E-02  2.43485646E-02
  6.56743545E-03  2.39450771E-02  9.09392346E-03  7.07738606E-03  2.83745852E-03
 -6.10215289E-03  1.83165044E-03 -2.74383994E-02 -5.18319276E-03  2.30948627E-03
  1.12832185E-03  4.15513361E-03 -7.56285434E-02 -1.87549400E-02 -1.79517993E-03
  2.21245787E-03  8.28685579E-03 -1.56106854E-01 -2.23191948E-02 -7.45345960E-03
 -3.16638958E-03 -1.16381354E-02  3.26334501E-01  5.34618128E-02 -1.16353448E-02
 -6.48681165E-03 -2.39252293E-02  1.05704733E-01 -2.13463399E-01 -1.17343561E-01
  1.65273584E-01 -3.42427330E-02 -1.31291416E-01  4.03882352E-02 -9.09270630E-03
 -3.47847537E-02 -8.97954008E-03 -7.06114036E-03 -3.02173833E-03  5.26254890E-03
 -1.83811937E-03  8.10345526E-02  1.92136890E-01  1.31708963E-01  5.45528049E-02
  5.90204568E-02  2.18818236E-01 -2.16884655E-02 -3.10297862E-02 -1.15197709E-01
  6.61400332E-03  3.60802665E-03  1.77764861E-03 -5.39012057E-03  9.07124237E-04
 -6.67997658E-02 -1.31410349E-01 -1.28187445E-01  2.86988090E-01 -1.57854592E-02
 -6.51096600E-02 -8.39176248E-02  1.42672364E-03  7.15191985E-03  5.07760833E-03
 -1.89139321E-02  1.69287839E-03 -2.49592269E-03 -5.10126851E-03 -2.61729953E-01
 -6.39023560E-02  1.85890419E-02  1.45239572E-03  5.00713753E-03 -2.26050875E-01
 -5.44051260E-02 -5.33088608E-03  3.53143016E-03  1.32825756E-02 -8.89344488E-02
 -1.61528657E-02 -8.64416907E-04 -2.47343707E-03 -9.20060807E-03 -8.69021592E-02
 -2.06201506E-02  3.22884621E-03  1.36738964E-03  5.02568861E-03  4.09924161E-02
 -7.25928446E-02 -7.87073389E-02  3.44321814E-01  6.37702518E-03  1.61805272E-02
  1.03690098E-01  1.32812415E-03  2.66077225E-03 -1.42181477E-02 -1.62967606E-03
 -3.21344591E-03  1.35480619E-02 -2.83929530E-04 -2.26996783E-03 -4.52585627E-03
 -3.58855659E-02  3.70372514E-01 -2.36844515E-02 -9.63173742E-02 -1.46455511E-01
  1.40145694E-02  5.54021537E-02 -7.14520214E-03 -2.78459257E-03 -2.93930901E-03
  2.27446335E-03 -7.25671719E-04  6.05998493E-02  1.20574795E-01  1.27726383E-01
 -2.12085762E-01  4.09003265E-02  1.57116255E-01  6.28192516E-02 -1.65321071E-02
 -6.30088294E-02 -1.77270543E-02  9.67022240E-03 -6.65029074E-03  7.47019930E-03
  2.67145908E-03  2.11722963E-01  6.66278080E-02 -1.13036599E-02 -2.73673205E-03
 -9.95494775E-03 -1.47013179E-01 -3.91993288E-02  1.09275146E-03  2.66363269E-03
  9.90478528E-03 -1.95862254E-01 -5.03527293E-02 -1.93045927E-03 -3.16825360E-03
 -1.17668907E-02 -9.12856276E-02 -3.41033279E-02 -7.68563484E-03  2.12171451E-03
  8.07453172E-03  7.26216183E-06 -1.55137026E-05 -1.06529957E-05  1.25103065E-03
 -2.10088076E-01  5.63922019E-02  6.03888111E-04 -1.01234451E-01  2.71645116E-02
 -3.65773223E-04  5.96207514E-03  7.63747992E-04  5.01686296E-05 -2.22449328E-02
  2.93331252E-06  7.50123036E-06 -7.77483462E-07 -2.84820215E-03  4.87715113E-01
 -1.30840406E-01  1.86221194E-03 -3.18431935E-01  8.54338795E-02 -3.22805894E-03
 -3.97851924E-04  6.44524571E-03 -1.87940063E-03  1.31461641E-03  2.18357049E-06
  4.92124285E-06  9.00714775E-06 -1.39750120E-03  2.39046785E-01 -6.41310836E-02
  7.78529534E-04 -1.33257210E-01  3.57516862E-02  1.02534662E-02 -1.72913652E-03
 -2.04889864E-02  5.83884324E-03  6.96030945E-03 -2.62047863E-06 -1.16971683E-06
  5.89218860E-05 -1.00077737E-02  2.68468020E-03  1.71118629E-05  9.57581177E-06
  3.59956572E-05 -5.95825116E-03  1.59788628E-03 -3.06933811E-05 -1.11792716E-05
  3.08226559E-05 -5.37838789E-03  1.44199831E-03 -1.39631008E-05 -5.49470476E-06
  9.65460890E-05 -1.64453377E-02  4.41326587E-03  9.25921541E-03 -2.68111048E-02
 -1.84923860E-02  3.81009832E-02  1.08786655E-01  4.04617550E-01  2.58791046E-02
  3.39281252E-02  1.25869854E-01  2.83001852E-03 -1.44390360E-02  8.77449366E-04
 -1.51867831E-03 -3.88854685E-03  4.63424284E-04  1.03246199E-02 -4.04314651E-02
  6.78746585E-03  3.69101457E-02  1.37572104E-01 -3.07993451E-02 -4.24501153E-03
 -1.52435129E-02  5.39234624E-03 -1.86196381E-02  1.57680023E-03 -3.44493114E-03
 -5.03338583E-03  2.58495012E-02  6.22155661E-02  9.91255826E-02  1.45613450E-01
 -1.03988551E-02 -4.18688217E-02 -6.52061157E-02  8.53214135E-03  3.31835501E-02
  2.19848683E-03 -9.82651523E-03  7.24036461E-04 -1.08024843E-03 -2.64852768E-03
 -1.03445059E-01 -4.81174373E-02  5.60359732E-03  1.66570196E-04  4.95314901E-04
  3.17065537E-01  1.39351861E-01  1.07051946E-02 -1.97626481E-03 -7.60653645E-03
 -3.24901816E-01 -1.16317974E-01 -1.09040541E-02 -2.22958691E-03 -8.07065169E-03
 -1.34841509E-01 -5.06086279E-02  9.73322222E-04  1.86620360E-03  6.93013256E-03
  2.92542298E-02 -9.27578124E-02 -8.28025585E-02 -8.65382166E-02  1.37970557E-04
  2.41200617E-03 -3.87269193E-03 -2.75395834E-03 -1.01839667E-02  2.54176073E-03
  7.45543993E-03  1.22146327E-03 -3.52623019E-04  1.99815231E-03 -3.39570120E-02
 -8.82090475E-02 -1.08484749E-01 -2.35483392E-02 -4.10687486E-02 -1.52565011E-01
 -5.91117293E-02  2.20782648E-02  8.35910374E-02  2.22942524E-02  1.38308621E-02
  6.69422517E-03 -1.57829964E-02  3.53629889E-03  1.22531154E-01  2.43887919E-01
  4.60325852E-01  2.45450818E-01  1.13211148E-01  4.16612865E-01 -1.60346009E-01
 -7.11206889E-02 -2.61585774E-01 -1.52192111E-02 -1.20632738E-02 -8.99826994E-03
 -4.48241876E-03 -3.30329643E-03 -2.21805472E-01 -1.16414047E-01  1.01532267E-02
 -4.31481361E-03 -1.63048402E-02 -1.35696053E-03  2.31429851E-02 -1.26774487E-03
 -3.23814442E-04 -1.17950592E-03  3.51670940E-02  7.45669919E-02  1.26746528E-03
 -2.73999945E-05 -1.29678822E-04  1.95320139E-01  1.15693705E-01 -6.13406044E-03
 -5.65492739E-04 -1.97408339E-03 -7.07655745E-06  1.59891306E-05  1.88212332E-05
 -2.34453909E-03  3.98235285E-01 -1.06831715E-01 -2.06033632E-03  3.49932340E-01
 -9.38677984E-02 -1.08367780E-03 -3.33760520E-03  2.14612970E-03 -7.71113013E-04
  1.23863680E-02 -1.92468782E-06 -5.21593251E-06 -1.97465800E-07  2.96027689E-04
 -5.12605845E-02  1.37535877E-02 -9.80383476E-05  1.69879193E-02 -4.56123331E-03
 -9.85528191E-03  8.69193915E-03  1.97337355E-02 -5.30442975E-03 -3.28962535E-02
  7.32374443E-07  1.64114730E-06  2.19532933E-07 -2.59460544E-03  4.42560210E-01
 -1.18733016E-01  2.27640268E-03 -3.88149677E-01  1.04133891E-01  9.09465713E-03
  1.04093436E-03 -1.81571631E-02  5.29102220E-03 -3.42096834E-03 -1.32869322E-06
 -1.36410283E-06  1.25201793E-04 -2.13542101E-02  5.72905816E-03 -6.86370223E-06
 -6.57055050E-06 -8.78826380E-05  1.48648941E-02 -3.98694266E-03 -5.82140094E-06
  2.98927108E-06 -7.47088433E-05  1.26560969E-02 -3.39584935E-03 -5.22305199E-07
  5.76427111E-07 -2.85193391E-05  4.80562535E-03 -1.28926553E-03  8.20401138E-06
 -1.51346841E-05 -6.12722024E-05  2.08001353E-03 -3.52287082E-01  9.45041524E-02
  2.99657050E-03 -5.06151172E-01  1.35779824E-01  8.39745383E-05 -5.53589088E-03
 -1.99636608E-04 -1.93493468E-04  2.06353318E-02 -4.69213631E-08  1.84769189E-06
 -1.73822824E-05  2.52039964E-03 -4.28466247E-01  1.14956026E-01 -2.99551186E-03
  5.10442486E-01 -1.36952866E-01 -6.96157042E-03 -2.48345873E-03  1.38896482E-02
 -4.12411329E-03  8.90840941E-03 -1.51482621E-06 -2.99678360E-06 -1.20929493E-05
 -1.88555606E-03  3.21282453E-01 -8.61957041E-02  2.25900219E-03 -3.85149698E-01
  1.03328824E-01 -9.71546291E-04  2.88739279E-03  1.95681856E-03 -4.33617140E-04
 -1.08110765E-02  4.29068784E-06  9.70617850E-06  1.01875687E-04 -1.73546128E-02
  4.65603777E-03  1.86384774E-05  3.55160414E-05  1.14132979E-04 -1.94917204E-02
  5.22844664E-03  1.10433263E-05  2.43842403E-05  1.12017426E-04 -1.89966395E-02
  5.09672113E-03  8.00166068E-06  1.26323983E-05 -1.50231723E-04  2.55799980E-02
 -6.86288953E-03  2.70684463E-02 -5.18270206E-02 -3.36953276E-01  6.20013734E-02
 -2.40134527E-02 -9.09073022E-02  1.88737045E-01 -7.40649836E-02 -2.80309570E-01
  7.10733116E-03 -1.40967201E-02  2.41792701E-03 -3.61584440E-03 -3.82125261E-03
 -7.46966613E-02 -1.36194402E-01 -9.01029360E-01  1.21514147E-01  6.19329215E-02
  2.28150592E-01 -1.74342331E-01 -9.25307378E-02 -3.41007995E-01  5.13984056E-03
  1.66782299E-02  1.66356075E-03 -3.53641624E-03  4.43531414E-03 -4.30772181E-02
 -7.88726142E-02 -3.85478046E-01  1.00518752E-01 -3.23177064E-03 -1.42228598E-02