0002_q000_m01_k00_opt_uwb97xd_def2svpd/0002_q000_m01_k00_force_ub3lyp_de
Force     UB3LYP                                                      Gen                 
Number of atoms                            I                6
Info1-9                                    I   N=           9
          13           9           0           0           0         100
           5          18        -502
Full Title                                 C   N=           8
0002_q000_m01_k00_opt_uwb97xd_def2svpd/0002_q000_m01_k00_for
ce_ub3lyp_def2svpd stable-force     
Route                                      C   N=          15
#p ub3lyp/chkbasis force guess=read geom=check scf=(maxcycle
=900,verytightlineq,xqc) integral=grid=ultrafine symmetry=No
ne density=current pop=(cm5,hlygat,mbs,npa) output=wfx      
Charge                                     I                0
Multiplicity                               I                1
Number of electrons                        I               24
Number of alpha electrons                  I               12
Number of beta electrons                   I               12
Number of basis functions                  I               87
Number of independent functions            I               87
Number of point charges in /Mol/           I                0
Number of translation vectors              I                0
Atomic numbers                             I   N=           6
           6           7           1           8           1           1
Nuclear charges                            R   N=           6
  6.00000000E+00  7.00000000E+00  1.00000000E+00  8.00000000E+00  1.00000000E+00
  1.00000000E+00
Current cartesian coordinates              R   N=          18
  1.76526120E+00 -9.56393551E-02  1.00895621E-01  4.21476231E+00 -1.14759850E-01
  1.83592472E-01  5.12197023E+00  2.73169593E-01 -1.49843980E+00  5.62552287E+00
 -5.41213095E-01  2.03257921E+00  8.69741593E-01  3.19707205E-01 -1.70041362E+00
  7.24411360E-01 -4.93862518E-01  1.82729168E+00
Number of symbols in /Mol/                 I                0
Int Atom Types                             I   N=           6
           0           0           0           0           0           0
Force Field                                I                0
Atom Types                                 C   N=           6
                                                            
            
MM charges                                 R   N=           6
  0.00000000E+00  0.00000000E+00  0.00000000E+00  0.00000000E+00  0.00000000E+00
  0.00000000E+00
Integer atomic weights                     I   N=           6
          12          14           1          16           1           1
Real atomic weights                        R   N=           6
  1.20000000E+01  1.40030740E+01  1.00782504E+00  1.59949146E+01  1.00782504E+00
  1.00782504E+00
Atom fragment info                         I   N=           6
           0           0           0           0           0           0
Atom residue num                           I   N=           6
           0           0           0           0           0           0
Nuclear spins                              I   N=           6
           0           2           1           0           1           1
Nuclear ZEff                               R   N=           6
 -3.60000000E+00 -4.55000000E+00 -1.00000000E+00 -5.60000000E+00 -1.00000000E+00
 -1.00000000E+00
Nuclear ZNuc                               R   N=           6
  6.00000000E+00  7.00000000E+00  1.00000000E+00  8.00000000E+00  1.00000000E+00
  1.00000000E+00
Nuclear QMom                               R   N=           6
  0.00000000E+00  2.04400000E+00  0.00000000E+00  0.00000000E+00  0.00000000E+00
  0.00000000E+00
Nuclear GFac                               R   N=           6
  0.00000000E+00  4.03761000E-01  2.79284600E+00  0.00000000E+00  2.79284600E+00
  2.79284600E+00
MicOpt                                     I   N=           6
          -1          -1          -1          -1          -1          -1
Number of residues                         I                0
Number of secondary structures             I                0
Number of contracted shells                I               37
Number of primitive shells                 I               61
Pure/Cartesian d shells                    I                0
Pure/Cartesian f shells                    I                0
Highest angular momentum                   I                2
Largest degree of contraction              I                5
Shell types                                I   N=          37
           0           0           0           0           1           1
          -2          -2           0           0           0           0
           1           1          -2          -2           0           0
           1           1           0           0           0           0
           1           1           1          -2          -2           0
           0           1           1           0           0           1
           1
Number of primitives per shell             I   N=          37
           5           1           1           1           3           1
           1           1           5           1           1           1
           3           1           1           1           3           1
           1           1           5           1           1           1
           3           1           1           1           1           3
           1           1           1           3           1           1
           1
Shell to atom map                          I   N=          37
           1           1           1           1           1           1
           1           1           2           2           2           2
           2           2           2           2           3           3
           3           3           4           4           4           4
           4           4           4           4           4           5
           5           5           5           6           6           6
           6
Primitive exponents                        R   N=          61
  1.23840169E+03  1.86290050E+02  4.22511763E+01  1.16765579E+01  3.59305065E+00
  4.02451474E-01  1.30901827E-01  6.70535403E-02  9.46809706E+00  2.01035451E+00
  5.47710047E-01  1.52686138E-01  8.00000000E-01  1.17131851E-01  1.71284159E+03
  2.57648127E+02  5.84582459E+01  1.61983679E+01  5.00526008E+00  5.87318566E-01
  1.87645923E-01  9.61712415E-02  1.35714702E+01  2.92573729E+00  7.99277508E-01
  2.19543480E-01  1.00000000E+00  1.66977081E-01  1.30107010E+01  1.96225720E+00
  4.44537960E-01  1.21949620E-01  8.00000000E-01  1.17040991E-01  2.26617678E+03
  3.40870102E+02  7.73631352E+01  2.14796449E+01  6.65894331E+00  8.09759757E-01
  2.55307722E-01  7.65724533E-02  1.77215043E+01  3.86355054E+00  1.04809209E+00
  2.76415444E-01  6.90022764E-02  1.20000000E+00  1.79920243E-01  1.30107010E+01
  1.96225720E+00  4.44537960E-01  1.21949620E-01  8.00000000E-01  1.17040991E-01
  1.30107010E+01  1.96225720E+00  4.44537960E-01  1.21949620E-01  8.00000000E-01
  1.17040991E-01
Contraction coefficients                   R   N=          61
  5.51736505E-03  4.10888286E-02  1.82253821E-01  4.68284594E-01  4.45758173E-01
  1.00000000E+00  1.00000000E+00  1.00000000E+00  5.68883320E-02  3.12940593E-01
  7.60650165E-01  1.00000000E+00  1.00000000E+00  1.00000000E+00 -5.44779958E-03
 -4.06271746E-02 -1.81119623E-01 -4.68439756E-01 -4.46168463E-01  1.00000000E+00
  1.00000000E+00  1.00000000E+00 -5.88481170E-02 -3.20246248E-01 -7.53282265E-01
  1.00000000E+00  1.00000000E+00  1.00000000E+00  3.34854848E-02  2.34721871E-01
  8.13770285E-01  1.00000000E+00  1.00000000E+00  1.00000000E+00 -5.38935039E-03
 -4.02347214E-02 -1.80081842E-01 -4.68288577E-01 -4.46926172E-01  1.00000000E+00
  1.00000000E+00  1.00000000E+00  6.26302488E-02  3.33311385E-01  7.41486383E-01
  1.00000000E+00  1.00000000E+00  1.00000000E+00  1.00000000E+00  3.34854848E-02
  2.34721871E-01  8.13770285E-01  1.00000000E+00  1.00000000E+00  1.00000000E+00
  3.34854848E-02  2.34721871E-01  8.13770285E-01  1.00000000E+00  1.00000000E+00
  1.00000000E+00
Coordinates of each shell                  R   N=         111
  1.76526120E+00 -9.56393551E-02  1.00895621E-01  1.76526120E+00 -9.56393551E-02
  1.00895621E-01  1.76526120E+00 -9.56393551E-02  1.00895621E-01  1.76526120E+00
 -9.56393551E-02  1.00895621E-01  1.76526120E+00 -9.56393551E-02  1.00895621E-01
  1.76526120E+00 -9.56393551E-02  1.00895621E-01  1.76526120E+00 -9.56393551E-02
  1.00895621E-01  1.76526120E+00 -9.56393551E-02  1.00895621E-01  4.21476231E+00
 -1.14759850E-01  1.83592472E-01  4.21476231E+00 -1.14759850E-01  1.83592472E-01
  4.21476231E+00 -1.14759850E-01  1.83592472E-01  4.21476231E+00 -1.14759850E-01
  1.83592472E-01  4.21476231E+00 -1.14759850E-01  1.83592472E-01  4.21476231E+00
 -1.14759850E-01  1.83592472E-01  4.21476231E+00 -1.14759850E-01  1.83592472E-01
  4.21476231E+00 -1.14759850E-01  1.83592472E-01  5.12197023E+00  2.73169593E-01
 -1.49843980E+00  5.12197023E+00  2.73169593E-01 -1.49843980E+00  5.12197023E+00
  2.73169593E-01 -1.49843980E+00  5.12197023E+00  2.73169593E-01 -1.49843980E+00
  5.62552287E+00 -5.41213095E-01  2.03257921E+00  5.62552287E+00 -5.41213095E-01
  2.03257921E+00  5.62552287E+00 -5.41213095E-01  2.03257921E+00  5.62552287E+00
 -5.41213095E-01  2.03257921E+00  5.62552287E+00 -5.41213095E-01  2.03257921E+00
  5.62552287E+00 -5.41213095E-01  2.03257921E+00  5.62552287E+00 -5.41213095E-01
  2.03257921E+00  5.62552287E+00 -5.41213095E-01  2.03257921E+00  5.62552287E+00
 -5.41213095E-01  2.03257921E+00  8.69741593E-01  3.19707205E-01 -1.70041362E+00
  8.69741593E-01  3.19707205E-01 -1.70041362E+00  8.69741593E-01  3.19707205E-01
 -1.70041362E+00  8.69741593E-01  3.19707205E-01 -1.70041362E+00  7.24411360E-01
 -4.93862518E-01  1.82729168E+00  7.24411360E-01 -4.93862518E-01  1.82729168E+00
  7.24411360E-01 -4.93862518E-01  1.82729168E+00  7.24411360E-01 -4.93862518E-01
  1.82729168E+00
Num ILSW                                   I              100
ILSW                                       I   N=         100
           1           0           0           0           2           0
           0           0           0           0         402          -1
           5           0           0           0           2           0
           0           0           0           0           1           0
           1           1           0           0           0           0
           0           0      100000           0          -1           0
           0           0           0           0           0           0
           0           0           0           1           0           0
           0 -2000000000           1           0           0           0
           0           0           4          52           0           0
           0           0           5           0           0           0
           0           0           0           6           0           1
           0           0           0           0           0           0
           0           0           0           0           0           0
           0           0           0           0           0           0
           0           0           0           0           0           0
           0           0           0           0
Num RLSW                                   I               52
RLSW                                       R   N=          52
  8.00000000E-01  7.20000000E-01  1.00000000E+00  8.10000000E-01  2.00000000E-01
  0.00000000E+00  0.00000000E+00  1.00000000E+00  0.00000000E+00  0.00000000E+00
  0.00000000E+00  0.00000000E+00  1.00000000E+00  0.00000000E+00  0.00000000E+00
  0.00000000E+00  0.00000000E+00  1.00000000E+00  0.00000000E+00  0.00000000E+00
  0.00000000E+00  0.00000000E+00  1.00000000E+00  0.00000000E+00  0.00000000E+00
  0.00000000E+00  0.00000000E+00  1.00000000E+00  0.00000000E+00  0.00000000E+00
  0.00000000E+00  0.00000000E+00  1.00000000E+00  0.00000000E+00  0.00000000E+00
  0.00000000E+00  0.00000000E+00  0.00000000E+00  1.00000000E+00  1.00000000E+00
  0.00000000E+00  1.00000000E+00  0.00000000E+00  0.00000000E+00  0.00000000E+00
  0.00000000E+00  0.00000000E+00  0.00000000E+00  0.00000000E+00  0.00000000E+00
  0.00000000E+00  0.00000000E+00
MxBond                                     I                3
NBond                                      I   N=           6
           3           3           1           1           1           1
IBond                                      I   N=          18
           2           5           6           1           3           4
           2           0           0           2           0           0
           1           0           0           1           0           0
RBond                                      R   N=          18
  2.00000000E+00  1.00000000E+00  1.00000000E+00  2.00000000E+00  1.00000000E+00
  2.00000000E+00  1.00000000E+00  0.00000000E+00  0.00000000E+00  2.00000000E+00
  0.00000000E+00  0.00000000E+00  1.00000000E+00  0.00000000E+00  0.00000000E+00
  1.00000000E+00  0.00000000E+00  0.00000000E+00
Virial Ratio                               R      2.009108056008928E+00
SCF Energy                                 R     -1.696903921354762E+02
Total Energy                               R     -1.696903921354762E+02
S**2                                       R     -8.881784197001252E-15
S**2 after annihilation                    R     -8.846257060213231E-13
RMS Force                                  R      3.109297174996721E-03
RMS Density                                R      1.186598789210696E-09
Job Status                                 I                1
Nuclear derivative order                   I                1
External E-field                           R   N=          35
  0.00000000E+00  0.00000000E+00  0.00000000E+00  0.00000000E+00  0.00000000E+00
  0.00000000E+00  0.00000000E+00  0.00000000E+00  0.00000000E+00  0.00000000E+00
  0.00000000E+00  0.00000000E+00  0.00000000E+00  0.00000000E+00  0.00000000E+00
  0.00000000E+00  0.00000000E+00  0.00000000E+00  0.00000000E+00  0.00000000E+00
  0.00000000E+00  0.00000000E+00  0.00000000E+00  0.00000000E+00  0.00000000E+00
  0.00000000E+00  0.00000000E+00  0.00000000E+00  0.00000000E+00  0.00000000E+00
  0.00000000E+00  0.00000000E+00  0.00000000E+00  0.00000000E+00  0.00000000E+00
IOpCl                                      I                1
IROHF                                      I                0
Alpha Orbital Energies                     R   N=          87
 -1.91322344E+01 -1.44866676E+01 -1.02417238E+01 -1.12063335E+00 -8.67415645E-01
 -6.70306564E-01 -5.58577013E-01 -4.93871896E-01 -4.69667867E-01 -4.32554633E-01
 -2.72866138E-01 -2.49195118E-01 -4.83310477E-02  4.67336916E-03  3.77349546E-02
  9.50465581E-02  9.92762814E-02  1.15330703E-01  1.18335902E-01  1.33095824E-01
  1.59378960E-01  1.70622977E-01  1.83758422E-01  2.13389643E-01  2.51931470E-01
  2.57555809E-01  2.84347613E-01  2.99733224E-01  3.16540660E-01  3.34995420E-01
  3.38772158E-01  3.54529077E-01  3.85409975E-01  4.01483976E-01  4.26445251E-01
  4.33726021E-01  4.62401195E-01  4.79312853E-01  5.17708621E-01  5.46842460E-01
  5.97528038E-01  6.05324647E-01  6.08934242E-01  6.28364481E-01  6.43906748E-01
  6.60099230E-01  6.91232026E-01  7.25826629E-01  7.45250139E-01  8.48732812E-01
  9.36454358E-01  9.69973521E-01  1.03289613E+00  1.06234284E+00  1.10134135E+00
  1.15701957E+00  1.26303387E+00  1.40342100E+00  1.43052552E+00  1.49721478E+00
  1.54931618E+00  1.56280361E+00  1.60620814E+00  1.61345681E+00  1.76768954E+00
  1.77714667E+00  1.78289921E+00  1.90309783E+00  1.93303400E+00  2.03904430E+00
  2.08549128E+00  2.16710983E+00  2.19016575E+00  2.20492204E+00  2.34514101E+00
  2.40336039E+00  2.59601551E+00  2.61128112E+00  2.82001750E+00  2.87419307E+00
  2.88093830E+00  2.98877178E+00  3.12106195E+00  3.20613400E+00  3.33089972E+00
  3.59557932E+00  3.92742804E+00
Beta Orbital Energies                      R   N=          87
 -1.91322344E+01 -1.44866676E+01 -1.02417238E+01 -1.12063335E+00 -8.67415645E-01
 -6.70306564E-01 -5.58577013E-01 -4.93871896E-01 -4.69667867E-01 -4.32554633E-01
 -2.72866138E-01 -2.49195118E-01 -4.83310477E-02  4.67336916E-03  3.77349546E-02
  9.50465581E-02  9.92762814E-02  1.15330703E-01  1.18335902E-01  1.33095824E-01
  1.59378960E-01  1.70622977E-01  1.83758422E-01  2.13389643E-01  2.51931470E-01
  2.57555809E-01  2.84347613E-01  2.99733224E-01  3.16540660E-01  3.34995420E-01
  3.38772158E-01  3.54529077E-01  3.85409975E-01  4.01483976E-01  4.26445251E-01
  4.33726021E-01  4.62401195E-01  4.79312853E-01  5.17708621E-01  5.46842460E-01
  5.97528038E-01  6.05324647E-01  6.08934242E-01  6.28364481E-01  6.43906748E-01
  6.60099230E-01  6.91232026E-01  7.25826629E-01  7.45250139E-01  8.48732812E-01
  9.36454358E-01  9.69973521E-01  1.03289613E+00  1.06234284E+00  1.10134135E+00
  1.15701957E+00  1.26303387E+00  1.40342100E+00  1.43052552E+00  1.49721478E+00
  1.54931618E+00  1.56280361E+00  1.60620814E+00  1.61345681E+00  1.76768954E+00
  1.77714667E+00  1.78289921E+00  1.90309783E+00  1.93303400E+00  2.03904430E+00
  2.08549128E+00  2.16710983E+00  2.19016575E+00  2.20492204E+00  2.34514101E+00
  2.40336039E+00  2.59601551E+00  2.61128112E+00  2.82001750E+00  2.87419307E+00
  2.88093830E+00  2.98877178E+00  3.12106195E+00  3.20613400E+00  3.33089972E+00
  3.59557932E+00  3.92742804E+00
Alpha MO coefficients                      R   N=        7569
  4.04294087E-05 -1.76334958E-03  1.06454843E-02  1.23015546E-02  6.15259823E-05
 -5.39679444E-05  2.33919010E-04  6.43878691E-03  2.11704202E-03 -9.17850811E-03
  3.52667780E-05  4.90400929E-04 -8.61482550E-05  2.92535116E-04 -1.13111499E-04
  4.42617452E-03 -8.31899903E-03 -2.37215740E-03  2.07448329E-03  1.91846432E-03
  1.91879303E-04  1.69704035E-03 -3.28229269E-02 -5.79186566E-02 -2.02293453E-04
  8.26168545E-05 -3.58206976E-04 -1.72873589E-02  4.64905682E-03 -2.01572609E-02
  1.77613405E-04  9.35583201E-04 -9.13450694E-05  6.73310567E-05 -2.15777087E-04
 -8.24846894E-03 -1.99869054E-02  5.25088905E-03 -7.26898279E-03  4.60984038E-03
  6.00437500E-04  3.07579358E-03 -2.31473546E-04 -1.75979150E-04  7.62966166E-04
 -1.87231177E-03  3.59091485E-05 -1.55866006E-04  9.88264937E-01 -4.80971162E-02
  8.05902172E-02  1.72253553E-02  1.75125410E-03 -5.77607360E-04  2.50432799E-03
 -1.35496205E-02  4.53635740E-03 -1.96682645E-02 -2.95572525E-03  1.44537441E-03
 -6.26664995E-03  2.42134409E-04  3.76975749E-04 -1.45612337E-04  1.78369645E-04
 -8.69492568E-05  1.62747533E-03  2.06356520E-03 -6.59491745E-04 -1.11705758E-04
 -4.75956319E-04 -6.69647680E-04  3.55846652E-03  2.63951884E-04 -1.37500791E-05
  5.94973840E-05 -2.32682264E-04 -8.10159447E-04  3.51380087E-03 -1.76415881E-04
 -5.83610624E-03 -1.72312923E-06  6.32540387E-05 -2.74314970E-04  3.83470095E-03
  3.98972353E-04 -1.73272808E-03 -2.97379378E-04 -4.56297000E-04 -3.68965829E-02
 -5.97383883E-04  1.03685806E-03 -2.75141715E-07  1.11667183E-06 -1.63973833E-02
  6.14665568E-04 -2.66236008E-03 -1.25149544E-03 -3.01230482E-05  1.77663974E-04
  1.43825874E-03  6.88363588E-06  4.65888032E-03 -7.51124511E-03 -3.33256100E-04
 -6.70098184E-03  1.73238725E-03  9.87852142E-01 -5.17532555E-02  6.53330681E-02
 -1.18220951E-02 -3.38204917E-04  1.31966988E-05 -5.69588740E-05 -1.41921565E-02
  5.48463897E-04 -2.37651316E-03 -8.99098175E-04 -1.03995536E-04  6.84456733E-04
 -1.25256453E-03  2.40183471E-05 -1.44840488E-03 -4.32167000E-03  6.45722426E-05
  2.24423180E-03  9.96700623E-04  1.79239069E-03 -1.76724372E-02 -1.17271232E-03
 -6.12847722E-04  2.65725576E-03  9.66105223E-04  1.71379622E-03 -7.43078012E-03
  1.22875087E-04 -7.92625248E-04  5.77100845E-03  1.49520862E-02 -3.54078743E-04
  1.32802545E-04 -5.75784670E-04 -2.84741917E-03  1.06140920E-03 -4.60225952E-03
 -3.81802269E-03  1.17296074E-03 -5.08544318E-03  9.81610688E-04  1.57638834E-03
 -5.26352449E-04  4.60560589E-04 -3.63572675E-04  1.46428313E-03  1.68938143E-03
 -7.35806744E-04  4.84419151E-04 -3.89655194E-04  4.50859000E-04  1.05220167E-02
  4.04806817E-04 -3.94515735E-05  1.71028677E-04 -3.11180425E-03 -1.02727703E-03
  4.45510957E-03  5.94818694E-04 -3.98926332E-03  4.96764891E-04 -2.64651534E-06
  1.13756102E-05  3.96895253E-04  2.59540906E-04 -1.12591485E-03  9.87219386E-01
  6.38852338E-02 -9.14534032E-02 -2.48554112E-02  1.45697904E-03  2.20551823E-05
 -9.69098054E-05  2.73592001E-02 -1.16840213E-03  5.07064094E-03  9.48541782E-04
 -1.10471300E-04 -9.00873923E-04  2.05559752E-03  2.55086732E-05 -1.61759347E-02
 -1.72418191E-03  6.46248560E-03  1.48644453E-03  3.98020791E-04  2.61010173E-05
  8.95615869E-04 -1.59150070E-02  2.76238357E-03 -5.75618082E-04  1.71026167E-05
 -7.42681808E-05  1.86092881E-02 -1.08967764E-03  4.72139087E-03  5.02482068E-04
  1.18122140E-04  1.21423438E-04 -1.36878430E-03 -2.71742833E-05  8.08366509E-03
  3.10993413E-03 -1.82584908E-03 -6.50619731E-03 -7.16786549E-04 -1.26102900E-04
 -2.58018742E-03 -6.78953349E-04 -7.93742187E-05  3.44248690E-04  3.93515091E-03
 -1.68640776E-04  7.30621936E-04  3.00462581E-05  4.60079014E-04 -1.00497864E-02
  7.33597846E-04 -5.28961745E-05 -2.89628389E-05  1.25572823E-04  2.66925096E-03
 -3.65325406E-04  1.58404845E-03 -3.13985707E-04 -9.94441581E-05  4.31249198E-04
 -7.76412054E-05  4.80712591E-05  5.51216129E-06  1.11806424E-04 -1.10910795E-05
 -4.09358134E-04 -8.32851436E-04 -1.85450644E-04  1.47055405E-03  1.91923913E-04
 -2.53434933E-03  6.67486433E-02 -1.44051735E-03  4.65271603E-04 -2.01793438E-03
  1.12743891E-02 -2.29240789E-03  9.94664730E-03 -2.80098877E-03  5.44949700E-02
 -1.38816890E-03 -4.86341476E-04  2.10823949E-03  1.17192298E-02  1.57269231E-03
 -6.81429912E-03 -5.69318755E-02  1.09022166E-01  2.87825566E-02  3.69084464E-03
  7.30261552E-02 -2.13190150E-03  9.23697676E-03  2.95625925E-02 -2.08041722E-03
  9.02062705E-03 -5.09653046E-03  2.40198222E-03  2.62701801E-06  8.81644982E-03
 -5.54349777E-04 -5.70451552E-03  1.19091658E-02  7.60863074E-04  6.75319049E-03
 -2.74677647E-03  2.13179554E-01  4.43974256E-01  5.50094030E-02 -8.82805757E-02
 -6.12657064E-02  2.43350985E-02 -1.05514474E-01  1.55700202E-02 -8.19670579E-03
  3.55378793E-02  7.15950483E-03  1.43804766E-02 -5.51827389E-03  1.02527256E-02
 -3.31690936E-03 -3.25351484E-03  2.57171132E-02  3.69621602E-03 -9.53903886E-03
 -5.93081250E-03  8.86365300E-02  7.19564298E-02 -5.54173355E-03 -2.70856504E-03
  1.17442451E-02 -5.43463529E-03 -4.16673192E-03  1.80663794E-02  1.93039842E-01
  3.84136747E-01  1.86872661E-01  2.60029084E-02 -9.73620479E-02  2.90063269E-02
 -1.25763151E-01 -3.62831418E-02  1.01911516E-02 -4.41860033E-02 -5.76486454E-03
  1.24183908E-03 -5.38455643E-03  6.92402812E-03  1.44515095E-02 -4.05819729E-03
  4.66634613E-03 -3.33314086E-03  4.83267431E-03  5.84252544E-03 -3.57741391E-03
  6.31559397E-03 -1.34767975E-03  1.23159687E-02  1.75246553E-04  1.63861127E-03
 -5.79336363E-04  2.51234817E-03  6.74699780E-03  3.61049107E-04 -1.56859780E-03
  1.55048026E-02  2.61400282E-02  2.68358839E-03  6.34658518E-04 -2.75145093E-03
  5.10451826E-03  1.09505810E-03 -4.74495823E-03 -1.64702611E-01  3.34486666E-01
  2.17867881E-02  6.42745826E-03  1.53397747E-01  5.42154564E-03 -2.35286066E-02
  4.54640045E-02 -8.10874005E-03  3.51629713E-02 -7.88822836E-03 -3.90165510E-03
 -5.46043969E-04  1.59052294E-02  8.99164638E-04 -2.84993287E-02  1.51420575E-02
  8.78723112E-03  1.32817247E-02 -3.49148050E-03  1.31500913E-01  2.77486216E-01
  8.96209558E-02 -6.46631574E-02  2.54109316E-01 -4.23234406E-02  1.83491401E-01
 -4.89007556E-02  5.87370786E-03 -2.54693671E-02 -8.43920536E-03 -1.02077317E-02
  1.96540765E-03  6.54892956E-03  2.35393424E-03  5.91229774E-03  4.77631118E-02
  7.17686073E-04 -1.31886990E-02 -1.10146769E-02  1.21208479E-01  8.24232409E-02
 -1.26475877E-02 -2.27516127E-03  9.86544245E-03  6.75651065E-03 -5.06284689E-03
  2.19498923E-02 -1.61265929E-01 -3.31893077E-01 -2.48162697E-01 -2.98990062E-02
  2.60844911E-02 -1.23932261E-02  5.37352215E-02  1.37233940E-02 -7.07626603E-03
  3.06813676E-02  2.15279645E-03 -1.71716850E-03  7.44390967E-03 -3.76655706E-03
 -4.17400566E-03  1.49288338E-03  3.95220434E-04  9.62642215E-04 -1.80301568E-03
 -4.43968647E-03 -6.40290576E-04  5.75259253E-03  1.02370912E-03  7.98646679E-02
  5.93200689E-02  5.25945239E-03 -2.13862790E-03  9.27486438E-03  2.58289025E-02
 -2.29269919E-04  9.96113616E-04  5.64321862E-02  4.83515909E-02  5.69048291E-03
  1.73704900E-03 -7.53106708E-03  1.56151749E-02 -1.87235024E-04  8.18291507E-04
 -1.51571134E-01  3.25623925E-01  2.52352225E-03 -9.80948279E-02 -1.98314638E-02
 -2.00743748E-02  8.70183613E-02  1.39492930E-02  1.08713022E-02 -4.71355548E-02
  2.03750074E-03  7.97171354E-03 -1.35922624E-03  2.04950109E-03 -1.83855319E-03
 -8.73449350E-02 -2.72923282E-02  3.40241948E-02  1.16182803E-02  6.29711180E-03
 -8.70708970E-02 -1.96563435E-01 -8.44173876E-02  4.19713929E-02  2.51209791E-01
  6.34999131E-02 -2.75334945E-01 -7.26092768E-02 -2.06625736E-02  8.95850779E-02
 -4.04030925E-03  4.41212900E-03  1.00412255E-03  2.87629715E-03 -1.01768245E-03
  3.43716741E-02 -6.98471719E-02 -1.79940081E-02  1.43382569E-02  1.61100472E-02
 -3.23688202E-01 -1.41735979E-01  9.11293562E-03  5.10123437E-03 -2.21182833E-02
 -1.96042049E-03  3.62572443E-03 -1.57223268E-02  6.30275720E-02  1.32836425E-01
  1.14064150E-01  4.27494983E-02 -6.29816609E-02 -1.92346494E-02  8.34008495E-02
 -2.01205121E-02 -8.04138414E-03  3.48667840E-02 -9.74016714E-03  8.01788474E-04
 -3.47928604E-03 -1.02454842E-02  1.96793902E-03  3.08943307E-03  5.06275625E-03
 -4.53976783E-04 -1.22919152E-02  4.06932559E-04  5.63385429E-03 -1.83627432E-03
 -9.38502625E-05  8.97830466E-02  1.27512016E-01  3.40321299E-03 -2.22989988E-03
  9.67037247E-03  1.90850064E-02  3.68759105E-03 -1.59628876E-02  1.73171566E-01
  1.34319293E-01  7.46051933E-03  2.81440088E-03 -1.22007563E-02  3.94932194E-02
 -4.00776352E-03  1.73840772E-02  1.02015071E-01 -1.98331580E-01  5.13805169E-02
  1.35134479E-03  3.18386484E-01 -3.40892079E-02  1.47842910E-01  6.28554256E-02
  9.77461193E-03 -4.23880997E-02 -1.53076216E-02  4.79244042E-03  3.69259860E-03
  1.13511719E-02 -1.10599842E-03  6.23100023E-02 -4.44091555E-02 -2.02226655E-02
 -2.48792477E-02  1.02390649E-02  7.21435693E-02  1.76312320E-01  1.38676633E-01
 -5.98038605E-02  2.21657306E-01  4.21861172E-02 -1.82968227E-01 -5.01118963E-02
 -2.04318385E-02  8.86224051E-02  1.57420078E-03 -2.78070571E-03 -1.03078802E-04
 -2.30233504E-03  6.40930854E-04  7.02922337E-03 -6.44934405E-02  4.72540558E-03
 -3.15772586E-02  1.48731920E-02 -1.34932161E-01 -7.76510918E-02 -4.22003242E-04
  1.74284065E-03 -7.55581988E-03  7.51569476E-03  6.94129889E-04 -3.00687848E-03
 -6.52717944E-02 -1.37494300E-01 -9.26274107E-02  1.93012713E-02 -1.47247969E-01
  3.72838280E-03 -1.61418746E-02 -6.14910209E-02  8.53521278E-04 -3.68565172E-03
 -1.45079116E-02  2.02338397E-03 -8.76684960E-03 -6.01325780E-03  6.94496094E-03
  8.65672046E-04  6.85985376E-03 -1.60212839E-03 -9.63693212E-03  8.31973749E-04
  3.32769269E-03  3.02739395E-03 -1.92214433E-04 -2.98981181E-01 -1.72448422E-01
 -5.56557606E-03  3.91078567E-03 -1.69605437E-02 -5.31049998E-02  1.48765722E-04
 -6.41794765E-04 -1.30556142E-01 -1.04791697E-01  5.70476519E-04 -2.93206225E-03
  1.27125787E-02 -1.71744337E-02  2.32595076E-03 -1.01092481E-02  1.88118460E-02
 -3.15611495E-02 -9.51202773E-03 -4.16246919E-03  2.16094616E-01  4.99772182E-02
 -2.16673409E-01  4.92314677E-02 -1.57592855E-02  6.83395990E-02 -7.50134027E-03
  7.82732074E-04  1.28891008E-03  7.70474011E-03 -1.80562653E-04  2.20049787E-02
  3.28360763E-03 -7.41307511E-03 -7.70771835E-03 -7.58240596E-04 -3.99187341E-02
 -9.84569482E-02 -7.55273516E-02  4.86719609E-02  2.75552993E-01 -3.83155479E-02
  1.66055192E-01 -8.79962525E-02  2.21516453E-02 -9.60065961E-02 -2.67770303E-03
  2.46640361E-03  1.56680760E-03 -1.79340834E-03 -5.69005237E-04  1.22595766E-02
  6.23799507E-02 -3.75859721E-03 -5.80302012E-03 -1.43874076E-02 -2.89409401E-02
  2.06629904E-02 -5.48037074E-03  1.25892716E-03 -5.45602171E-03  1.77202618E-02
 -3.32414336E-03  1.44138200E-02  1.33293812E-01  2.74377934E-01  2.67685793E-01
  2.50015432E-02  1.70305363E-01 -6.55872607E-02  2.84405163E-01  6.73469433E-02
 -3.14166700E-02  1.36233443E-01  7.18616140E-03 -6.61774407E-03  2.87004195E-02
 -9.84007210E-03 -1.08992138E-02  4.86728088E-03 -2.93956104E-03  2.51342285E-03
 -8.58833171E-03 -2.76489416E-03  2.65827677E-03  3.96034289E-03  6.37075258E-04
  5.60529370E-02  9.91695558E-02  5.82409970E-03  3.51490644E-04 -1.52248623E-03
  1.28357183E-02 -6.33218982E-03  2.74455109E-02 -2.49856793E-01 -1.88857784E-01
 -5.55563780E-03 -2.59180271E-03  1.12358977E-02 -2.92472064E-02 -4.50648804E-03
  1.95478637E-02  5.48911920E-06 -1.11029835E-05 -8.81218942E-06 -4.95732441E-06
  1.04087836E-05 -2.02035801E-01 -4.66058716E-02  8.60726063E-06 -5.26075110E-02
 -1.21312577E-02 -2.60540163E-04 -5.00083602E-03 -6.15999076E-04 -1.50683989E-04
 -2.16850536E-02 -3.85388006E-04  2.25477846E-03 -8.96695967E-04 -2.15044530E-04
  9.77321423E-03  2.06027188E-06  5.39834230E-06 -7.48478514E-06 -2.22766737E-06
  1.78971298E-05  4.84574509E-01  1.11757161E-01 -6.09179327E-06 -2.75963165E-01
 -6.36476694E-02 -4.43722387E-03 -2.05109198E-04 -1.05174466E-02 -2.56190641E-03
 -8.90164555E-04  3.81510309E-03  6.31905710E-03  9.03969047E-03  2.20303552E-03
  2.73921018E-02 -5.60060333E-06 -1.43476240E-06 -2.73373808E-07 -1.45436655E-02
 -3.35469126E-03  5.40246800E-07 -1.47933833E-02 -3.41116139E-03  1.02030362E-06
  2.06779448E-06  2.34076641E-06  1.56163682E-06 -5.71875856E-06 -2.96933290E-01
 -6.84775434E-02 -4.10259863E-06 -1.74636508E-01 -4.02748362E-02 -1.38710499E-06
 -4.13982086E-02 -9.54800183E-03  7.12450682E-03  3.18601429E-03  1.68873138E-02
  4.11404550E-03  1.38130299E-02  7.50296591E-03  2.33629586E-03  1.77838227E-02