0002_q000_m01_k00_opt_uwb97xd_def2svpd/0002_q000_m01_k00_force_uwb97xd_d
Force     UwB97XD                                                     Gen                 
Number of atoms                            I                6
Info1-9                                    I   N=           9
          13           9           0           0           0         100
           5          18       -5802
Full Title                                 C   N=           8
0002_q000_m01_k00_opt_uwb97xd_def2svpd/0002_q000_m01_k00_for
ce_uwb97xd_def2tzvp stable-force    
Route                                      C   N=          15
#p uwb97xd/chkbasis force guess=read geom=check scf=(maxcycl
e=900,verytightlineq,xqc) integral=grid=ultrafine symmetry=N
one density=current pop=(cm5,hlygat,mbs,npa) output=wfx     
Charge                                     I                0
Multiplicity                               I                1
Number of electrons                        I               24
Number of alpha electrons                  I               12
Number of beta electrons                   I               12
Number of basis functions                  I              111
Number of independent functions            I              111
Number of point charges in /Mol/           I                0
Number of translation vectors              I                0
Atomic numbers                             I   N=           6
           6           7           1           8           1           1
Nuclear charges                            R   N=           6
  6.00000000E+00  7.00000000E+00  1.00000000E+00  8.00000000E+00  1.00000000E+00
  1.00000000E+00
Current cartesian coordinates              R   N=          18
  1.76526120E+00 -9.56393551E-02  1.00895621E-01  4.21476231E+00 -1.14759850E-01
  1.83592472E-01  5.12197023E+00  2.73169593E-01 -1.49843980E+00  5.62552287E+00
 -5.41213095E-01  2.03257921E+00  8.69741593E-01  3.19707205E-01 -1.70041362E+00
  7.24411360E-01 -4.93862518E-01  1.82729168E+00
Number of symbols in /Mol/                 I                0
Int Atom Types                             I   N=           6
           0           0           0           0           0           0
Force Field                                I                0
Atom Types                                 C   N=           6
                                                            
            
MM charges                                 R   N=           6
  0.00000000E+00  0.00000000E+00  0.00000000E+00  0.00000000E+00  0.00000000E+00
  0.00000000E+00
Integer atomic weights                     I   N=           6
          12          14           1          16           1           1
Real atomic weights                        R   N=           6
  1.20000000E+01  1.40030740E+01  1.00782504E+00  1.59949146E+01  1.00782504E+00
  1.00782504E+00
Atom fragment info                         I   N=           6
           0           0           0           0           0           0
Atom residue num                           I   N=           6
           0           0           0           0           0           0
Nuclear spins                              I   N=           6
           0           2           1           0           1           1
Nuclear ZEff                               R   N=           6
 -3.60000000E+00 -4.55000000E+00 -1.00000000E+00 -5.60000000E+00 -1.00000000E+00
 -1.00000000E+00
Nuclear ZNuc                               R   N=           6
  6.00000000E+00  7.00000000E+00  1.00000000E+00  8.00000000E+00  1.00000000E+00
  1.00000000E+00
Nuclear QMom                               R   N=           6
  0.00000000E+00  2.04400000E+00  0.00000000E+00  0.00000000E+00  0.00000000E+00
  0.00000000E+00
Nuclear GFac                               R   N=           6
  0.00000000E+00  4.03761000E-01  2.79284600E+00  0.00000000E+00  2.79284600E+00
  2.79284600E+00
MicOpt                                     I   N=           6
          -1          -1          -1          -1          -1          -1
Number of residues                         I                0
Number of secondary structures             I                0
Number of contracted shells                I               45
Number of primitive shells                 I               78
Pure/Cartesian d shells                    I                0
Pure/Cartesian f shells                    I                0
Highest angular momentum                   I                3
Largest degree of contraction              I                6
Shell types                                I   N=          45
           0           0           0           0           0           1
           1           1          -2          -2          -3           0
           0           0           0           0           1           1
           1          -2          -2          -3           0           0
           0           1           0           0           0           0
           0           1           1           1          -2          -2
          -3           0           0           0           1           0
           0           0           1
Number of primitives per shell             I   N=          45
           6           2           1           1           1           4
           1           1           1           1           1           6
           2           1           1           1           4           1
           1           1           1           1           3           1
           1           1           6           2           1           1
           1           4           1           1           1           1
           1           3           1           1           1           3
           1           1           1
Shell to atom map                          I   N=          45
           1           1           1           1           1           1
           1           1           1           1           1           2
           2           2           2           2           2           2
           2           2           2           2           3           3
           3           3           4           4           4           4
           4           4           4           4           4           4
           4           5           5           5           5           6
           6           6           6
Primitive exponents                        R   N=          78
  1.35753497E+04  2.03523337E+03  4.63225624E+02  1.31200196E+02  4.28530159E+01
  1.55841858E+01  6.20671385E+00  2.57648965E+00  5.76963394E-01  2.29728314E-01
  9.51644400E-02  3.46972322E+01  7.95826228E+00  2.37808269E+00  8.14332082E-01
  2.88875473E-01  1.00568237E-01  1.09700000E+00  3.18000000E-01  7.61000000E-01
  1.97308006E+04  2.95789587E+03  6.73221336E+02  1.90682495E+02  6.22954419E+01
  2.26541612E+01  8.97914774E+00  3.68630024E+00  8.46600768E-01  3.36471338E-01
  1.36476537E-01  4.92003805E+01  1.13467905E+01  3.42739724E+00  1.17855251E+00
  4.16422050E-01  1.42608260E-01  1.65400000E+00  4.69000000E-01  1.09300000E+00
  3.40613410E+01  5.12357460E+00  1.16466260E+00  3.27230410E-01  1.03072410E-01
  8.00000000E-01  2.70323826E+04  4.05238714E+03  9.22327227E+02  2.61240710E+02
  8.53546414E+01  3.10350352E+01  1.22608607E+01  4.99870760E+00  1.17031082E+00
  4.64747410E-01  1.85045364E-01  6.32749548E+01  1.46270494E+01  4.45012235E+00
  1.52757996E+00  5.29351179E-01  1.74784213E-01  2.31400000E+00  6.45000000E-01
  1.42800000E+00  3.40613410E+01  5.12357460E+00  1.16466260E+00  3.27230410E-01
  1.03072410E-01  8.00000000E-01  3.40613410E+01  5.12357460E+00  1.16466260E+00
  3.27230410E-01  1.03072410E-01  8.00000000E-01
Contraction coefficients                   R   N=          78
  6.06455036E-04  4.69790889E-03  2.43324776E-02  9.73999683E-02  3.01955843E-01
  6.62336091E-01  6.55953085E-01  3.75856333E-01  1.00000000E+00  1.00000000E+00
  1.00000000E+00  1.13272200E-02  7.61696592E-02  3.01922522E-01  7.27850273E-01
  1.00000000E+00  1.00000000E+00  1.00000000E+00  1.00000000E+00  1.00000000E+00
  5.86264026E-04  4.54288206E-03  2.35584135E-02  9.47091933E-02  2.97197849E-01
  6.69162469E-01  6.45966836E-01  3.87005744E-01  1.00000000E+00  1.00000000E+00
  1.00000000E+00  1.14488251E-02  7.84223380E-02  3.08180947E-01  7.20271964E-01
  1.00000000E+00  1.00000000E+00  1.00000000E+00  1.00000000E+00  1.00000000E+00
  2.54393072E-02  1.90085949E-01  8.52441130E-01  1.00000000E+00  1.00000000E+00
  1.00000000E+00  5.72273352E-04  4.43532335E-03  2.30201077E-02  9.28224907E-02
  2.93785000E-01  6.74016045E-01  6.38399370E-01  3.95345871E-01  1.00000000E+00
  1.00000000E+00  1.00000000E+00  1.20183322E-02  8.30054218E-02  3.19917439E-01
  7.07155429E-01  1.00000000E+00  1.00000000E+00  1.00000000E+00  1.00000000E+00
  1.00000000E+00  2.54393072E-02  1.90085949E-01  8.52441130E-01  1.00000000E+00
  1.00000000E+00  1.00000000E+00  2.54393072E-02  1.90085949E-01  8.52441130E-01
  1.00000000E+00  1.00000000E+00  1.00000000E+00
Coordinates of each shell                  R   N=         135
  1.76526120E+00 -9.56393551E-02  1.00895621E-01  1.76526120E+00 -9.56393551E-02
  1.00895621E-01  1.76526120E+00 -9.56393551E-02  1.00895621E-01  1.76526120E+00
 -9.56393551E-02  1.00895621E-01  1.76526120E+00 -9.56393551E-02  1.00895621E-01
  1.76526120E+00 -9.56393551E-02  1.00895621E-01  1.76526120E+00 -9.56393551E-02
  1.00895621E-01  1.76526120E+00 -9.56393551E-02  1.00895621E-01  1.76526120E+00
 -9.56393551E-02  1.00895621E-01  1.76526120E+00 -9.56393551E-02  1.00895621E-01
  1.76526120E+00 -9.56393551E-02  1.00895621E-01  4.21476231E+00 -1.14759850E-01
  1.83592472E-01  4.21476231E+00 -1.14759850E-01  1.83592472E-01  4.21476231E+00
 -1.14759850E-01  1.83592472E-01  4.21476231E+00 -1.14759850E-01  1.83592472E-01
  4.21476231E+00 -1.14759850E-01  1.83592472E-01  4.21476231E+00 -1.14759850E-01
  1.83592472E-01  4.21476231E+00 -1.14759850E-01  1.83592472E-01  4.21476231E+00
 -1.14759850E-01  1.83592472E-01  4.21476231E+00 -1.14759850E-01  1.83592472E-01
  4.21476231E+00 -1.14759850E-01  1.83592472E-01  4.21476231E+00 -1.14759850E-01
  1.83592472E-01  5.12197023E+00  2.73169593E-01 -1.49843980E+00  5.12197023E+00
  2.73169593E-01 -1.49843980E+00  5.12197023E+00  2.73169593E-01 -1.49843980E+00
  5.12197023E+00  2.73169593E-01 -1.49843980E+00  5.62552287E+00 -5.41213095E-01
  2.03257921E+00  5.62552287E+00 -5.41213095E-01  2.03257921E+00  5.62552287E+00
 -5.41213095E-01  2.03257921E+00  5.62552287E+00 -5.41213095E-01  2.03257921E+00
  5.62552287E+00 -5.41213095E-01  2.03257921E+00  5.62552287E+00 -5.41213095E-01
  2.03257921E+00  5.62552287E+00 -5.41213095E-01  2.03257921E+00  5.62552287E+00
 -5.41213095E-01  2.03257921E+00  5.62552287E+00 -5.41213095E-01  2.03257921E+00
  5.62552287E+00 -5.41213095E-01  2.03257921E+00  5.62552287E+00 -5.41213095E-01
  2.03257921E+00  8.69741593E-01  3.19707205E-01 -1.70041362E+00  8.69741593E-01
  3.19707205E-01 -1.70041362E+00  8.69741593E-01  3.19707205E-01 -1.70041362E+00
  8.69741593E-01  3.19707205E-01 -1.70041362E+00  7.24411360E-01 -4.93862518E-01
  1.82729168E+00  7.24411360E-01 -4.93862518E-01  1.82729168E+00  7.24411360E-01
 -4.93862518E-01  1.82729168E+00  7.24411360E-01 -4.93862518E-01  1.82729168E+00
Num ILSW                                   I              100
ILSW                                       I   N=         100
           1           0           0           0           2           0
           0           0           0           0        4639          -1
           5           0           0           0           2           0
           0           0           0           0           1           0
           1           1           0           0           0           0
           0           0      100000           0          -1           0
           0           0           0           0           0           0
           0           0           0           1           0           0
           0 -2000000000           1           0           0           0
           0           0         121          52           0           0
           0           0          58           0           0           0
           0           0           0           6           0           1
           0           0           0           0           0           0
           0           0           0           0           0           0
           0           0           0           0           0           0
           0           0           0           0           0           0
           0           0           0           0
Num RLSW                                   I               52
RLSW                                       R   N=          52
  1.00000000E+00  1.00000000E+00  1.00000000E+00  1.00000000E+00  1.00000000E+00
  0.00000000E+00  2.00000000E-01  2.22036000E-01  0.00000000E+00  7.77964000E-01
  0.00000000E+00  2.00000000E-01  0.00000000E+00  0.00000000E+00  1.00000000E+00
  0.00000000E+00  0.00000000E+00  1.00000000E+00  0.00000000E+00  0.00000000E+00
  0.00000000E+00  0.00000000E+00  1.00000000E+00  0.00000000E+00  0.00000000E+00
  0.00000000E+00  0.00000000E+00  1.00000000E+00  0.00000000E+00  0.00000000E+00
  0.00000000E+00  0.00000000E+00  1.00000000E+00  0.00000000E+00  0.00000000E+00
  0.00000000E+00  0.00000000E+00  0.00000000E+00  1.00000000E+00  1.00000000E+00
  0.00000000E+00  1.00000000E+00  0.00000000E+00  0.00000000E+00  0.00000000E+00
  0.00000000E+00  0.00000000E+00  0.00000000E+00  0.00000000E+00  0.00000000E+00
  0.00000000E+00  0.00000000E+00
MxBond                                     I                3
NBond                                      I   N=           6
           3           3           1           1           1           1
IBond                                      I   N=          18
           2           5           6           1           3           4
           2           0           0           2           0           0
           1           0           0           1           0           0
RBond                                      R   N=          18
  2.00000000E+00  1.00000000E+00  1.00000000E+00  2.00000000E+00  1.00000000E+00
  2.00000000E+00  1.00000000E+00  0.00000000E+00  0.00000000E+00  2.00000000E+00
  0.00000000E+00  0.00000000E+00  1.00000000E+00  0.00000000E+00  0.00000000E+00
  1.00000000E+00  0.00000000E+00  0.00000000E+00
Virial Ratio                               R      2.004273360518020E+00
SCF Energy                                 R     -1.698112843385567E+02
Total Energy                               R     -1.698112843385567E+02
S**2                                       R      7.105427357601002E-15
S**2 after annihilation                    R     -4.547473508864641E-13
RMS Force                                  R      2.348702337566820E-03
RMS Density                                R      1.178226260076964E-09
Job Status                                 I                1
Nuclear derivative order                   I                1
External E-field                           R   N=          35
  0.00000000E+00  0.00000000E+00  0.00000000E+00  0.00000000E+00  0.00000000E+00
  0.00000000E+00  0.00000000E+00  0.00000000E+00  0.00000000E+00  0.00000000E+00
  0.00000000E+00  0.00000000E+00  0.00000000E+00  0.00000000E+00  0.00000000E+00
  0.00000000E+00  0.00000000E+00  0.00000000E+00  0.00000000E+00  0.00000000E+00
  0.00000000E+00  0.00000000E+00  0.00000000E+00  0.00000000E+00  0.00000000E+00
  0.00000000E+00  0.00000000E+00  0.00000000E+00  0.00000000E+00  0.00000000E+00
  0.00000000E+00  0.00000000E+00  0.00000000E+00  0.00000000E+00  0.00000000E+00
IOpCl                                      I                1
IROHF                                      I                0
Alpha Orbital Energies                     R   N=         111
 -1.92299464E+01 -1.45878083E+01 -1.03326319E+01 -1.22313209E+00 -9.66577987E-01
 -7.61857166E-01 -6.44659072E-01 -5.77057232E-01 -5.50540975E-01 -5.10256164E-01
 -3.47666157E-01 -3.17748514E-01  3.41468961E-02  9.73642537E-02  1.51132224E-01
  1.81613244E-01  2.24355816E-01  2.47474786E-01  2.95806808E-01  2.98264559E-01
  3.84228483E-01  4.27802638E-01  4.57601476E-01  4.92785332E-01  5.03268905E-01
  5.37956013E-01  5.52503285E-01  5.79258163E-01  5.97694171E-01  6.14431364E-01
  6.50942133E-01  6.93542880E-01  7.66836490E-01  8.31001784E-01  8.46759707E-01
  1.00109809E+00  1.06440097E+00  1.11183853E+00  1.12175426E+00  1.30058864E+00
  1.39340760E+00  1.43653377E+00  1.50905054E+00  1.51444697E+00  1.60673193E+00
  1.62767379E+00  1.64481645E+00  1.67256783E+00  1.80969341E+00  1.83665256E+00
  1.85197516E+00  1.89141954E+00  1.91747706E+00  2.02180129E+00  2.10602638E+00
  2.14059274E+00  2.23317972E+00  2.25718507E+00  2.28261570E+00  2.35522539E+00
  2.48659668E+00  2.57032762E+00  2.60143749E+00  2.68511387E+00  2.72322772E+00
  2.82784189E+00  2.87220609E+00  2.91129911E+00  2.96930062E+00  2.99925294E+00
  3.06812366E+00  3.09624157E+00  3.11735910E+00  3.19641079E+00  3.29622486E+00
  3.36447830E+00  3.38404420E+00  3.52280163E+00  3.65649410E+00  3.73601902E+00
  3.85630176E+00  4.01468898E+00  4.18728745E+00  4.19240191E+00  4.30515143E+00
  4.50056758E+00  4.67055685E+00  4.77156944E+00  4.84149488E+00  4.84773790E+00
  4.95319955E+00  5.01527849E+00  5.13493336E+00  5.24424148E+00  5.29685036E+00
  5.36558831E+00  5.46491328E+00  5.49121181E+00  5.68121772E+00  5.87076323E+00
  6.35631168E+00  6.40919100E+00  6.44440583E+00  6.61490618E+00  6.94299723E+00
  7.08618388E+00  7.18485586E+00  7.46252752E+00  2.24847117E+01  3.21275875E+01
  4.39995503E+01
Beta Orbital Energies                      R   N=         111
 -1.92299464E+01 -1.45878083E+01 -1.03326319E+01 -1.22313209E+00 -9.66577987E-01
 -7.61857166E-01 -6.44659072E-01 -5.77057232E-01 -5.50540975E-01 -5.10256164E-01
 -3.47666157E-01 -3.17748514E-01  3.41468961E-02  9.73642537E-02  1.51132224E-01
  1.81613244E-01  2.24355816E-01  2.47474786E-01  2.95806808E-01  2.98264559E-01
  3.84228483E-01  4.27802638E-01  4.57601476E-01  4.92785332E-01  5.03268905E-01
  5.37956013E-01  5.52503285E-01  5.79258163E-01  5.97694171E-01  6.14431364E-01
  6.50942133E-01  6.93542880E-01  7.66836490E-01  8.31001784E-01  8.46759707E-01
  1.00109809E+00  1.06440097E+00  1.11183853E+00  1.12175426E+00  1.30058864E+00
  1.39340760E+00  1.43653377E+00  1.50905054E+00  1.51444697E+00  1.60673193E+00
  1.62767379E+00  1.64481645E+00  1.67256783E+00  1.80969341E+00  1.83665256E+00
  1.85197516E+00  1.89141954E+00  1.91747706E+00  2.02180129E+00  2.10602638E+00
  2.14059274E+00  2.23317972E+00  2.25718507E+00  2.28261570E+00  2.35522539E+00
  2.48659668E+00  2.57032762E+00  2.60143749E+00  2.68511387E+00  2.72322772E+00
  2.82784189E+00  2.87220609E+00  2.91129911E+00  2.96930062E+00  2.99925294E+00
  3.06812366E+00  3.09624157E+00  3.11735910E+00  3.19641079E+00  3.29622486E+00
  3.36447830E+00  3.38404420E+00  3.52280163E+00  3.65649410E+00  3.73601902E+00
  3.85630176E+00  4.01468898E+00  4.18728745E+00  4.19240191E+00  4.30515143E+00
  4.50056758E+00  4.67055685E+00  4.77156944E+00  4.84149488E+00  4.84773790E+00
  4.95319955E+00  5.01527849E+00  5.13493336E+00  5.24424148E+00  5.29685036E+00
  5.36558831E+00  5.46491328E+00  5.49121181E+00  5.68121772E+00  5.87076323E+00
  6.35631168E+00  6.40919100E+00  6.44440583E+00  6.61490618E+00  6.94299723E+00
  7.08618388E+00  7.18485586E+00  7.46252752E+00  2.24847117E+01  3.21275875E+01
  4.39995503E+01
Alpha MO coefficients                      R   N=       12321
  1.69321453E-05 -8.27900429E-05  1.62107899E-03 -4.60334853E-03  5.52479581E-04
  2.14111084E-04 -7.57518935E-06  3.28075966E-05 -3.20093609E-04 -2.52767618E-04
  1.09637245E-03 -9.10412963E-04 -5.64383925E-04  2.44713381E-03  4.85587963E-05
  5.61071507E-05 -2.39951610E-05  1.44365416E-05 -1.29423477E-05 -1.07359284E-03
  9.98837224E-04  6.39720542E-04 -7.67024331E-04 -2.30354063E-04 -4.50469377E-05
  4.69958583E-06 -4.92952727E-06  7.93851899E-05  7.49585118E-05 -2.57354894E-04
 -2.27835717E-05  5.70744737E-06 -1.68073025E-05 -3.41724367E-03  1.42822399E-02
 -6.96076763E-03 -1.58434766E-04  4.03903117E-05 -1.75110253E-04  5.90218641E-03
 -1.75199259E-03  7.59617360E-03 -3.52779333E-03  1.48879259E-03 -6.45503442E-03
  9.66496611E-05  1.95050525E-04 -8.23482644E-05  1.70647808E-04 -4.49920954E-05
  2.61760715E-03  4.78082002E-03 -1.45909440E-03  1.45589339E-03 -1.10264733E-03
  7.74489599E-05  5.34299521E-04 -2.02010885E-04  3.48759875E-04 -2.29822600E-04
  8.05364277E-05 -1.06539260E-04  3.60139926E-04 -1.53415059E-03 -3.96143710E-05
  4.57904966E-04  3.45825664E-05 -1.49948468E-04  4.35370460E-01  6.39539231E-01
  3.64505021E-02 -3.24736454E-02  1.55879515E-02 -1.71944444E-03  5.08685860E-04
 -2.20552295E-03  6.55710977E-03 -1.95952700E-03  8.49598828E-03 -2.42904741E-03
  6.52405648E-04 -2.82868726E-03  1.93955702E-04  3.80231333E-04 -1.05628418E-04
  9.76683786E-05 -8.76969020E-05 -1.63152404E-03 -3.21459765E-03  9.48287526E-04
 -1.06691111E-03  7.41420879E-04 -1.14556635E-05  4.96637929E-04 -1.38060355E-04
  3.35439241E-04 -2.15967859E-04  8.27212884E-05 -1.00487071E-04  5.20208262E-05
  1.54265132E-03  4.21117924E-04  3.86138292E-04 -3.13825451E-05  1.36155680E-04
  8.50398748E-05  1.58950669E-03 -2.23611999E-03  2.43195199E-04  4.62751691E-05
 -2.00534222E-04  1.48248532E-06  2.31161584E-05 -1.40828712E-04  6.18420431E-03
 -5.38808409E-03  2.91910873E-04  3.87777081E-06 -1.68356088E-05  5.10030872E-03
 -1.53557265E-05  6.61249708E-05 -1.70623766E-03  3.24068800E-05 -1.40194340E-04
  4.17554652E-05 -5.03591697E-05 -6.95514446E-06 -4.37610719E-05  1.16187001E-05
 -9.09815604E-04 -9.27758018E-06  3.87666324E-05  1.41670533E-03  2.06328312E-06
  9.38449743E-05  3.77959381E-04 -8.73931032E-06 -1.21387608E-04 -7.85977497E-05
 -2.24462063E-04  3.43092534E-05  4.48669777E-01  6.26843956E-01  3.47938328E-02
 -2.48396742E-02  1.24455808E-02 -3.90517405E-04 -6.16720155E-05  2.67543875E-04
  5.09937898E-03 -3.57146246E-04  1.54811525E-03 -2.18411223E-04  1.73436996E-04
 -7.51960104E-04  1.36032494E-04  4.16408640E-04 -2.11970372E-04  6.34581991E-04
 -9.60594329E-05  1.03598461E-03  6.27337012E-05 -1.08143667E-04 -1.35043907E-03
 -1.44203103E-05 -2.20435541E-05  3.74548636E-04 -6.03061039E-05  1.72210547E-04
 -1.68764252E-04  8.21258173E-05 -5.12205833E-05  3.74702687E-05  2.48392214E-04
 -2.12231783E-03  2.11029617E-04  8.30375622E-05 -3.60040226E-04 -2.56349597E-05
 -9.29770331E-05  9.46762378E-04 -1.29139027E-03 -1.25086458E-03 -2.59464376E-04
  6.86551351E-05 -2.97670358E-04  1.10606028E-03 -2.63231981E-04  1.14129794E-03
 -1.03021036E-04 -2.36623982E-05  1.02604322E-04  1.36174345E-05  7.30036951E-05
 -7.13227309E-06  5.69049096E-06 -1.68370232E-05 -4.71945145E-04 -1.25302017E-03
  2.96639838E-04 -4.00289684E-04  2.88995624E-04 -1.10920599E-05  6.13321202E-04
 -1.60915300E-04  3.87559365E-04 -2.61154512E-04  8.35439312E-05 -1.16149309E-04
  2.12271051E-04 -1.07474393E-04  7.13914010E-04 -1.75503525E-04 -1.16947613E-05
  5.07445750E-05  1.66128132E-04  9.55944108E-05  6.26777759E-04 -1.34168410E-04
  1.77013583E-05 -7.67238457E-05  4.67201486E-01  6.08479901E-01  3.36965527E-02
 -3.59140626E-03  9.95624596E-03  1.67896690E-03  4.46300505E-06 -1.97524200E-05
  9.04980475E-03 -1.17279217E-04  5.07104178E-04 -5.63745682E-04 -2.77441691E-04
  1.20267325E-03  1.66884347E-05  5.67447095E-05 -4.57869680E-04  1.85086053E-03
 -1.30892758E-05 -1.60613563E-03  4.70846023E-04 -2.58227051E-04  3.84195354E-03
 -1.08715110E-04 -1.86518313E-04 -1.92514456E-03  4.33056198E-05  1.81282792E-04
  4.51413984E-04  9.72205637E-04 -5.02435120E-05 -9.03510900E-05 -1.61429112E-04
  2.41384098E-03 -1.14807924E-02 -4.56778874E-03 -8.25471917E-04  2.55449992E-05
 -1.10706238E-04  1.12237780E-02 -3.61614843E-04  1.56706048E-03 -3.42603458E-05
  3.94194944E-04 -1.70906625E-03  3.04469625E-06  1.26204755E-05  4.05223184E-05
 -1.71630794E-04 -2.90180902E-06  3.52968679E-03  4.76411430E-04 -5.44912244E-04
 -3.87659651E-03 -1.09734559E-04 -1.03333884E-05 -4.72418505E-04 -4.51418787E-05
  1.19670691E-04 -6.02018747E-05  8.11670630E-04 -3.57533342E-05 -2.92875510E-04
 -4.92907924E-04 -2.64259930E-04  4.83250235E-04 -1.47009104E-05  6.37036142E-05
  6.05553903E-06 -5.54473434E-05  8.40606721E-04 -3.12535569E-03  2.51274146E-03
 -1.11209637E-04  1.55330947E-05 -6.73436173E-05  1.48827113E-03 -2.48589102E-04
  1.07778292E-03 -2.74082033E-04  2.05087001E-04 -8.89303665E-04 -4.79578412E-05
  5.55283129E-05  1.76300653E-05  1.06816462E-05 -1.28073796E-05  1.87543977E-04
 -7.17950722E-04 -4.18204238E-06 -3.07601439E-04  1.65593608E-04 -4.65765981E-05
  6.64351940E-05  7.25366778E-06  5.35168420E-05 -2.53943631E-05 -6.55739753E-07
 -1.49993958E-05 -6.64536060E-04 -9.42128743E-04 -1.55294363E-03 -7.70806844E-04
  4.23883353E-04 -1.83833147E-03 -6.22603590E-04 -9.80563402E-04 -3.00990109E-03
 -9.48338445E-04 -3.93630281E-04  1.70652509E-03 -2.19716609E-02 -4.57521887E-02
  7.03171176E-02  4.12322512E-02  1.16877265E-02  5.19368344E-02 -1.44961525E-03
  6.28005557E-03  2.15285509E-02 -9.89512554E-04  4.28887876E-03  3.15456350E-03
 -2.39766159E-04  1.03914687E-03 -2.61036538E-03  1.32196788E-03 -3.49518266E-04
  5.95629654E-03 -3.05128822E-04 -2.24293929E-03  2.01541800E-03  2.51329225E-04
  2.85290067E-03 -4.64921134E-04 -3.40708310E-04 -3.86797039E-04 -2.47720536E-05
  5.70809071E-04 -3.31302787E-04  1.60982104E-03 -1.63672227E-04 -7.66867154E-02
 -1.73021891E-01  2.69247083E-01  2.75564858E-01  3.19431694E-02  4.10705175E-02
 -1.63606999E-02  7.09381296E-02  1.34111100E-02 -6.98737693E-03  3.02978814E-02
  6.54075290E-04  5.02987653E-04 -2.18192694E-03  4.22476428E-03  7.04141406E-03
 -3.19635281E-03  5.80383937E-03 -1.62416223E-03  7.38079736E-04  3.07144048E-03
 -2.31674938E-03  8.23226144E-03 -7.08595673E-04 -2.53881594E-04  4.87531691E-03
 -5.73657282E-04  1.70510586E-03 -1.70292443E-03 -5.86445126E-04 -5.06218240E-04
  4.01132913E-02  3.17897547E-02 -5.32065884E-04 -2.42680890E-03 -1.80903278E-03
  7.84456518E-03 -6.72018240E-02 -1.57838325E-01  2.23293414E-01  2.99367293E-01
  9.41392206E-02 -6.74770844E-02  2.01089245E-02 -8.71865654E-02 -5.86632873E-02
  1.73010154E-02 -7.50122734E-02 -7.18642761E-03  2.29641703E-03 -9.95649113E-03
  3.20856058E-03  6.63662037E-03 -1.86292906E-03  2.09008045E-03 -1.53069753E-03
  9.30363965E-03  1.96623339E-02 -5.45230303E-03  6.26767790E-03 -4.53493942E-03
  7.67864025E-06 -3.85609494E-03  1.07947055E-03 -2.49929228E-03  1.66208113E-03
 -5.92724395E-04  7.50512072E-04  6.24513437E-03  7.68070903E-03 -1.44006226E-03
  1.70252447E-03 -3.29077970E-04  1.42715378E-03  7.63263052E-03  8.95339701E-03
 -2.13189176E-03  2.03687346E-03  3.32805659E-04 -1.44278072E-03  6.17163115E-02
  1.30902272E-01 -2.07762349E-01 -1.68463709E-01 -2.69220339E-02 -1.04912745E-01
 -3.78366940E-03  1.64221884E-02 -4.30314707E-02 -2.53960904E-03  1.10200222E-02
 -3.61981483E-03 -2.02547411E-03  8.78291736E-03  4.67714724E-03  1.55541717E-03
  1.22621331E-03 -1.31362355E-02 -3.58260291E-04  1.25964409E-03  4.38605493E-03
  9.21803489E-04 -5.96705857E-03 -1.01142515E-03 -2.33475857E-04  4.21926968E-03
 -1.41412961E-04  6.78568429E-04 -6.34012085E-04 -3.32231108E-03 -1.98112560E-04
  4.69416835E-02  1.06348049E-01 -1.59973835E-01 -2.24925432E-01 -5.96730252E-02
  1.78875050E-01 -3.03013605E-02  1.31370883E-01  1.20097649E-01 -1.89374807E-02
  8.21015768E-02  2.51863715E-02 -3.15442336E-03  1.36768477E-02  4.55397593E-03
  6.90574997E-03 -8.89632172E-04 -4.23551474E-03 -1.59255006E-03  2.73407284E-03
 -2.14114738E-04  1.13223874E-03 -9.38346633E-03  4.96837100E-05  2.76301293E-04
 -9.09239324E-04 -8.71792261E-04  1.59222971E-03 -3.92062725E-04  2.48799202E-03
 -4.84768293E-04 -5.41019427E-02 -5.51634163E-02 -3.14201102E-03  9.60956320E-03
  1.38648938E-03 -6.01301191E-03 -5.79411771E-02 -1.37044956E-01  1.99272184E-01
  2.78885422E-01  1.27903257E-01 -1.42365675E-02  7.51613314E-03 -3.25891583E-02
 -1.99694418E-02  8.62062872E-03 -3.73775076E-02 -4.51348770E-03  1.58018082E-03
 -6.85197944E-03  1.69818902E-03  2.40037627E-03 -7.58620611E-04  1.72907452E-04
 -5.53610880E-04  6.26909021E-03  9.62006312E-03 -3.22275945E-03  2.37144081E-03
 -2.21878576E-03 -3.38497274E-04 -2.09905815E-03  6.73237945E-04 -1.04109272E-03
  8.54639460E-04 -1.54702425E-04  3.20520481E-04 -3.74502891E-02 -3.99966212E-02
  2.90842308E-03 -5.60419155E-03  1.13747084E-03 -4.93266998E-03 -2.67542181E-02
 -2.67840044E-02 -4.87790415E-03 -3.77777299E-03 -7.90132944E-04  3.42589399E-03
 -5.91429108E-02 -1.26589766E-01  1.99025777E-01  2.39721070E-01  6.23811829E-02
 -2.50033736E-02 -1.33593412E-02  5.79057569E-02 -1.16618480E-02 -9.00226529E-03
  3.90192306E-02 -4.47636787E-03 -2.10371213E-03  9.11796818E-03  3.44231346E-03
  4.46223391E-03 -2.53867298E-03  4.45923745E-03 -1.02895726E-03  1.53887593E-03
  7.50933804E-03 -2.15067630E-03  6.16326323E-03 -1.73200762E-03 -1.82650385E-03
 -3.30902468E-03 -1.10032124E-04  3.00747442E-03  8.51585310E-04  1.41861202E-03
 -8.61557732E-04  3.23464131E-02  7.40265006E-02 -1.16551680E-01 -1.72916841E-01
 -7.66120488E-02 -1.76360024E-01 -4.41347485E-02  1.91365701E-01 -1.30257248E-01
 -3.28321773E-02  1.42357170E-01 -2.12263967E-02 -8.78990675E-03  3.81127601E-02
 -3.55853745E-03  3.84158983E-03  1.18148621E-03  1.31393211E-03 -8.86088041E-04
 -4.37486957E-03  2.85807661E-03  1.78534310E-03  2.48578023E-04 -6.59239989E-04
  1.37721353E-03 -1.37401314E-03 -1.38102036E-03  1.10537585E-03  1.02434846E-03
 -1.65873598E-03 -3.63817384E-04 -1.36626164E-01 -1.67722375E-01 -2.69744380E-02
  8.43992326E-03  4.45132476E-03 -1.93032369E-02 -2.32785154E-02 -5.53333834E-02
  8.24207806E-02  1.18790896E-01  7.33089479E-02 -3.82790512E-02 -1.49399570E-02
  6.47783940E-02 -3.65563200E-02 -1.08011576E-02  4.68333326E-02 -1.23620773E-02
 -4.17836608E-03  1.81165580E-02 -3.42793323E-03  3.30924975E-04  1.05891955E-03