0002_q000_m01_k00_opt_uwb97xd_def2svpd/0002_q000_m01_k00_force_uwb97xd_d
Force     UwB97XD                                                     Gen                 
Number of atoms                            I                6
Info1-9                                    I   N=           9
          13           9           0           0           0         100
           5          18       -5802
Full Title                                 C   N=           8
0002_q000_m01_k00_opt_uwb97xd_def2svpd/0002_q000_m01_k00_for
ce_uwb97xd_def2tzvpd stable-force   
Route                                      C   N=          15
#p uwb97xd/chkbasis force guess=read geom=check scf=(maxcycl
e=900,verytightlineq,xqc) integral=grid=ultrafine symmetry=N
one density=current pop=(cm5,hlygat,mbs,npa) output=wfx     
Charge                                     I                0
Multiplicity                               I                1
Number of electrons                        I               24
Number of alpha electrons                  I               12
Number of beta electrons                   I               12
Number of basis functions                  I              141
Number of independent functions            I              141
Number of point charges in /Mol/           I                0
Number of translation vectors              I                0
Atomic numbers                             I   N=           6
           6           7           1           8           1           1
Nuclear charges                            R   N=           6
  6.00000000E+00  7.00000000E+00  1.00000000E+00  8.00000000E+00  1.00000000E+00
  1.00000000E+00
Current cartesian coordinates              R   N=          18
  1.76526120E+00 -9.56393551E-02  1.00895621E-01  4.21476231E+00 -1.14759850E-01
  1.83592472E-01  5.12197023E+00  2.73169593E-01 -1.49843980E+00  5.62552287E+00
 -5.41213095E-01  2.03257921E+00  8.69741593E-01  3.19707205E-01 -1.70041362E+00
  7.24411360E-01 -4.93862518E-01  1.82729168E+00
Number of symbols in /Mol/                 I                0
Int Atom Types                             I   N=           6
           0           0           0           0           0           0
Force Field                                I                0
Atom Types                                 C   N=           6
                                                            
            
MM charges                                 R   N=           6
  0.00000000E+00  0.00000000E+00  0.00000000E+00  0.00000000E+00  0.00000000E+00
  0.00000000E+00
Integer atomic weights                     I   N=           6
          12          14           1          16           1           1
Real atomic weights                        R   N=           6
  1.20000000E+01  1.40030740E+01  1.00782504E+00  1.59949146E+01  1.00782504E+00
  1.00782504E+00
Atom fragment info                         I   N=           6
           0           0           0           0           0           0
Atom residue num                           I   N=           6
           0           0           0           0           0           0
Nuclear spins                              I   N=           6
           0           2           1           0           1           1
Nuclear ZEff                               R   N=           6
 -3.60000000E+00 -4.55000000E+00 -1.00000000E+00 -5.60000000E+00 -1.00000000E+00
 -1.00000000E+00
Nuclear ZNuc                               R   N=           6
  6.00000000E+00  7.00000000E+00  1.00000000E+00  8.00000000E+00  1.00000000E+00
  1.00000000E+00
Nuclear QMom                               R   N=           6
  0.00000000E+00  2.04400000E+00  0.00000000E+00  0.00000000E+00  0.00000000E+00
  0.00000000E+00
Nuclear GFac                               R   N=           6
  0.00000000E+00  4.03761000E-01  2.79284600E+00  0.00000000E+00  2.79284600E+00
  2.79284600E+00
MicOpt                                     I   N=           6
          -1          -1          -1          -1          -1          -1
Number of residues                         I                0
Number of secondary structures             I                0
Number of contracted shells                I               55
Number of primitive shells                 I               88
Pure/Cartesian d shells                    I                0
Pure/Cartesian f shells                    I                0
Highest angular momentum                   I                3
Largest degree of contraction              I                6
Shell types                                I   N=          55
           0           0           0           0           0           0
           1           1           1          -2          -2          -2
          -3           0           0           0           0           0
           0           1           1           1          -2          -2
          -2          -3           0           0           0           1
           1           0           0           0           0           0
           0           1           1           1           1          -2
          -2          -2          -3           0           0           0
           1           1           0           0           0           1
           1
Number of primitives per shell             I   N=          55
           6           2           1           1           1           1
           4           1           1           1           1           1
           1           6           2           1           1           1
           1           4           1           1           1           1
           1           1           3           1           1           1
           1           6           2           1           1           1
           1           4           1           1           1           1
           1           1           1           3           1           1
           1           1           3           1           1           1
           1
Shell to atom map                          I   N=          55
           1           1           1           1           1           1
           1           1           1           1           1           1
           1           2           2           2           2           2
           2           2           2           2           2           2
           2           2           3           3           3           3
           3           4           4           4           4           4
           4           4           4           4           4           4
           4           4           4           5           5           5
           5           5           6           6           6           6
           6
Primitive exponents                        R   N=          88
  1.35753497E+04  2.03523337E+03  4.63225624E+02  1.31200196E+02  4.28530159E+01
  1.55841858E+01  6.20671385E+00  2.57648965E+00  5.76963394E-01  2.29728314E-01
  9.51644400E-02  4.84754014E-02  3.46972322E+01  7.95826228E+00  2.37808269E+00
  8.14332082E-01  2.88875473E-01  1.00568237E-01  1.09700000E+00  3.18000000E-01
  9.09853364E-02  7.61000000E-01  1.97308006E+04  2.95789587E+03  6.73221336E+02
  1.90682495E+02  6.22954419E+01  2.26541612E+01  8.97914774E+00  3.68630024E+00
  8.46600768E-01  3.36471338E-01  1.36476537E-01  6.84416058E-02  4.92003805E+01
  1.13467905E+01  3.42739724E+00  1.17855251E+00  4.16422050E-01  1.42608260E-01
  1.65400000E+00  4.69000000E-01  1.28296421E-01  1.09300000E+00  3.40613410E+01
  5.12357460E+00  1.16466260E+00  3.27230410E-01  1.03072410E-01  8.00000000E-01
  9.57741296E-02  2.70323826E+04  4.05238714E+03  9.22327227E+02  2.61240710E+02
  8.53546414E+01  3.10350352E+01  1.22608607E+01  4.99870760E+00  1.17031082E+00
  4.64747410E-01  1.85045364E-01  7.02880263E-02  6.32749548E+01  1.46270494E+01
  4.45012235E+00  1.52757996E+00  5.29351179E-01  1.74784213E-01  5.11127457E-02
  2.31400000E+00  6.45000000E-01  1.46964774E-01  1.42800000E+00  3.40613410E+01
  5.12357460E+00  1.16466260E+00  3.27230410E-01  1.03072410E-01  8.00000000E-01
  9.57741296E-02  3.40613410E+01  5.12357460E+00  1.16466260E+00  3.27230410E-01
  1.03072410E-01  8.00000000E-01  9.57741296E-02
Contraction coefficients                   R   N=          88
  6.06455036E-04  4.69790889E-03  2.43324776E-02  9.73999683E-02  3.01955843E-01
  6.62336091E-01  6.55953085E-01  3.75856333E-01  1.00000000E+00  1.00000000E+00
  1.00000000E+00  1.00000000E+00  1.13272200E-02  7.61696592E-02  3.01922522E-01
  7.27850273E-01  1.00000000E+00  1.00000000E+00  1.00000000E+00  1.00000000E+00
  1.00000000E+00  1.00000000E+00  5.86264026E-04  4.54288206E-03  2.35584135E-02
  9.47091933E-02  2.97197849E-01  6.69162469E-01  6.45966836E-01  3.87005744E-01
  1.00000000E+00  1.00000000E+00  1.00000000E+00  1.00000000E+00  1.14488251E-02
  7.84223380E-02  3.08180947E-01  7.20271964E-01  1.00000000E+00  1.00000000E+00
  1.00000000E+00  1.00000000E+00  1.00000000E+00  1.00000000E+00  2.54393072E-02
  1.90085949E-01  8.52441130E-01  1.00000000E+00  1.00000000E+00  1.00000000E+00
  1.00000000E+00  5.72273352E-04  4.43532335E-03  2.30201077E-02  9.28224907E-02
  2.93785000E-01  6.74016045E-01  6.38399370E-01  3.95345871E-01  1.00000000E+00
  1.00000000E+00  1.00000000E+00  1.00000000E+00  1.20183322E-02  8.30054218E-02
  3.19917439E-01  7.07155429E-01  1.00000000E+00  1.00000000E+00  1.00000000E+00
  1.00000000E+00  1.00000000E+00  1.00000000E+00  1.00000000E+00  2.54393072E-02
  1.90085949E-01  8.52441130E-01  1.00000000E+00  1.00000000E+00  1.00000000E+00
  1.00000000E+00  2.54393072E-02  1.90085949E-01  8.52441130E-01  1.00000000E+00
  1.00000000E+00  1.00000000E+00  1.00000000E+00
Coordinates of each shell                  R   N=         165
  1.76526120E+00 -9.56393551E-02  1.00895621E-01  1.76526120E+00 -9.56393551E-02
  1.00895621E-01  1.76526120E+00 -9.56393551E-02  1.00895621E-01  1.76526120E+00
 -9.56393551E-02  1.00895621E-01  1.76526120E+00 -9.56393551E-02  1.00895621E-01
  1.76526120E+00 -9.56393551E-02  1.00895621E-01  1.76526120E+00 -9.56393551E-02
  1.00895621E-01  1.76526120E+00 -9.56393551E-02  1.00895621E-01  1.76526120E+00
 -9.56393551E-02  1.00895621E-01  1.76526120E+00 -9.56393551E-02  1.00895621E-01
  1.76526120E+00 -9.56393551E-02  1.00895621E-01  1.76526120E+00 -9.56393551E-02
  1.00895621E-01  1.76526120E+00 -9.56393551E-02  1.00895621E-01  4.21476231E+00
 -1.14759850E-01  1.83592472E-01  4.21476231E+00 -1.14759850E-01  1.83592472E-01
  4.21476231E+00 -1.14759850E-01  1.83592472E-01  4.21476231E+00 -1.14759850E-01
  1.83592472E-01  4.21476231E+00 -1.14759850E-01  1.83592472E-01  4.21476231E+00
 -1.14759850E-01  1.83592472E-01  4.21476231E+00 -1.14759850E-01  1.83592472E-01
  4.21476231E+00 -1.14759850E-01  1.83592472E-01  4.21476231E+00 -1.14759850E-01
  1.83592472E-01  4.21476231E+00 -1.14759850E-01  1.83592472E-01  4.21476231E+00
 -1.14759850E-01  1.83592472E-01  4.21476231E+00 -1.14759850E-01  1.83592472E-01
  4.21476231E+00 -1.14759850E-01  1.83592472E-01  5.12197023E+00  2.73169593E-01
 -1.49843980E+00  5.12197023E+00  2.73169593E-01 -1.49843980E+00  5.12197023E+00
  2.73169593E-01 -1.49843980E+00  5.12197023E+00  2.73169593E-01 -1.49843980E+00
  5.12197023E+00  2.73169593E-01 -1.49843980E+00  5.62552287E+00 -5.41213095E-01
  2.03257921E+00  5.62552287E+00 -5.41213095E-01  2.03257921E+00  5.62552287E+00
 -5.41213095E-01  2.03257921E+00  5.62552287E+00 -5.41213095E-01  2.03257921E+00
  5.62552287E+00 -5.41213095E-01  2.03257921E+00  5.62552287E+00 -5.41213095E-01
  2.03257921E+00  5.62552287E+00 -5.41213095E-01  2.03257921E+00  5.62552287E+00
 -5.41213095E-01  2.03257921E+00  5.62552287E+00 -5.41213095E-01  2.03257921E+00
  5.62552287E+00 -5.41213095E-01  2.03257921E+00  5.62552287E+00 -5.41213095E-01
  2.03257921E+00  5.62552287E+00 -5.41213095E-01  2.03257921E+00  5.62552287E+00
 -5.41213095E-01  2.03257921E+00  5.62552287E+00 -5.41213095E-01  2.03257921E+00
  8.69741593E-01  3.19707205E-01 -1.70041362E+00  8.69741593E-01  3.19707205E-01
 -1.70041362E+00  8.69741593E-01  3.19707205E-01 -1.70041362E+00  8.69741593E-01
  3.19707205E-01 -1.70041362E+00  8.69741593E-01  3.19707205E-01 -1.70041362E+00
  7.24411360E-01 -4.93862518E-01  1.82729168E+00  7.24411360E-01 -4.93862518E-01
  1.82729168E+00  7.24411360E-01 -4.93862518E-01  1.82729168E+00  7.24411360E-01
 -4.93862518E-01  1.82729168E+00  7.24411360E-01 -4.93862518E-01  1.82729168E+00
Num ILSW                                   I              100
ILSW                                       I   N=         100
           1           0           0           0           2           0
           0           0           0           0        4639          -1
           5           0           0           0           2           0
           0           0           0           0           1           0
           1           1           0           0           0           0
           0           0      100000           0          -1           0
           0           0           0           0           0           0
           0           0           0           1           0           0
           0 -2000000000           1           0           0           0
           0           0         121          52           0           0
           0           0          58           0           0           0
           0           0           0           6           0           1
           0           0           0           0           0           0
           0           0           0           0           0           0
           0           0           0           0           0           0
           0           0           0           0           0           0
           0           0           0           0
Num RLSW                                   I               52
RLSW                                       R   N=          52
  1.00000000E+00  1.00000000E+00  1.00000000E+00  1.00000000E+00  1.00000000E+00
  0.00000000E+00  2.00000000E-01  2.22036000E-01  0.00000000E+00  7.77964000E-01
  0.00000000E+00  2.00000000E-01  0.00000000E+00  0.00000000E+00  1.00000000E+00
  0.00000000E+00  0.00000000E+00  1.00000000E+00  0.00000000E+00  0.00000000E+00
  0.00000000E+00  0.00000000E+00  1.00000000E+00  0.00000000E+00  0.00000000E+00
  0.00000000E+00  0.00000000E+00  1.00000000E+00  0.00000000E+00  0.00000000E+00
  0.00000000E+00  0.00000000E+00  1.00000000E+00  0.00000000E+00  0.00000000E+00
  0.00000000E+00  0.00000000E+00  0.00000000E+00  1.00000000E+00  1.00000000E+00
  0.00000000E+00  1.00000000E+00  0.00000000E+00  0.00000000E+00  0.00000000E+00
  0.00000000E+00  0.00000000E+00  0.00000000E+00  0.00000000E+00  0.00000000E+00
  0.00000000E+00  0.00000000E+00
MxBond                                     I                3
NBond                                      I   N=           6
           3           3           1           1           1           1
IBond                                      I   N=          18
           2           5           6           1           3           4
           2           0           0           2           0           0
           1           0           0           1           0           0
RBond                                      R   N=          18
  2.00000000E+00  1.00000000E+00  1.00000000E+00  2.00000000E+00  1.00000000E+00
  2.00000000E+00  1.00000000E+00  0.00000000E+00  0.00000000E+00  2.00000000E+00
  0.00000000E+00  0.00000000E+00  1.00000000E+00  0.00000000E+00  0.00000000E+00
  1.00000000E+00  0.00000000E+00  0.00000000E+00
Virial Ratio                               R      2.004420852688086E+00
SCF Energy                                 R     -1.698134223473230E+02
Total Energy                               R     -1.698134223473230E+02
S**2                                       R     -5.329070518200751E-15
S**2 after annihilation                    R     -6.146194664324987E-13
RMS Force                                  R      2.445387459260833E-03
RMS Density                                R      1.503987220570208E-09
Job Status                                 I                1
Nuclear derivative order                   I                1
External E-field                           R   N=          35
  0.00000000E+00  0.00000000E+00  0.00000000E+00  0.00000000E+00  0.00000000E+00
  0.00000000E+00  0.00000000E+00  0.00000000E+00  0.00000000E+00  0.00000000E+00
  0.00000000E+00  0.00000000E+00  0.00000000E+00  0.00000000E+00  0.00000000E+00
  0.00000000E+00  0.00000000E+00  0.00000000E+00  0.00000000E+00  0.00000000E+00
  0.00000000E+00  0.00000000E+00  0.00000000E+00  0.00000000E+00  0.00000000E+00
  0.00000000E+00  0.00000000E+00  0.00000000E+00  0.00000000E+00  0.00000000E+00
  0.00000000E+00  0.00000000E+00  0.00000000E+00  0.00000000E+00  0.00000000E+00
IOpCl                                      I                1
IROHF                                      I                0
Alpha Orbital Energies                     R   N=         141
 -1.92345173E+01 -1.45896342E+01 -1.03349990E+01 -1.22549783E+00 -9.68497351E-01
 -7.63304359E-01 -6.46394383E-01 -5.79482847E-01 -5.52426903E-01 -5.12150158E-01
 -3.50382476E-01 -3.20481821E-01  2.96083199E-02  5.88466986E-02  8.54788373E-02
  1.17745781E-01  1.38644801E-01  1.41600600E-01  1.49112677E-01  1.67466442E-01
  1.98200386E-01  2.12485189E-01  2.13504874E-01  2.57320924E-01  2.65552924E-01
  2.76689949E-01  2.85610256E-01  3.09138993E-01  3.19728986E-01  3.28240648E-01
  3.35475549E-01  3.67438429E-01  3.76690820E-01  4.00717416E-01  4.21640353E-01
  4.29027384E-01  4.31751223E-01  4.39394889E-01  4.62656910E-01  4.87364305E-01
  5.12069791E-01  5.16697220E-01  5.31174685E-01  5.56116193E-01  5.58735691E-01
  5.77757669E-01  6.02712469E-01  6.29220331E-01  6.67767844E-01  6.81090216E-01
  6.81718971E-01  7.52688373E-01  7.58148019E-01  7.66925578E-01  7.91914651E-01
  8.13985558E-01  8.46447396E-01  8.91373990E-01  8.94732267E-01  9.59264570E-01
  1.00943902E+00  1.01284942E+00  1.06920486E+00  1.12199863E+00  1.16271371E+00
  1.22834176E+00  1.25155328E+00  1.39009512E+00  1.39800619E+00  1.48432137E+00
  1.52572340E+00  1.64836875E+00  1.65986199E+00  1.74210153E+00  1.81008059E+00
  1.82723260E+00  1.90422077E+00  1.92714914E+00  1.94133177E+00  1.96493207E+00
  2.01442001E+00  2.05240537E+00  2.08643518E+00  2.16474092E+00  2.24985901E+00
  2.34854653E+00  2.40711937E+00  2.42665374E+00  2.47096325E+00  2.50588452E+00
  2.68856927E+00  2.73291887E+00  2.78308703E+00  2.82582625E+00  2.91508412E+00
  2.98426281E+00  3.00430942E+00  3.04284294E+00  3.12157400E+00  3.17902776E+00
  3.21531296E+00  3.21681451E+00  3.29374457E+00  3.33006698E+00  3.38911071E+00
  3.41510087E+00  3.56430223E+00  3.63166729E+00  3.73480671E+00  3.87961313E+00
  3.96091486E+00  4.17678936E+00  4.24052296E+00  4.27534843E+00  4.37497754E+00
  4.63401538E+00  4.78949390E+00  4.83814283E+00  4.88297911E+00  4.91287650E+00
  5.01895428E+00  5.04666014E+00  5.22116329E+00  5.29764144E+00  5.33320993E+00
  5.43075270E+00  5.54115813E+00  5.55937879E+00  5.68835517E+00  5.92073796E+00
  6.39861428E+00  6.55254039E+00  6.58471842E+00  6.66743904E+00  6.96566944E+00
  7.13587844E+00  7.25559362E+00  7.73129706E+00  2.26884365E+01  3.24301501E+01
  4.44220422E+01
Beta Orbital Energies                      R   N=         141
 -1.92345173E+01 -1.45896342E+01 -1.03349990E+01 -1.22549783E+00 -9.68497351E-01
 -7.63304359E-01 -6.46394383E-01 -5.79482847E-01 -5.52426903E-01 -5.12150158E-01
 -3.50382476E-01 -3.20481821E-01  2.96083199E-02  5.88466986E-02  8.54788373E-02
  1.17745781E-01  1.38644801E-01  1.41600600E-01  1.49112677E-01  1.67466442E-01
  1.98200386E-01  2.12485189E-01  2.13504874E-01  2.57320924E-01  2.65552924E-01
  2.76689949E-01  2.85610256E-01  3.09138993E-01  3.19728986E-01  3.28240648E-01
  3.35475549E-01  3.67438429E-01  3.76690820E-01  4.00717416E-01  4.21640353E-01
  4.29027384E-01  4.31751223E-01  4.39394889E-01  4.62656910E-01  4.87364305E-01
  5.12069791E-01  5.16697220E-01  5.31174685E-01  5.56116193E-01  5.58735691E-01
  5.77757669E-01  6.02712469E-01  6.29220331E-01  6.67767844E-01  6.81090216E-01
  6.81718971E-01  7.52688373E-01  7.58148019E-01  7.66925578E-01  7.91914651E-01
  8.13985558E-01  8.46447396E-01  8.91373990E-01  8.94732267E-01  9.59264570E-01
  1.00943902E+00  1.01284942E+00  1.06920486E+00  1.12199863E+00  1.16271371E+00
  1.22834176E+00  1.25155328E+00  1.39009512E+00  1.39800619E+00  1.48432137E+00
  1.52572340E+00  1.64836875E+00  1.65986199E+00  1.74210153E+00  1.81008059E+00
  1.82723260E+00  1.90422077E+00  1.92714914E+00  1.94133177E+00  1.96493207E+00
  2.01442001E+00  2.05240537E+00  2.08643518E+00  2.16474092E+00  2.24985901E+00
  2.34854653E+00  2.40711937E+00  2.42665374E+00  2.47096325E+00  2.50588452E+00
  2.68856927E+00  2.73291887E+00  2.78308703E+00  2.82582625E+00  2.91508412E+00
  2.98426281E+00  3.00430942E+00  3.04284294E+00  3.12157400E+00  3.17902776E+00
  3.21531296E+00  3.21681451E+00  3.29374457E+00  3.33006698E+00  3.38911071E+00
  3.41510087E+00  3.56430223E+00  3.63166729E+00  3.73480671E+00  3.87961313E+00
  3.96091486E+00  4.17678936E+00  4.24052296E+00  4.27534843E+00  4.37497754E+00
  4.63401538E+00  4.78949390E+00  4.83814283E+00  4.88297911E+00  4.91287650E+00
  5.01895428E+00  5.04666014E+00  5.22116329E+00  5.29764144E+00  5.33320993E+00
  5.43075270E+00  5.54115813E+00  5.55937879E+00  5.68835517E+00  5.92073796E+00
  6.39861428E+00  6.55254039E+00  6.58471842E+00  6.66743904E+00  6.96566944E+00
  7.13587844E+00  7.25559362E+00  7.73129706E+00  2.26884365E+01  3.24301501E+01
  4.44220422E+01
Alpha MO coefficients                      R   N=       19881
  1.89865477E-05 -9.14992538E-05  1.19682939E-03 -4.65321945E-03 -1.02481527E-02
  3.11136629E-03  2.03910742E-04 -8.34424899E-06  3.61615694E-05 -6.69428752E-04
 -2.63455362E-04  1.14244464E-03 -1.32101589E-03 -9.20893881E-04  3.99432497E-03
 -6.65621763E-06  7.44141042E-05  7.42936170E-06 -1.89786794E-05 -1.71625574E-05
 -2.18955649E-04  6.59373683E-04  1.49262028E-04 -2.33650501E-04 -1.52057146E-04
  1.74038109E-03  4.80231187E-03 -7.94266196E-04  2.45080661E-04 -1.10755297E-03
 -2.25612491E-05 -1.17996170E-04 -1.12972224E-06  3.66674245E-05  1.04112974E-04
 -1.96670793E-04 -1.04806846E-05  7.59566062E-06 -2.98487976E-05 -2.56591405E-03
  1.14113350E-02 -3.72346985E-02 -8.33819024E-03 -7.57869678E-05  2.25075107E-05
 -9.75897390E-05  4.49862976E-03 -1.45587000E-03  6.31232079E-03 -1.69832514E-02
  5.22782337E-03 -2.26669792E-02  1.29641462E-04  2.12477542E-04 -9.24309266E-05
  1.54891836E-04 -4.90101425E-05  1.74400497E-03  3.86290544E-03 -9.86318765E-04
  1.02821076E-03 -8.90935098E-04 -5.92264943E-03 -4.37588045E-03  2.66944561E-03
 -7.00456779E-04  1.00921303E-03  8.21852121E-05  3.54068730E-04 -1.81832994E-04
  2.95118056E-04 -1.59057372E-04  7.60230100E-05 -9.05376046E-05  3.19656877E-04
  3.44192017E-04  6.10010373E-03  1.56143620E-04 -2.94624286E-05  1.27732665E-04
 -1.66559760E-03 -1.40356971E-04  6.08648706E-04  4.35396049E-01  6.39374514E-01
  3.77205274E-02 -3.79886690E-02  5.30406687E-02  6.38550249E-03 -1.61802242E-03
  4.71107441E-04 -2.04257537E-03  5.55470416E-03 -1.63375492E-03  7.08344833E-03
 -1.14070570E-02  2.80403011E-03 -1.21570506E-02 -6.33570557E-04  2.54210001E-04
 -1.10219339E-03  1.51107642E-04  3.04290134E-04 -7.92124421E-05  6.34433842E-05
 -7.01803201E-05 -1.23093618E-03 -2.39915955E-03  6.97193123E-04 -7.29983755E-04
  5.53342147E-04  5.05161323E-04  1.93326691E-03 -3.83101541E-04  6.97536729E-04
 -4.45901780E-04 -2.87765786E-06  4.02502364E-04 -1.11021982E-04  2.60192337E-04
 -1.73926773E-04  6.33371483E-05 -7.80845979E-05  1.69002857E-05  3.56162067E-04
  1.72616314E-03  2.52051572E-04  4.47326746E-06 -1.94058855E-05  3.52967136E-03
 -2.40997114E-04  1.04359238E-03  1.70667785E-05 -2.19951403E-05  2.98543138E-03
  6.85526807E-05  1.36725281E-06 -5.91868618E-06 -1.43072368E-03  3.95981467E-04
 -1.71627673E-03  7.03146815E-06 -8.72318752E-06  7.66995340E-04  1.26660966E-03
 -1.25922499E-02 -1.71175930E-03  3.51838343E-04 -2.91522149E-07  1.22389639E-06
  3.65515996E-03  1.59825814E-05 -6.94013332E-05 -1.32673198E-02  5.95427055E-04
 -2.58130452E-03  6.78208386E-05 -2.92855593E-05 -1.44529167E-05 -5.81305965E-05
  6.75651886E-06 -1.20613624E-03 -1.84246947E-04  3.24805769E-04  7.55649543E-04
  4.24292366E-05  2.42389368E-03 -2.02308813E-03 -3.77065442E-04 -2.65001343E-03
  4.66648592E-04  9.86688956E-05  5.08864728E-04 -1.03945382E-05 -1.24808740E-04
 -1.09440819E-04 -2.90067173E-04  3.52326075E-05  4.48696944E-01  6.26644340E-01
  3.70594162E-02 -3.38945191E-02  4.54141837E-02  1.67541999E-02 -1.70481766E-04
 -7.42497344E-05  3.22083207E-04  2.78150960E-03 -9.72299524E-05  4.21220118E-04
 -1.70144637E-03  5.01910795E-04 -2.17533640E-03  8.52638286E-05  3.51324781E-04
 -1.77793799E-04  5.82216797E-04 -8.10471396E-05  6.87478903E-04 -4.41089501E-04
 -2.29225924E-05 -1.09664381E-03  1.01765045E-04  1.59827326E-03 -8.76469440E-04
 -1.02523579E-03  1.44080863E-03  2.02122701E-04 -1.94602209E-05  2.60328796E-04
 -2.57431532E-05  8.86631835E-05 -1.08498650E-04  2.75847842E-05 -2.61841900E-05
  2.07196592E-04 -1.11496241E-03 -1.98701854E-02  1.83423937E-04  7.42281283E-05
 -3.21840630E-04  1.84183803E-03  9.49798322E-04 -4.11817809E-03 -2.68724816E-05
 -8.40903665E-05  5.99259879E-04 -9.60216877E-05 -3.67435817E-03 -1.60236623E-03
 -2.32081820E-04  6.12690927E-05 -2.65654218E-04  4.95487531E-04 -8.16488293E-05
  3.54041611E-04 -1.27320682E-04  1.64521975E-04 -7.13631301E-04 -2.59465228E-04
  5.06562295E-05 -2.19597121E-04  3.09542043E-06  3.88762272E-05 -6.67863580E-06
  2.20522969E-05 -8.96684846E-06 -1.90412107E-04 -6.82858210E-04  1.57358129E-04
 -3.16155556E-04  1.57496343E-04  5.48158817E-04  1.02942147E-03 -3.06667293E-04
  3.09534088E-04 -2.37415866E-04 -1.79049769E-05  4.78192651E-04 -1.26743661E-04
  3.19084618E-04 -2.06404602E-04  7.44837688E-05 -9.54250633E-05  2.51290955E-04
  8.77594217E-04 -4.63513251E-03 -5.03203602E-05 -4.62553198E-05  2.00659877E-04
 -1.80869519E-03  4.45164802E-05 -1.93039704E-04  2.04620337E-04  1.00543907E-03
 -5.83306450E-03  3.43870094E-05  4.23911490E-05 -1.83736443E-04 -4.35605486E-04
 -1.21029073E-04  5.24327540E-04  4.67232463E-01  6.08242222E-01  3.77593269E-02
 -2.59376689E-02  6.91459752E-02 -1.15236280E-03  1.59883444E-03  4.96316226E-06
 -2.17953090E-05  5.29622290E-03 -1.39197002E-04  6.02259602E-04 -1.75922773E-02
  4.65258896E-04 -2.02008755E-03 -1.64442591E-05  5.97220910E-05 -3.56332664E-04
  1.49137448E-03 -1.37745397E-05 -8.36506522E-04  1.28164916E-04 -3.57396637E-04
  2.91605052E-03 -2.96489948E-05  1.07016334E-02  1.82555434E-03 -4.14040098E-03
 -1.53836155E-03 -4.21189131E-04 -1.25784006E-04 -1.52076168E-03  1.69535873E-05
  1.50448738E-04  3.59638312E-04  7.57796671E-04 -4.23675659E-05 -8.90298790E-05
 -1.81060440E-04  2.21124689E-03 -9.59183734E-03  7.75943078E-04  6.06226913E-03
 -6.37852397E-04  2.25947663E-05 -9.78954203E-05  8.07862796E-03 -2.84076800E-04
  1.23094543E-03 -9.19147663E-03  1.39369201E-03 -6.04042771E-03  1.40588153E-05
  2.05640813E-06  3.36258059E-05 -1.62393130E-04 -4.65071482E-07  2.70860775E-03
  3.23738133E-04 -4.18728156E-04 -2.97246931E-03 -7.45631716E-05 -4.94207791E-03
 -1.61580862E-03  1.33947315E-03  3.06165619E-03  3.72508500E-04 -1.75192039E-06
 -4.26998971E-04 -3.90030370E-05  9.25727592E-05 -4.91065593E-05  7.15847998E-04
 -2.78042484E-05 -2.45318977E-04 -1.03545032E-04  2.08537828E-03  3.45627927E-04
 -4.77037390E-06  2.06380425E-05 -1.88815487E-03 -2.53327721E-05  1.10157771E-04
  6.46253694E-06 -6.31855599E-05  8.76351488E-04 -3.51481117E-03  1.10700651E-02
  3.32168423E-04 -1.23718672E-04  5.43304184E-06 -2.35738474E-05  1.34820642E-03
 -1.51351246E-04  6.56297460E-04 -3.24608940E-03  4.16182086E-04 -1.80515203E-03
 -2.78612270E-04  6.25649276E-05 -2.71179325E-04 -3.24229402E-05  5.18604101E-05
  1.35128746E-05  6.68292887E-07 -1.19610239E-05  1.70104112E-04 -5.57696509E-04
 -2.09036818E-05 -2.08731171E-04  1.28629647E-04 -5.50331309E-05  1.02540298E-03
  1.18499089E-04 -3.91146209E-04 -2.36403821E-04 -3.21323308E-05  2.29851277E-05
  4.36081954E-06  3.84065275E-05 -1.02083174E-05  4.53838754E-06 -1.07951114E-05
 -4.69302077E-04 -1.47811933E-04 -4.23724264E-02 -6.15371208E-04  3.37173798E-04
 -1.46230093E-03 -5.08119270E-03  8.31887360E-04 -3.61086274E-03 -4.45634963E-04
 -8.61580564E-04 -3.44930615E-02 -8.24713044E-04 -3.30796950E-04  1.43410870E-03
 -6.62490537E-03 -5.00240533E-04  2.16710540E-03 -2.18998014E-02 -4.55508866E-02
  6.84579397E-02  4.61256719E-02  9.13290462E-03  1.15385832E-02  5.16574773E-02
 -1.44507450E-03  6.26041523E-03  2.15657126E-02 -1.13443473E-03  4.91679117E-03
  6.21575798E-03 -2.40003468E-03  1.04101598E-02 -2.72721364E-03  1.25970026E-03
 -2.85241290E-04  5.89476903E-03 -2.90772657E-04 -2.77302017E-04  3.13789148E-03
 -7.65664416E-04  3.62363883E-03 -7.23710777E-04  4.72193443E-03 -8.25467104E-04
 -2.16360786E-03  7.00891636E-04  1.90239058E-04 -3.99773130E-04 -6.29611258E-04
  1.47756476E-06  5.99288197E-04 -2.57316912E-04  1.67524345E-03 -1.70868497E-04
 -7.65488178E-02 -1.72595540E-01  2.66953637E-01  2.84305003E-01  1.35037628E-02
 -3.15293568E-02  4.10174117E-02 -1.63917460E-02  7.10727302E-02  1.53775661E-02
 -7.89320879E-03  3.42253697E-02 -7.21519121E-03  2.28897701E-03 -9.92609406E-03
  4.28159363E-03  7.06832918E-03 -3.20369153E-03  5.73552042E-03 -1.63036547E-03
  5.32601605E-04  4.78701151E-03 -2.30674383E-03  8.54708793E-03 -1.10427004E-03
 -8.76299007E-03 -1.08233839E-03  5.04336449E-03 -5.52619026E-03  2.50022783E-04
 -2.04813559E-04  4.88940974E-03 -6.62632027E-04  1.83616825E-03 -1.72949085E-03
 -5.15590715E-04 -5.46723530E-04  3.96180636E-02  3.80254610E-02  1.42779083E-02
 -2.73317172E-03 -1.97272553E-03  8.55429140E-03  4.82749032E-04 -1.85465132E-04
  8.03470735E-04 -6.73747867E-02 -1.58294462E-01  2.24914558E-01  2.96309235E-01