0002_q000_m01_k00_opt_uwb97xd_def2svpd/0002_q000_m01_k00_force_uhf_def2s
Force     UHF                                                         Gen                 
Number of atoms                            I                6
Info1-9                                    I   N=           9
          13           9           0           0           0         100
           5           1           2
Full Title                                 C   N=           8
0002_q000_m01_k00_opt_uwb97xd_def2svpd/0002_q000_m01_k00_for
ce_uhf_def2svpd stable-force        
Route                                      C   N=          15
#p uhf/chkbasis force guess=read geom=check scf=(maxcycle=90
0,verytightlineq,xqc) integral=grid=ultrafine symmetry=None 
density=current pop=(cm5,hlygat,mbs,npa) output=wfx         
Charge                                     I                0
Multiplicity                               I                1
Number of electrons                        I               24
Number of alpha electrons                  I               12
Number of beta electrons                   I               12
Number of basis functions                  I               87
Number of independent functions            I               87
Number of point charges in /Mol/           I                0
Number of translation vectors              I                0
Atomic numbers                             I   N=           6
           6           7           1           8           1           1
Nuclear charges                            R   N=           6
  6.00000000E+00  7.00000000E+00  1.00000000E+00  8.00000000E+00  1.00000000E+00
  1.00000000E+00
Current cartesian coordinates              R   N=          18
  1.76526120E+00 -9.56393551E-02  1.00895621E-01  4.21476231E+00 -1.14759850E-01
  1.83592472E-01  5.12197023E+00  2.73169593E-01 -1.49843980E+00  5.62552287E+00
 -5.41213095E-01  2.03257921E+00  8.69741593E-01  3.19707205E-01 -1.70041362E+00
  7.24411360E-01 -4.93862518E-01  1.82729168E+00
Number of symbols in /Mol/                 I                0
Int Atom Types                             I   N=           6
           0           0           0           0           0           0
Force Field                                I                0
Atom Types                                 C   N=           6
                                                            
            
MM charges                                 R   N=           6
  0.00000000E+00  0.00000000E+00  0.00000000E+00  0.00000000E+00  0.00000000E+00
  0.00000000E+00
Integer atomic weights                     I   N=           6
          12          14           1          16           1           1
Real atomic weights                        R   N=           6
  1.20000000E+01  1.40030740E+01  1.00782504E+00  1.59949146E+01  1.00782504E+00
  1.00782504E+00
Atom fragment info                         I   N=           6
           0           0           0           0           0           0
Atom residue num                           I   N=           6
           0           0           0           0           0           0
Nuclear spins                              I   N=           6
           0           2           1           0           1           1
Nuclear ZEff                               R   N=           6
 -3.60000000E+00 -4.55000000E+00 -1.00000000E+00 -5.60000000E+00 -1.00000000E+00
 -1.00000000E+00
Nuclear ZNuc                               R   N=           6
  6.00000000E+00  7.00000000E+00  1.00000000E+00  8.00000000E+00  1.00000000E+00
  1.00000000E+00
Nuclear QMom                               R   N=           6
  0.00000000E+00  2.04400000E+00  0.00000000E+00  0.00000000E+00  0.00000000E+00
  0.00000000E+00
Nuclear GFac                               R   N=           6
  0.00000000E+00  4.03761000E-01  2.79284600E+00  0.00000000E+00  2.79284600E+00
  2.79284600E+00
MicOpt                                     I   N=           6
          -1          -1          -1          -1          -1          -1
Number of residues                         I                0
Number of secondary structures             I                0
Number of contracted shells                I               37
Number of primitive shells                 I               61
Pure/Cartesian d shells                    I                0
Pure/Cartesian f shells                    I                0
Highest angular momentum                   I                2
Largest degree of contraction              I                5
Shell types                                I   N=          37
           0           0           0           0           1           1
          -2          -2           0           0           0           0
           1           1          -2          -2           0           0
           1           1           0           0           0           0
           1           1           1          -2          -2           0
           0           1           1           0           0           1
           1
Number of primitives per shell             I   N=          37
           5           1           1           1           3           1
           1           1           5           1           1           1
           3           1           1           1           3           1
           1           1           5           1           1           1
           3           1           1           1           1           3
           1           1           1           3           1           1
           1
Shell to atom map                          I   N=          37
           1           1           1           1           1           1
           1           1           2           2           2           2
           2           2           2           2           3           3
           3           3           4           4           4           4
           4           4           4           4           4           5
           5           5           5           6           6           6
           6
Primitive exponents                        R   N=          61
  1.23840169E+03  1.86290050E+02  4.22511763E+01  1.16765579E+01  3.59305065E+00
  4.02451474E-01  1.30901827E-01  6.70535403E-02  9.46809706E+00  2.01035451E+00
  5.47710047E-01  1.52686138E-01  8.00000000E-01  1.17131851E-01  1.71284159E+03
  2.57648127E+02  5.84582459E+01  1.61983679E+01  5.00526008E+00  5.87318566E-01
  1.87645923E-01  9.61712415E-02  1.35714702E+01  2.92573729E+00  7.99277508E-01
  2.19543480E-01  1.00000000E+00  1.66977081E-01  1.30107010E+01  1.96225720E+00
  4.44537960E-01  1.21949620E-01  8.00000000E-01  1.17040991E-01  2.26617678E+03
  3.40870102E+02  7.73631352E+01  2.14796449E+01  6.65894331E+00  8.09759757E-01
  2.55307722E-01  7.65724533E-02  1.77215043E+01  3.86355054E+00  1.04809209E+00
  2.76415444E-01  6.90022764E-02  1.20000000E+00  1.79920243E-01  1.30107010E+01
  1.96225720E+00  4.44537960E-01  1.21949620E-01  8.00000000E-01  1.17040991E-01
  1.30107010E+01  1.96225720E+00  4.44537960E-01  1.21949620E-01  8.00000000E-01
  1.17040991E-01
Contraction coefficients                   R   N=          61
  5.51736505E-03  4.10888286E-02  1.82253821E-01  4.68284594E-01  4.45758173E-01
  1.00000000E+00  1.00000000E+00  1.00000000E+00  5.68883320E-02  3.12940593E-01
  7.60650165E-01  1.00000000E+00  1.00000000E+00  1.00000000E+00 -5.44779958E-03
 -4.06271746E-02 -1.81119623E-01 -4.68439756E-01 -4.46168463E-01  1.00000000E+00
  1.00000000E+00  1.00000000E+00 -5.88481170E-02 -3.20246248E-01 -7.53282265E-01
  1.00000000E+00  1.00000000E+00  1.00000000E+00  3.34854848E-02  2.34721871E-01
  8.13770285E-01  1.00000000E+00  1.00000000E+00  1.00000000E+00 -5.38935039E-03
 -4.02347214E-02 -1.80081842E-01 -4.68288577E-01 -4.46926172E-01  1.00000000E+00
  1.00000000E+00  1.00000000E+00  6.26302488E-02  3.33311385E-01  7.41486383E-01
  1.00000000E+00  1.00000000E+00  1.00000000E+00  1.00000000E+00  3.34854848E-02
  2.34721871E-01  8.13770285E-01  1.00000000E+00  1.00000000E+00  1.00000000E+00
  3.34854848E-02  2.34721871E-01  8.13770285E-01  1.00000000E+00  1.00000000E+00
  1.00000000E+00
Coordinates of each shell                  R   N=         111
  1.76526120E+00 -9.56393551E-02  1.00895621E-01  1.76526120E+00 -9.56393551E-02
  1.00895621E-01  1.76526120E+00 -9.56393551E-02  1.00895621E-01  1.76526120E+00
 -9.56393551E-02  1.00895621E-01  1.76526120E+00 -9.56393551E-02  1.00895621E-01
  1.76526120E+00 -9.56393551E-02  1.00895621E-01  1.76526120E+00 -9.56393551E-02
  1.00895621E-01  1.76526120E+00 -9.56393551E-02  1.00895621E-01  4.21476231E+00
 -1.14759850E-01  1.83592472E-01  4.21476231E+00 -1.14759850E-01  1.83592472E-01
  4.21476231E+00 -1.14759850E-01  1.83592472E-01  4.21476231E+00 -1.14759850E-01
  1.83592472E-01  4.21476231E+00 -1.14759850E-01  1.83592472E-01  4.21476231E+00
 -1.14759850E-01  1.83592472E-01  4.21476231E+00 -1.14759850E-01  1.83592472E-01
  4.21476231E+00 -1.14759850E-01  1.83592472E-01  5.12197023E+00  2.73169593E-01
 -1.49843980E+00  5.12197023E+00  2.73169593E-01 -1.49843980E+00  5.12197023E+00
  2.73169593E-01 -1.49843980E+00  5.12197023E+00  2.73169593E-01 -1.49843980E+00
  5.62552287E+00 -5.41213095E-01  2.03257921E+00  5.62552287E+00 -5.41213095E-01
  2.03257921E+00  5.62552287E+00 -5.41213095E-01  2.03257921E+00  5.62552287E+00
 -5.41213095E-01  2.03257921E+00  5.62552287E+00 -5.41213095E-01  2.03257921E+00
  5.62552287E+00 -5.41213095E-01  2.03257921E+00  5.62552287E+00 -5.41213095E-01
  2.03257921E+00  5.62552287E+00 -5.41213095E-01  2.03257921E+00  5.62552287E+00
 -5.41213095E-01  2.03257921E+00  8.69741593E-01  3.19707205E-01 -1.70041362E+00
  8.69741593E-01  3.19707205E-01 -1.70041362E+00  8.69741593E-01  3.19707205E-01
 -1.70041362E+00  8.69741593E-01  3.19707205E-01 -1.70041362E+00  7.24411360E-01
 -4.93862518E-01  1.82729168E+00  7.24411360E-01 -4.93862518E-01  1.82729168E+00
  7.24411360E-01 -4.93862518E-01  1.82729168E+00  7.24411360E-01 -4.93862518E-01
  1.82729168E+00
Num ILSW                                   I              100
ILSW                                       I   N=         100
           1           0           0           0           2           0
           0           0           0           0           0          -1
           5           0           0           0           2           0
           0           0           0           0           1           0
           1           1           0           0           0           0
           0           0      100000           0          -1           0
           0           0           0           0           0           0
           0           0           0           1           0           0
           0 -2000000000           1           0           0           0
           0           0           4          52           0           0
           0           0           0           0           0           0
           0           0           0           6           0           1
           0           0           0           0           0           0
           0           0           0           0           0           0
           0           0           0           0           0           0
           0           0           0           0           0           0
           0           0           0           0
Num RLSW                                   I               52
RLSW                                       R   N=          52
  1.00000000E+00  1.00000000E+00  1.00000000E+00  1.00000000E+00  1.00000000E+00
  0.00000000E+00  0.00000000E+00  1.00000000E+00  0.00000000E+00  0.00000000E+00
  0.00000000E+00  0.00000000E+00  1.00000000E+00  0.00000000E+00  0.00000000E+00
  0.00000000E+00  0.00000000E+00  1.00000000E+00  0.00000000E+00  0.00000000E+00
  0.00000000E+00  0.00000000E+00  1.00000000E+00  0.00000000E+00  0.00000000E+00
  0.00000000E+00  0.00000000E+00  1.00000000E+00  0.00000000E+00  0.00000000E+00
  0.00000000E+00  0.00000000E+00  1.00000000E+00  0.00000000E+00  0.00000000E+00
  0.00000000E+00  0.00000000E+00  0.00000000E+00  1.00000000E+00  1.00000000E+00
  0.00000000E+00  1.00000000E+00  0.00000000E+00  0.00000000E+00  0.00000000E+00
  0.00000000E+00  0.00000000E+00  0.00000000E+00  0.00000000E+00  0.00000000E+00
  0.00000000E+00  0.00000000E+00
MxBond                                     I                3
NBond                                      I   N=           6
           3           3           1           1           1           1
IBond                                      I   N=          18
           2           5           6           1           3           4
           2           0           0           2           0           0
           1           0           0           1           0           0
RBond                                      R   N=          18
  2.00000000E+00  1.00000000E+00  1.00000000E+00  2.00000000E+00  1.00000000E+00
  2.00000000E+00  1.00000000E+00  0.00000000E+00  0.00000000E+00  2.00000000E+00
  0.00000000E+00  0.00000000E+00  1.00000000E+00  0.00000000E+00  0.00000000E+00
  1.00000000E+00  0.00000000E+00  0.00000000E+00
Virial Ratio                               R      2.003851806228511E+00
SCF Energy                                 R     -1.687045443378395E+02
Total Energy                               R     -1.687045443378395E+02
S**2                                       R      4.720175830485918E-01
S**2 after annihilation                    R      3.680539856202029E-02
RMS Force                                  R      1.494042949067558E-02
RMS Density                                R      2.212032610526385E-09
Job Status                                 I                1
Nuclear derivative order                   I                1
External E-field                           R   N=          35
  0.00000000E+00  0.00000000E+00  0.00000000E+00  0.00000000E+00  0.00000000E+00
  0.00000000E+00  0.00000000E+00  0.00000000E+00  0.00000000E+00  0.00000000E+00
  0.00000000E+00  0.00000000E+00  0.00000000E+00  0.00000000E+00  0.00000000E+00
  0.00000000E+00  0.00000000E+00  0.00000000E+00  0.00000000E+00  0.00000000E+00
  0.00000000E+00  0.00000000E+00  0.00000000E+00  0.00000000E+00  0.00000000E+00
  0.00000000E+00  0.00000000E+00  0.00000000E+00  0.00000000E+00  0.00000000E+00
  0.00000000E+00  0.00000000E+00  0.00000000E+00  0.00000000E+00  0.00000000E+00
IOpCl                                      I                1
IROHF                                      I                0
Alpha Orbital Energies                     R   N=          87
 -2.05394543E+01 -1.57075949E+01 -1.12966403E+01 -1.43530586E+00 -1.13802624E+00
 -8.86914399E-01 -7.50797029E-01 -6.71362627E-01 -5.91301920E-01 -5.90823052E-01
 -4.40635270E-01 -3.49728079E-01  9.10109178E-02  1.27343449E-01  1.28397118E-01
  1.91442375E-01  1.97214184E-01  2.02748522E-01  2.06845536E-01  2.30341736E-01
  2.56589496E-01  2.63064930E-01  2.78589888E-01  3.16146368E-01  3.51763242E-01
  3.71335651E-01  4.08869095E-01  4.13647766E-01  4.27708403E-01  4.50192068E-01
  4.55392873E-01  4.74031969E-01  5.05255526E-01  5.33753851E-01  5.34724753E-01
  5.71321849E-01  6.07693816E-01  6.63619288E-01  6.68390694E-01  7.05258255E-01
  7.52368739E-01  7.60869568E-01  7.62272991E-01  7.82562313E-01  7.88797390E-01
  8.26530023E-01  8.38027593E-01  9.14284232E-01  9.33301296E-01  1.07932803E+00
  1.14841649E+00  1.22729881E+00  1.24150895E+00  1.32159238E+00  1.35680309E+00
  1.39840014E+00  1.52120455E+00  1.64227285E+00  1.69664123E+00  1.76796481E+00
  1.81777424E+00  1.86962427E+00  1.88420233E+00  1.90258202E+00  2.04449416E+00
  2.05173806E+00  2.08091344E+00  2.19375524E+00  2.24070915E+00  2.34318591E+00
  2.37801785E+00  2.46539116E+00  2.49677108E+00  2.51643898E+00  2.67005999E+00
  2.73662306E+00  2.96945554E+00  2.97221535E+00  3.19569983E+00  3.26184589E+00
  3.28031315E+00  3.33836272E+00  3.48663763E+00  3.63142729E+00  3.72809693E+00
  4.01308051E+00  4.36123587E+00
Beta Orbital Energies                      R   N=          87
 -2.05598001E+01 -1.57221304E+01 -1.12778549E+01 -1.47166361E+00 -1.15686561E+00
 -8.79705600E-01 -7.46580714E-01 -6.83100147E-01 -6.79951584E-01 -5.89202564E-01
 -4.61059527E-01 -4.14525816E-01  9.29477077E-02  1.17804494E-01  1.27290884E-01
  1.90185025E-01  2.00787229E-01  2.02081309E-01  2.05812664E-01  2.36128600E-01
  2.54044622E-01  2.65192616E-01  2.77975477E-01  3.40280412E-01  3.58419692E-01
  3.75144658E-01  4.10211768E-01  4.13619424E-01  4.32079248E-01  4.52503752E-01
  4.56477255E-01  4.70342375E-01  5.12744767E-01  5.34860762E-01  5.39818973E-01
  5.76009958E-01  6.13528887E-01  6.63767259E-01  6.66242012E-01  7.06959163E-01
  7.49210191E-01  7.50647821E-01  7.59039100E-01  7.80702839E-01  7.87496835E-01
  8.19327010E-01  8.37700538E-01  9.08701275E-01  9.92647259E-01  1.08241658E+00
  1.15618412E+00  1.23156167E+00  1.25538376E+00  1.32197353E+00  1.32373891E+00
  1.39871862E+00  1.52088614E+00  1.66864778E+00  1.69252400E+00  1.76657180E+00
  1.81428199E+00  1.84483510E+00  1.88202430E+00  1.88453769E+00  2.03953842E+00
  2.05311265E+00  2.07552438E+00  2.20255787E+00  2.24229372E+00  2.34276088E+00
  2.38103376E+00  2.48166604E+00  2.49023669E+00  2.52058775E+00  2.67568719E+00
  2.73756960E+00  2.95891371E+00  2.96068240E+00  3.17465979E+00  3.23469980E+00
  3.23996253E+00  3.34114139E+00  3.48603022E+00  3.58899533E+00  3.71751280E+00
  4.00667979E+00  4.34685648E+00
Alpha MO coefficients                      R   N=        7569
  2.47738654E-05 -1.16281530E-03  7.58237738E-03  8.25423959E-03  6.16756301E-05
 -3.93455637E-05  1.70544657E-04  4.55206964E-03  1.44864397E-03 -6.28065591E-03
  1.39657206E-05  3.49597754E-04 -5.23685243E-05  1.90768372E-04 -8.06342944E-05
  2.92270265E-03 -5.91755422E-03 -1.58441312E-03  1.44390959E-03  1.36466667E-03
  1.65674577E-04  1.03136330E-03 -2.33143862E-02 -4.04082399E-02 -9.36093480E-05
  4.08637520E-05 -1.77175817E-04 -1.19791623E-02  3.23904886E-03 -1.40437918E-02
  1.65909598E-04  7.09773675E-04 -9.29219799E-05  9.40806730E-05 -1.63698761E-04
 -5.64093240E-03 -1.37775324E-02  3.60795491E-03 -5.04085214E-03  3.17769465E-03
  4.44397195E-04  2.06360100E-03 -1.53586510E-04 -1.18991269E-04  5.15892191E-04
 -1.27683717E-03  3.03282730E-05 -1.31623321E-04  9.90239975E-01 -3.83416949E-02
  5.66421088E-02  1.22984356E-02  1.64992965E-03 -5.27984149E-04  2.28917984E-03
 -9.70504275E-03  3.23383798E-03 -1.40209421E-02 -2.20904279E-03  1.03708196E-03
 -4.49643403E-03  4.42881326E-05  3.67032736E-04  2.41682077E-05 -1.75940607E-04
 -8.46488116E-05  1.21306292E-03  1.58290853E-03 -5.18150786E-04  2.58988206E-05
 -3.65094816E-04 -4.49938437E-04  2.76941955E-03  1.78481091E-04 -9.13361871E-06
  3.95238520E-05 -2.03639970E-04 -5.59275764E-04  2.42573313E-03 -9.83991535E-05
 -4.14606871E-03  1.34911659E-05  4.39391335E-05 -1.90549495E-04  2.69894021E-03
  2.55331983E-04 -1.10904994E-03 -2.05827417E-04 -4.01112326E-04 -2.43051406E-02
 -1.30163043E-04  5.37972182E-04  2.36145978E-06 -1.02899294E-05 -1.10961301E-02
  3.59596020E-04 -1.55737064E-03 -6.77590295E-04 -4.85220653E-05  8.01215874E-05
  8.44681104E-04  1.11551231E-05  2.99595615E-03 -5.41019646E-03 -2.24378505E-04
 -4.26777763E-03  1.24779740E-03  9.90266034E-01 -3.97083015E-02  4.51135937E-02
 -5.92996766E-03 -1.63728835E-04 -2.43715039E-05  1.05886885E-04 -9.05218188E-03
  3.86956650E-04 -1.67673257E-03 -6.85036811E-04 -1.41050608E-04  5.59268072E-04
 -1.10940290E-03  3.25597159E-05 -7.75558619E-04 -2.88735100E-03 -7.83748956E-05
  1.66547076E-03  6.65902063E-04  8.65141163E-04 -1.37660148E-02 -6.86115904E-04
 -3.64049945E-04  1.57849123E-03  1.02247320E-03  1.23309388E-03 -5.34654224E-03
 -7.38561521E-05 -5.10560278E-04  3.20791282E-03  9.54472276E-03 -1.41666551E-04
  6.12836830E-05 -2.65700695E-04 -1.78355281E-03  6.71967490E-04 -2.91366500E-03
 -2.46406235E-03  7.68980798E-04 -3.33395908E-03  6.14553228E-04  9.35513164E-04
 -3.31035774E-04  2.94519975E-04 -2.15763278E-04  9.98502853E-04  1.17580052E-03
 -5.09708185E-04  3.63000024E-04 -2.71198046E-04  2.50405500E-04  7.34120944E-03
  1.84864549E-04 -1.90474436E-05  8.25657597E-05 -2.08959744E-03 -6.93262500E-04
  3.00659357E-03  3.14279209E-04 -3.71576420E-03  2.51867203E-04 -1.08787076E-05
  4.70945828E-05  3.23391549E-04  1.00694743E-04 -4.37057562E-04  9.89713366E-01
  4.83889380E-02 -6.99552899E-02 -1.78304178E-02  1.35355012E-03  2.97450183E-05
 -1.29749614E-04  1.80671760E-02 -7.43677328E-04  3.22820376E-03  1.82820116E-04
 -5.70554129E-05 -2.77724802E-04  8.23539425E-04  1.31588877E-05 -1.08285774E-02
 -1.14213694E-03  4.47975908E-03  3.64453301E-04  2.63651450E-04  3.26006607E-04
  7.81249183E-04 -9.02668516E-03  2.95044000E-03  2.31833688E-05  1.64215256E-05
 -7.12947379E-05  1.13778275E-02 -7.04817596E-04  3.05382052E-03  6.18613254E-05
  1.08717615E-04  1.01654098E-04 -5.24454103E-04 -2.50439124E-05  5.16530450E-03
  1.91410514E-03 -1.10782083E-03 -4.39900683E-03 -4.41149575E-04  2.93569034E-05
 -1.51159647E-03 -5.16456550E-04 -5.96154314E-05  2.58548793E-04  2.44036061E-03
 -1.03672870E-04  4.49164629E-04  1.07988217E-05  2.66562213E-04 -6.22195261E-03
  3.75646995E-04 -2.22321774E-05 -1.66163608E-05  7.20421781E-05  1.66133309E-03
 -2.31881958E-04  1.00548884E-03 -2.08043011E-04 -8.91324226E-05  3.86569103E-04
 -8.45870781E-05  5.29652691E-05  1.10383503E-05  1.01159915E-04 -1.22191686E-05
 -2.86249545E-04 -6.10806305E-04 -1.23319088E-04  1.00216965E-03  1.40758833E-04
 -1.02265233E-03  4.77302018E-02 -6.68879417E-04  1.83051603E-04 -7.93954270E-04
  7.80961681E-03 -1.69885734E-03  7.37093540E-03 -1.14079941E-03  3.98347039E-02
 -5.74272044E-04 -1.93544934E-04  8.38946583E-04  8.19129179E-03  1.22736841E-03
 -5.31847179E-03 -6.25558364E-02  1.22308176E-01  3.35830912E-02  2.66268281E-04
  7.43898421E-02 -2.09003178E-03  9.05648214E-03  3.10107787E-02 -3.64711140E-04
  1.58277624E-03 -7.11857115E-03  2.75969191E-03  8.72523637E-04  8.74737694E-03
 -6.36917589E-04 -3.68402217E-03  3.37505478E-03  9.33674483E-04  2.54551163E-03
 -7.78615079E-04  2.04472922E-01  4.14293888E-01  6.35061912E-02 -1.78303378E-01
 -5.34589475E-02  2.35598651E-02 -1.02153269E-01  1.43548340E-03 -6.62058019E-03
  2.87048944E-02  8.91593212E-03  1.69909233E-02 -7.31123656E-03  1.45709353E-02
 -3.91906512E-03 -8.28464751E-03  1.52333974E-02  6.73016405E-03 -1.32793818E-02
 -3.51283723E-03  8.89855251E-02  8.51707099E-02 -6.28176689E-03 -2.89193771E-03
  1.25393160E-02 -1.09270338E-02 -3.94305260E-03  1.70966145E-02  1.94975444E-01
  3.77117826E-01  2.46866419E-01  7.01312311E-02 -8.20086813E-02  2.43920081E-02
 -1.05756763E-01 -4.71060056E-02  1.35777566E-02 -5.88694892E-02 -1.63875827E-02
  4.36705006E-03 -1.89343800E-02  9.28391470E-03  1.54695573E-02 -6.09737290E-03
  8.95013820E-03 -3.56801272E-03  7.75209650E-03  9.70377801E-03 -5.31012954E-03
  8.37200011E-03 -2.23825811E-03  1.45938279E-02  9.66836035E-03  2.01592448E-03
 -6.92386086E-04  3.00249698E-03  3.38521315E-03 -3.33207940E-04  1.44311835E-03
  1.87759182E-02  2.64599975E-02  3.08414605E-03  8.02558770E-04 -3.47942625E-03
  7.03602741E-03  1.58457186E-03 -6.86859613E-03 -1.81499284E-01  3.63154874E-01
 -5.23850841E-03 -1.09468327E-02  1.39636840E-01  4.15008543E-03 -1.80087023E-02
  2.31794665E-02 -4.61816478E-03  2.00333752E-02 -1.16136000E-02 -2.67743589E-03
  1.48378272E-03  1.40241471E-02  6.16722789E-04 -2.91362246E-02  2.42812041E-02
  1.15318278E-02  3.11588479E-03 -5.59903542E-03  1.17560137E-01  2.38108280E-01
  1.24333531E-01 -2.29241004E-02  2.42055030E-01 -3.46605186E-02  1.50267277E-01
 -7.55656452E-02  6.06509530E-03 -2.62975790E-02 -1.00830325E-02 -1.14197094E-02
  1.07295176E-03  1.30599033E-02  2.63329271E-03 -4.43492245E-03  3.69448195E-02
  3.40700951E-04  6.28168944E-03 -8.52015636E-03  1.02781876E-01  7.00180153E-02
 -1.13809027E-02 -2.29112249E-03  9.93456408E-03 -1.64775405E-03 -3.24262724E-03
  1.40583490E-02 -1.56860978E-01 -3.14408883E-01 -2.60718049E-01 -3.68522793E-02
  5.90412725E-03 -7.67671153E-03  3.32860597E-02  8.29729079E-03 -7.27940594E-03
  3.15625026E-02  4.29921775E-03 -2.51817056E-03  1.09172466E-02 -5.91478015E-03
 -3.51028232E-03  3.32955373E-03 -3.42394756E-03  8.09625098E-04 -4.32700772E-03
 -4.47757424E-03  1.93531196E-03 -4.49474163E-04  1.03259510E-03  9.13837717E-02
  4.75562566E-02  6.35412054E-03 -2.73480143E-03  1.18599712E-02  2.36776193E-02
  6.45033131E-04 -2.79732156E-03  7.07620621E-02  7.38021619E-02  6.63323114E-03
  2.24136335E-03 -9.71750418E-03  1.20592078E-02  6.29881855E-04 -2.72158143E-03
  1.48390128E-01 -3.07878282E-01 -8.84616081E-02  6.83147210E-02  7.04459686E-02
  1.66186903E-02 -7.20457076E-02  1.36888392E-02 -7.07711630E-03  3.06834997E-02
 -3.39149692E-03 -5.71034279E-03  5.07271100E-04  3.79322579E-03  1.31692616E-03
  5.84964484E-02  2.27975341E-02 -2.37785849E-02 -3.70967913E-03 -5.25970802E-03
  1.06802744E-01  2.30172142E-01  1.23238563E-01  4.07557577E-02 -1.91036619E-01
 -5.43456638E-02  2.35641252E-01  7.37321166E-02  2.11796785E-02 -9.18294175E-02
  7.15211993E-03 -5.69832161E-03 -2.99016724E-03 -1.12858729E-04  1.31427669E-03
 -9.32960222E-03  5.21956721E-02  7.46804183E-03 -1.45000892E-02 -1.20386596E-02
  3.10296784E-01  5.29847215E-02 -1.35019969E-02 -6.17090360E-03  2.67563698E-02
  1.44180207E-02  5.96835095E-05 -2.57674374E-04 -7.99141529E-02 -1.64763742E-01
 -1.66440415E-01 -5.15745888E-02  4.30043678E-02  2.39708820E-02 -1.03935708E-01
  2.24491602E-02  1.18191980E-02 -5.12469933E-02  1.12718090E-02 -6.17247482E-04
  2.67789824E-03  8.44554179E-03  3.29028034E-04 -2.04849614E-03 -6.21858578E-03
 -7.57655960E-05  1.08033928E-02  3.13993195E-03 -4.56562145E-03  2.94943727E-05
 -7.24148210E-04 -1.03981560E-01 -8.00519426E-02 -4.74296950E-03  2.61317581E-03
 -1.13324809E-02 -9.08174001E-03 -3.34840225E-03  1.45008805E-02 -1.77640541E-01
 -8.53785305E-02 -8.30029973E-03 -3.59011714E-03  1.55641511E-02 -2.60253106E-02
  3.23282029E-03 -1.40200461E-02  7.82240107E-02 -1.45228237E-01 -1.88930254E-01
 -3.90060775E-02  3.01655826E-01 -3.68246507E-02  1.59682132E-01  7.13242247E-02
  5.28293062E-06 -1.86076086E-05 -1.85420036E-02  4.13897060E-03  3.47654413E-03
  1.78399920E-02 -9.55497914E-04  1.50462667E-02 -4.91467917E-02 -2.32798754E-03
 -1.64844153E-02  1.13332278E-02  6.31532820E-02  1.44830124E-01  1.39151153E-01
 -4.68939850E-02  2.26432098E-01  4.68335739E-02 -2.03093743E-01 -1.04095641E-01
 -2.42523419E-02  1.05173695E-01  1.16514583E-03  1.19022947E-04 -9.29801671E-04
  1.79997665E-03 -2.78230546E-05 -1.77164454E-03 -5.27906011E-02  2.77906864E-03
 -8.34271030E-03  1.21743876E-02 -1.63660538E-01 -5.24504184E-02  3.86866447E-03
  2.90763848E-03 -1.26069369E-02 -3.91988033E-03 -4.65682684E-05  2.02940034E-04
 -5.89150794E-02 -1.23183379E-01 -9.68893656E-02  3.34141518E-02 -1.84491268E-01
  4.13873405E-04 -1.77927824E-03 -9.98562096E-02 -6.82737921E-04  2.97219952E-03
 -2.38596390E-02  1.93081964E-03 -8.36691904E-03 -7.30628346E-03  9.39582540E-03
  1.54531627E-03  6.30980472E-03 -2.16727154E-03 -9.04232943E-03  5.79103694E-03
  3.03084585E-03  3.21693767E-03 -1.33597028E-03 -2.70991171E-01 -1.67318438E-02
 -7.31588994E-03  4.40587760E-03 -1.91073262E-02 -2.70189350E-02 -3.24811978E-03
  1.40997097E-02 -8.82883399E-02 -8.61853520E-03  3.24048009E-04 -2.31194750E-03
  1.00237569E-02  8.13716455E-03  2.48295833E-03 -1.07799440E-02  1.80593439E-02
 -3.20819199E-02 -1.95417850E-01 -7.48952915E-03  2.27371236E-01  4.63972460E-02
 -2.01166425E-01  3.86604786E-02  6.09613751E-03 -2.64186403E-02 -1.09204913E-02
  2.80507932E-03  1.69080359E-03  1.19768346E-02 -6.47431261E-04  1.55987914E-02
  2.89269060E-02 -4.19459333E-03 -9.81458552E-03 -6.67198189E-03 -3.39959340E-02
 -8.49413426E-02 -1.91213647E-02  1.86112456E-01  2.75847251E-01 -3.86102824E-02
  1.67377201E-01 -1.38065740E-01  2.27190243E-02 -9.84874717E-02 -6.98216478E-03
 -4.24637197E-03  3.24664290E-03 -1.23432747E-03  9.79159990E-04 -4.95087401E-03
  3.65714763E-02 -1.93115151E-04  9.37005149E-03 -8.43519001E-03 -1.94012974E-02
 -1.12977102E-02 -4.77395095E-03  1.00053242E-03 -4.33712862E-03  9.71956472E-03
 -1.80535276E-04  7.84426424E-04  1.16423403E-01  2.41511713E-01  2.68391452E-01
 -4.57501142E-02  1.61439728E-01 -6.74218819E-02  2.92335915E-01  7.86545208E-02
 -3.84622594E-02  1.66769435E-01  2.40678927E-02 -1.02891331E-02  4.46134520E-02
 -1.02821691E-02 -1.58323082E-02  4.37237701E-03 -1.40544254E-04  3.65136218E-03
 -1.13903536E-02 -1.38784138E-02  4.36737544E-03  1.79927396E-03  3.20068184E-03
  4.19970661E-02  4.16268925E-02  5.11597726E-03  1.46921422E-05 -6.29202178E-05
  1.34764518E-02 -3.32883280E-03  1.44227842E-02 -2.36071614E-01 -3.75495289E-02
 -7.19189723E-03 -3.42271735E-03  1.48385287E-02 -1.29724513E-02  1.98549842E-03
 -8.59829323E-03  1.23571397E-05 -2.34500065E-05  3.94079599E-05 -3.73790595E-05
  1.69871455E-06 -3.10845669E-01 -7.24636615E-02  5.06121993E-05 -1.38087597E-01
 -3.21296361E-02  9.48592335E-05 -5.37075516E-03  2.10578290E-04  4.66642127E-05
 -2.34979813E-02  2.92637602E-03  5.72490903E-03  7.04438436E-03  1.72825505E-03
  2.48622353E-02  3.54027826E-05  1.00578187E-04 -5.87358237E-05 -1.31955554E-04
 -7.09191848E-05  3.93737421E-01  9.03145370E-02  5.12786229E-05 -2.63583022E-01
 -6.05586051E-02 -6.21587442E-03  2.34650705E-04 -1.47680820E-02 -3.59481885E-03
  7.80718595E-04  1.42825496E-03  7.86782836E-03  3.31995402E-03  8.16709224E-04
  3.38932855E-02 -3.42397404E-04 -4.37154073E-05  1.79199725E-05 -1.19005043E-02
 -2.76617054E-03  7.51660998E-06 -1.30694734E-02 -2.98308322E-03 -9.99461545E-05
 -2.03935989E-04 -3.16324737E-04 -5.67392997E-06 -4.37159768E-04 -2.51245435E-01
 -5.83067554E-02 -2.72720650E-04 -1.81724426E-01 -4.21127762E-02 -5.19661814E-05
 -4.40096584E-02 -1.01873743E-02  7.73490097E-03  3.41058177E-03  1.83230847E-02
  4.47402707E-03  1.46501673E-02  1.00608615E-02  2.55949154E-03  2.38389712E-02