0002_q000_m01_k00_opt_uwb97xd_def2svpd/0002_q000_m01_k00_force_ub3lyp_de
Force     UB3LYP                                                      Gen                 
Number of atoms                            I                6
Info1-9                                    I   N=           9
          13           9           0           0           0         100
           5          18        -502
Full Title                                 C   N=           8
0002_q000_m01_k00_opt_uwb97xd_def2svpd/0002_q000_m01_k00_for
ce_ub3lyp_def2tzvpd stable-force    
Route                                      C   N=          15
#p ub3lyp/chkbasis force guess=read geom=check scf=(maxcycle
=900,verytightlineq,xqc) integral=grid=ultrafine symmetry=No
ne density=current pop=(cm5,hlygat,mbs,npa) output=wfx      
Charge                                     I                0
Multiplicity                               I                1
Number of electrons                        I               24
Number of alpha electrons                  I               12
Number of beta electrons                   I               12
Number of basis functions                  I              141
Number of independent functions            I              141
Number of point charges in /Mol/           I                0
Number of translation vectors              I                0
Atomic numbers                             I   N=           6
           6           7           1           8           1           1
Nuclear charges                            R   N=           6
  6.00000000E+00  7.00000000E+00  1.00000000E+00  8.00000000E+00  1.00000000E+00
  1.00000000E+00
Current cartesian coordinates              R   N=          18
  1.76526120E+00 -9.56393551E-02  1.00895621E-01  4.21476231E+00 -1.14759850E-01
  1.83592472E-01  5.12197023E+00  2.73169593E-01 -1.49843980E+00  5.62552287E+00
 -5.41213095E-01  2.03257921E+00  8.69741593E-01  3.19707205E-01 -1.70041362E+00
  7.24411360E-01 -4.93862518E-01  1.82729168E+00
Number of symbols in /Mol/                 I                0
Int Atom Types                             I   N=           6
           0           0           0           0           0           0
Force Field                                I                0
Atom Types                                 C   N=           6
                                                            
            
MM charges                                 R   N=           6
  0.00000000E+00  0.00000000E+00  0.00000000E+00  0.00000000E+00  0.00000000E+00
  0.00000000E+00
Integer atomic weights                     I   N=           6
          12          14           1          16           1           1
Real atomic weights                        R   N=           6
  1.20000000E+01  1.40030740E+01  1.00782504E+00  1.59949146E+01  1.00782504E+00
  1.00782504E+00
Atom fragment info                         I   N=           6
           0           0           0           0           0           0
Atom residue num                           I   N=           6
           0           0           0           0           0           0
Nuclear spins                              I   N=           6
           0           2           1           0           1           1
Nuclear ZEff                               R   N=           6
 -3.60000000E+00 -4.55000000E+00 -1.00000000E+00 -5.60000000E+00 -1.00000000E+00
 -1.00000000E+00
Nuclear ZNuc                               R   N=           6
  6.00000000E+00  7.00000000E+00  1.00000000E+00  8.00000000E+00  1.00000000E+00
  1.00000000E+00
Nuclear QMom                               R   N=           6
  0.00000000E+00  2.04400000E+00  0.00000000E+00  0.00000000E+00  0.00000000E+00
  0.00000000E+00
Nuclear GFac                               R   N=           6
  0.00000000E+00  4.03761000E-01  2.79284600E+00  0.00000000E+00  2.79284600E+00
  2.79284600E+00
MicOpt                                     I   N=           6
          -1          -1          -1          -1          -1          -1
Number of residues                         I                0
Number of secondary structures             I                0
Number of contracted shells                I               55
Number of primitive shells                 I               88
Pure/Cartesian d shells                    I                0
Pure/Cartesian f shells                    I                0
Highest angular momentum                   I                3
Largest degree of contraction              I                6
Shell types                                I   N=          55
           0           0           0           0           0           0
           1           1           1          -2          -2          -2
          -3           0           0           0           0           0
           0           1           1           1          -2          -2
          -2          -3           0           0           0           1
           1           0           0           0           0           0
           0           1           1           1           1          -2
          -2          -2          -3           0           0           0
           1           1           0           0           0           1
           1
Number of primitives per shell             I   N=          55
           6           2           1           1           1           1
           4           1           1           1           1           1
           1           6           2           1           1           1
           1           4           1           1           1           1
           1           1           3           1           1           1
           1           6           2           1           1           1
           1           4           1           1           1           1
           1           1           1           3           1           1
           1           1           3           1           1           1
           1
Shell to atom map                          I   N=          55
           1           1           1           1           1           1
           1           1           1           1           1           1
           1           2           2           2           2           2
           2           2           2           2           2           2
           2           2           3           3           3           3
           3           4           4           4           4           4
           4           4           4           4           4           4
           4           4           4           5           5           5
           5           5           6           6           6           6
           6
Primitive exponents                        R   N=          88
  1.35753497E+04  2.03523337E+03  4.63225624E+02  1.31200196E+02  4.28530159E+01
  1.55841858E+01  6.20671385E+00  2.57648965E+00  5.76963394E-01  2.29728314E-01
  9.51644400E-02  4.84754014E-02  3.46972322E+01  7.95826228E+00  2.37808269E+00
  8.14332082E-01  2.88875473E-01  1.00568237E-01  1.09700000E+00  3.18000000E-01
  9.09853364E-02  7.61000000E-01  1.97308006E+04  2.95789587E+03  6.73221336E+02
  1.90682495E+02  6.22954419E+01  2.26541612E+01  8.97914774E+00  3.68630024E+00
  8.46600768E-01  3.36471338E-01  1.36476537E-01  6.84416058E-02  4.92003805E+01
  1.13467905E+01  3.42739724E+00  1.17855251E+00  4.16422050E-01  1.42608260E-01
  1.65400000E+00  4.69000000E-01  1.28296421E-01  1.09300000E+00  3.40613410E+01
  5.12357460E+00  1.16466260E+00  3.27230410E-01  1.03072410E-01  8.00000000E-01
  9.57741296E-02  2.70323826E+04  4.05238714E+03  9.22327227E+02  2.61240710E+02
  8.53546414E+01  3.10350352E+01  1.22608607E+01  4.99870760E+00  1.17031082E+00
  4.64747410E-01  1.85045364E-01  7.02880263E-02  6.32749548E+01  1.46270494E+01
  4.45012235E+00  1.52757996E+00  5.29351179E-01  1.74784213E-01  5.11127457E-02
  2.31400000E+00  6.45000000E-01  1.46964774E-01  1.42800000E+00  3.40613410E+01
  5.12357460E+00  1.16466260E+00  3.27230410E-01  1.03072410E-01  8.00000000E-01
  9.57741296E-02  3.40613410E+01  5.12357460E+00  1.16466260E+00  3.27230410E-01
  1.03072410E-01  8.00000000E-01  9.57741296E-02
Contraction coefficients                   R   N=          88
  6.06455036E-04  4.69790889E-03  2.43324776E-02  9.73999683E-02  3.01955843E-01
  6.62336091E-01  6.55953085E-01  3.75856333E-01  1.00000000E+00  1.00000000E+00
  1.00000000E+00  1.00000000E+00  1.13272200E-02  7.61696592E-02  3.01922522E-01
  7.27850273E-01  1.00000000E+00  1.00000000E+00  1.00000000E+00  1.00000000E+00
  1.00000000E+00  1.00000000E+00  5.86264026E-04  4.54288206E-03  2.35584135E-02
  9.47091933E-02  2.97197849E-01  6.69162469E-01  6.45966836E-01  3.87005744E-01
  1.00000000E+00  1.00000000E+00  1.00000000E+00  1.00000000E+00  1.14488251E-02
  7.84223380E-02  3.08180947E-01  7.20271964E-01  1.00000000E+00  1.00000000E+00
  1.00000000E+00  1.00000000E+00  1.00000000E+00  1.00000000E+00  2.54393072E-02
  1.90085949E-01  8.52441130E-01  1.00000000E+00  1.00000000E+00  1.00000000E+00
  1.00000000E+00  5.72273352E-04  4.43532335E-03  2.30201077E-02  9.28224907E-02
  2.93785000E-01  6.74016045E-01  6.38399370E-01  3.95345871E-01  1.00000000E+00
  1.00000000E+00  1.00000000E+00  1.00000000E+00  1.20183322E-02  8.30054218E-02
  3.19917439E-01  7.07155429E-01  1.00000000E+00  1.00000000E+00  1.00000000E+00
  1.00000000E+00  1.00000000E+00  1.00000000E+00  1.00000000E+00  2.54393072E-02
  1.90085949E-01  8.52441130E-01  1.00000000E+00  1.00000000E+00  1.00000000E+00
  1.00000000E+00  2.54393072E-02  1.90085949E-01  8.52441130E-01  1.00000000E+00
  1.00000000E+00  1.00000000E+00  1.00000000E+00
Coordinates of each shell                  R   N=         165
  1.76526120E+00 -9.56393551E-02  1.00895621E-01  1.76526120E+00 -9.56393551E-02
  1.00895621E-01  1.76526120E+00 -9.56393551E-02  1.00895621E-01  1.76526120E+00
 -9.56393551E-02  1.00895621E-01  1.76526120E+00 -9.56393551E-02  1.00895621E-01
  1.76526120E+00 -9.56393551E-02  1.00895621E-01  1.76526120E+00 -9.56393551E-02
  1.00895621E-01  1.76526120E+00 -9.56393551E-02  1.00895621E-01  1.76526120E+00
 -9.56393551E-02  1.00895621E-01  1.76526120E+00 -9.56393551E-02  1.00895621E-01
  1.76526120E+00 -9.56393551E-02  1.00895621E-01  1.76526120E+00 -9.56393551E-02
  1.00895621E-01  1.76526120E+00 -9.56393551E-02  1.00895621E-01  4.21476231E+00
 -1.14759850E-01  1.83592472E-01  4.21476231E+00 -1.14759850E-01  1.83592472E-01
  4.21476231E+00 -1.14759850E-01  1.83592472E-01  4.21476231E+00 -1.14759850E-01
  1.83592472E-01  4.21476231E+00 -1.14759850E-01  1.83592472E-01  4.21476231E+00
 -1.14759850E-01  1.83592472E-01  4.21476231E+00 -1.14759850E-01  1.83592472E-01
  4.21476231E+00 -1.14759850E-01  1.83592472E-01  4.21476231E+00 -1.14759850E-01
  1.83592472E-01  4.21476231E+00 -1.14759850E-01  1.83592472E-01  4.21476231E+00
 -1.14759850E-01  1.83592472E-01  4.21476231E+00 -1.14759850E-01  1.83592472E-01
  4.21476231E+00 -1.14759850E-01  1.83592472E-01  5.12197023E+00  2.73169593E-01
 -1.49843980E+00  5.12197023E+00  2.73169593E-01 -1.49843980E+00  5.12197023E+00
  2.73169593E-01 -1.49843980E+00  5.12197023E+00  2.73169593E-01 -1.49843980E+00
  5.12197023E+00  2.73169593E-01 -1.49843980E+00  5.62552287E+00 -5.41213095E-01
  2.03257921E+00  5.62552287E+00 -5.41213095E-01  2.03257921E+00  5.62552287E+00
 -5.41213095E-01  2.03257921E+00  5.62552287E+00 -5.41213095E-01  2.03257921E+00
  5.62552287E+00 -5.41213095E-01  2.03257921E+00  5.62552287E+00 -5.41213095E-01
  2.03257921E+00  5.62552287E+00 -5.41213095E-01  2.03257921E+00  5.62552287E+00
 -5.41213095E-01  2.03257921E+00  5.62552287E+00 -5.41213095E-01  2.03257921E+00
  5.62552287E+00 -5.41213095E-01  2.03257921E+00  5.62552287E+00 -5.41213095E-01
  2.03257921E+00  5.62552287E+00 -5.41213095E-01  2.03257921E+00  5.62552287E+00
 -5.41213095E-01  2.03257921E+00  5.62552287E+00 -5.41213095E-01  2.03257921E+00
  8.69741593E-01  3.19707205E-01 -1.70041362E+00  8.69741593E-01  3.19707205E-01
 -1.70041362E+00  8.69741593E-01  3.19707205E-01 -1.70041362E+00  8.69741593E-01
  3.19707205E-01 -1.70041362E+00  8.69741593E-01  3.19707205E-01 -1.70041362E+00
  7.24411360E-01 -4.93862518E-01  1.82729168E+00  7.24411360E-01 -4.93862518E-01
  1.82729168E+00  7.24411360E-01 -4.93862518E-01  1.82729168E+00  7.24411360E-01
 -4.93862518E-01  1.82729168E+00  7.24411360E-01 -4.93862518E-01  1.82729168E+00
Num ILSW                                   I              100
ILSW                                       I   N=         100
           1           0           0           0           2           0
           0           0           0           0         402          -1
           5           0           0           0           2           0
           0           0           0           0           1           0
           1           1           0           0           0           0
           0           0      100000           0          -1           0
           0           0           0           0           0           0
           0           0           0           1           0           0
           0 -2000000000           1           0           0           0
           0           0           4          52           0           0
           0           0           5           0           0           0
           0           0           0           6           0           1
           0           0           0           0           0           0
           0           0           0           0           0           0
           0           0           0           0           0           0
           0           0           0           0           0           0
           0           0           0           0
Num RLSW                                   I               52
RLSW                                       R   N=          52
  8.00000000E-01  7.20000000E-01  1.00000000E+00  8.10000000E-01  2.00000000E-01
  0.00000000E+00  0.00000000E+00  1.00000000E+00  0.00000000E+00  0.00000000E+00
  0.00000000E+00  0.00000000E+00  1.00000000E+00  0.00000000E+00  0.00000000E+00
  0.00000000E+00  0.00000000E+00  1.00000000E+00  0.00000000E+00  0.00000000E+00
  0.00000000E+00  0.00000000E+00  1.00000000E+00  0.00000000E+00  0.00000000E+00
  0.00000000E+00  0.00000000E+00  1.00000000E+00  0.00000000E+00  0.00000000E+00
  0.00000000E+00  0.00000000E+00  1.00000000E+00  0.00000000E+00  0.00000000E+00
  0.00000000E+00  0.00000000E+00  0.00000000E+00  1.00000000E+00  1.00000000E+00
  0.00000000E+00  1.00000000E+00  0.00000000E+00  0.00000000E+00  0.00000000E+00
  0.00000000E+00  0.00000000E+00  0.00000000E+00  0.00000000E+00  0.00000000E+00
  0.00000000E+00  0.00000000E+00
MxBond                                     I                3
NBond                                      I   N=           6
           3           3           1           1           1           1
IBond                                      I   N=          18
           2           5           6           1           3           4
           2           0           0           2           0           0
           1           0           0           1           0           0
RBond                                      R   N=          18
  2.00000000E+00  1.00000000E+00  1.00000000E+00  2.00000000E+00  1.00000000E+00
  2.00000000E+00  1.00000000E+00  0.00000000E+00  0.00000000E+00  2.00000000E+00
  0.00000000E+00  0.00000000E+00  1.00000000E+00  0.00000000E+00  0.00000000E+00
  1.00000000E+00  0.00000000E+00  0.00000000E+00
Virial Ratio                               R      2.004581293002505E+00
SCF Energy                                 R     -1.698776427369536E+02
Total Energy                               R     -1.698776427369536E+02
S**2                                       R     -5.329070518200751E-15
S**2 after annihilation                    R      6.270539643082756E-13
RMS Force                                  R      3.726763509798514E-03
RMS Density                                R      1.251127649142489E-09
Job Status                                 I                1
Nuclear derivative order                   I                1
External E-field                           R   N=          35
  0.00000000E+00  0.00000000E+00  0.00000000E+00  0.00000000E+00  0.00000000E+00
  0.00000000E+00  0.00000000E+00  0.00000000E+00  0.00000000E+00  0.00000000E+00
  0.00000000E+00  0.00000000E+00  0.00000000E+00  0.00000000E+00  0.00000000E+00
  0.00000000E+00  0.00000000E+00  0.00000000E+00  0.00000000E+00  0.00000000E+00
  0.00000000E+00  0.00000000E+00  0.00000000E+00  0.00000000E+00  0.00000000E+00
  0.00000000E+00  0.00000000E+00  0.00000000E+00  0.00000000E+00  0.00000000E+00
  0.00000000E+00  0.00000000E+00  0.00000000E+00  0.00000000E+00  0.00000000E+00
IOpCl                                      I                1
IROHF                                      I                0
Alpha Orbital Energies                     R   N=         141
 -1.91192308E+01 -1.44709396E+01 -1.02248637E+01 -1.12790300E+00 -8.73559818E-01
 -6.72561737E-01 -5.59646195E-01 -4.95689453E-01 -4.66689558E-01 -4.32052606E-01
 -2.71807444E-01 -2.47891220E-01 -4.77181507E-02 -8.64426826E-03  2.12344415E-02
  5.95397033E-02  7.48106572E-02  8.01407147E-02  8.72978599E-02  1.00895594E-01
  1.28143316E-01  1.45177954E-01  1.47517158E-01  1.80167780E-01  2.00930174E-01
  2.10116201E-01  2.13328126E-01  2.42668953E-01  2.52051633E-01  2.60768854E-01
  2.61185270E-01  2.98036883E-01  3.06234930E-01  3.29533753E-01  3.46141252E-01
  3.50088117E-01  3.56936494E-01  3.65614809E-01  3.88484784E-01  4.08497789E-01
  4.31654948E-01  4.32867527E-01  4.55587007E-01  4.73232054E-01  4.81515018E-01
  4.94649717E-01  5.18922962E-01  5.46334983E-01  5.89468042E-01  5.91927335E-01
  6.01272610E-01  6.71302998E-01  6.73102717E-01  6.80987836E-01  7.04203884E-01
  7.28383033E-01  7.61204346E-01  8.10048599E-01  8.12211590E-01  8.75366772E-01
  9.25107064E-01  9.28176977E-01  9.83713386E-01  1.03763514E+00  1.07631614E+00
  1.14501195E+00  1.16687263E+00  1.30101724E+00  1.31217568E+00  1.39321075E+00
  1.43562190E+00  1.54761013E+00  1.56879372E+00  1.65004718E+00  1.71744662E+00
  1.73494353E+00  1.80743654E+00  1.83722102E+00  1.85062631E+00  1.87117159E+00
  1.92024396E+00  1.96109150E+00  1.99304671E+00  2.06811925E+00  2.15877102E+00
  2.25675481E+00  2.30779802E+00  2.32272038E+00  2.37645353E+00  2.41320720E+00
  2.59117650E+00  2.63724714E+00  2.68658567E+00  2.73211874E+00  2.81917038E+00
  2.89163271E+00  2.91118170E+00  2.94023778E+00  3.02652940E+00  3.08596535E+00
  3.12192215E+00  3.12799983E+00  3.18654324E+00  3.23744457E+00  3.30361740E+00
  3.31588004E+00  3.46187471E+00  3.53976499E+00  3.63973182E+00  3.78793798E+00
  3.86803268E+00  4.08237913E+00  4.14722804E+00  4.17481094E+00  4.28111645E+00
  4.53783930E+00  4.69480143E+00  4.74052095E+00  4.78932879E+00  4.81558650E+00
  4.92159308E+00  4.95429944E+00  5.12201561E+00  5.19795411E+00  5.23634376E+00
  5.33526763E+00  5.44437810E+00  5.46350918E+00  5.59164044E+00  5.82258862E+00
  6.29652339E+00  6.44610941E+00  6.47862024E+00  6.56477033E+00  6.86784060E+00
  7.03693573E+00  7.15385275E+00  7.63258697E+00  2.25593470E+01  3.23004462E+01
  4.42803171E+01
Beta Orbital Energies                      R   N=         141
 -1.91192308E+01 -1.44709396E+01 -1.02248637E+01 -1.12790300E+00 -8.73559818E-01
 -6.72561737E-01 -5.59646195E-01 -4.95689453E-01 -4.66689558E-01 -4.32052606E-01
 -2.71807444E-01 -2.47891220E-01 -4.77181507E-02 -8.64426826E-03  2.12344415E-02
  5.95397033E-02  7.48106572E-02  8.01407147E-02  8.72978599E-02  1.00895594E-01
  1.28143316E-01  1.45177954E-01  1.47517158E-01  1.80167780E-01  2.00930174E-01
  2.10116201E-01  2.13328126E-01  2.42668953E-01  2.52051633E-01  2.60768854E-01
  2.61185270E-01  2.98036883E-01  3.06234930E-01  3.29533753E-01  3.46141252E-01
  3.50088117E-01  3.56936494E-01  3.65614809E-01  3.88484784E-01  4.08497789E-01
  4.31654948E-01  4.32867527E-01  4.55587007E-01  4.73232054E-01  4.81515018E-01
  4.94649717E-01  5.18922962E-01  5.46334983E-01  5.89468042E-01  5.91927335E-01
  6.01272610E-01  6.71302998E-01  6.73102717E-01  6.80987836E-01  7.04203884E-01
  7.28383033E-01  7.61204346E-01  8.10048599E-01  8.12211590E-01  8.75366772E-01
  9.25107064E-01  9.28176977E-01  9.83713386E-01  1.03763514E+00  1.07631614E+00
  1.14501195E+00  1.16687263E+00  1.30101724E+00  1.31217568E+00  1.39321075E+00
  1.43562190E+00  1.54761013E+00  1.56879372E+00  1.65004718E+00  1.71744662E+00
  1.73494353E+00  1.80743654E+00  1.83722102E+00  1.85062631E+00  1.87117159E+00
  1.92024396E+00  1.96109150E+00  1.99304671E+00  2.06811925E+00  2.15877102E+00
  2.25675481E+00  2.30779802E+00  2.32272038E+00  2.37645353E+00  2.41320720E+00
  2.59117650E+00  2.63724714E+00  2.68658567E+00  2.73211874E+00  2.81917038E+00
  2.89163271E+00  2.91118170E+00  2.94023778E+00  3.02652940E+00  3.08596535E+00
  3.12192215E+00  3.12799983E+00  3.18654324E+00  3.23744457E+00  3.30361740E+00
  3.31588004E+00  3.46187471E+00  3.53976499E+00  3.63973182E+00  3.78793798E+00
  3.86803268E+00  4.08237913E+00  4.14722804E+00  4.17481094E+00  4.28111645E+00
  4.53783930E+00  4.69480143E+00  4.74052095E+00  4.78932879E+00  4.81558650E+00
  4.92159308E+00  4.95429944E+00  5.12201561E+00  5.19795411E+00  5.23634376E+00
  5.33526763E+00  5.44437810E+00  5.46350918E+00  5.59164044E+00  5.82258862E+00
  6.29652339E+00  6.44610941E+00  6.47862024E+00  6.56477033E+00  6.86784060E+00
  7.03693573E+00  7.15385275E+00  7.63258697E+00  2.25593470E+01  3.23004462E+01
  4.42803171E+01
Alpha MO coefficients                      R   N=       19881
  1.96878442E-05 -9.78145888E-05  1.26741023E-03 -4.98388397E-03 -1.11494872E-02
  3.37993735E-03  2.15517371E-04 -8.61880877E-06  3.73525112E-05 -7.11429294E-04
 -2.83720706E-04  1.23031474E-03 -1.41532126E-03 -1.00984887E-03  4.38015856E-03
 -7.28817735E-06  7.73466153E-05  8.59130690E-06 -2.26542336E-05 -1.78389081E-05
 -2.20767828E-04  7.14516118E-04  1.52206656E-04 -2.42611374E-04 -1.64774107E-04
  1.89086505E-03  5.18284368E-03 -8.61841237E-04  2.61754916E-04 -1.19531517E-03
 -2.43857500E-05 -1.21351380E-04 -7.56808962E-07  3.85614399E-05  1.08641739E-04
 -2.07520742E-04 -1.10069851E-05  8.73123170E-06 -2.79558190E-05 -2.72520428E-03
  1.20124969E-02 -4.00770350E-02 -9.01325190E-03 -9.14353352E-05  2.74497341E-05
 -1.19018679E-04  4.70893574E-03 -1.52868599E-03  6.62803831E-03 -1.83253623E-02
  5.63500510E-03 -2.44324577E-02  1.38296501E-04  2.24184725E-04 -9.86155206E-05
  1.65289209E-04 -5.17105024E-05  1.82768063E-03  4.08637778E-03 -1.03489659E-03
  1.08269530E-03 -9.42476455E-04 -6.42001818E-03 -4.71786164E-03  2.89333840E-03
 -7.58131461E-04  1.08808377E-03  8.69355625E-05  3.85474293E-04 -1.95654053E-04
  3.19806096E-04 -1.72932661E-04  8.19859560E-05 -9.80622258E-05  3.39848385E-04
  4.13088953E-04  6.61722081E-03  1.66813015E-04 -3.35896998E-05  1.45627056E-04
 -1.80120744E-03 -1.51028889E-04  6.54927435E-04  4.35125386E-01  6.39334771E-01
  3.90463507E-02 -4.02596600E-02  5.70859739E-02  6.82651300E-03 -1.60039699E-03
  4.64854617E-04 -2.01545490E-03  5.78180461E-03 -1.70076422E-03  7.37397061E-03
 -1.22586308E-02  3.00893194E-03 -1.30454046E-02 -6.70342534E-04  2.71388874E-04
 -1.17667734E-03  1.34676384E-04  2.65097083E-04 -6.95420728E-05  5.22063780E-05
 -6.11404558E-05 -1.27810625E-03 -2.48002056E-03  7.22622295E-04 -7.52670941E-04
  5.71991609E-04  5.37683779E-04  2.06570333E-03 -4.07975492E-04  7.43300827E-04
 -4.76447786E-04 -2.85059208E-06  4.29709304E-04 -1.18334656E-04  2.77003539E-04
 -1.85517177E-04  6.70614372E-05 -8.31347367E-05  1.79980943E-05  3.61430495E-04
  1.97289465E-03  2.69304799E-04  4.75716560E-06 -2.06390510E-05  3.82576120E-03
 -2.66498478E-04  1.15405636E-03  2.09390698E-05 -4.09702431E-05  3.19517306E-03
  6.99047074E-05  1.82233000E-06 -7.89067778E-06 -1.54946078E-03  4.28628488E-04
 -1.85778761E-03  1.01346538E-05 -1.68360536E-05  7.56637762E-04  1.78317080E-03
 -1.30980620E-02 -1.83103180E-03  3.72803566E-04  1.27396248E-07 -5.94702235E-07
  4.20543007E-03  1.72622934E-05 -7.49973948E-05 -1.42587197E-02  6.22866051E-04
 -2.70025167E-03  5.28633453E-05 -2.98484233E-05 -1.63485509E-05 -2.44404354E-05
  6.88491659E-06 -1.33586943E-03 -1.96293911E-04  3.41661333E-04  9.11150334E-04
  4.51964969E-05  2.67463567E-03 -2.21940722E-03 -4.29556016E-04 -2.86878511E-03
  5.11929677E-04  1.03167685E-04  5.30346593E-04 -1.05614801E-05 -1.31205388E-04
 -1.19584016E-04 -2.83799005E-04  3.70490292E-05  4.48370518E-01  6.26608948E-01
  3.87299754E-02 -3.69188506E-02  4.84487904E-02  1.79308612E-02 -1.55647885E-04
 -7.73009353E-05  3.35326767E-04  2.95335916E-03 -6.30760778E-05  2.73111380E-04
 -1.63045600E-03  5.38011412E-04 -2.33179356E-03  7.79559856E-05  3.42789765E-04
 -1.63737645E-04  5.37140130E-04 -7.90746142E-05  6.70857545E-04 -5.78074898E-04
  2.33855424E-05 -1.25793541E-03  1.33360435E-04  1.73156426E-03 -9.04384735E-04
 -1.09389791E-03  1.49183247E-03  2.08562745E-04 -1.92485166E-05  1.97839100E-04
 -1.93179430E-05  7.35403402E-05 -9.12147664E-05  5.03269173E-05 -2.16464192E-05
  2.32267667E-04 -1.10350085E-03 -2.13926185E-02  1.63358101E-04  7.00531103E-05
 -3.03739517E-04  2.00594569E-03  1.02223969E-03 -4.43227865E-03 -2.49102906E-05
 -7.99469854E-05  5.31725336E-04  2.31954684E-04 -3.83754479E-03 -1.67051142E-03
 -2.26539065E-04  5.95869234E-05 -2.58360898E-04  3.61312345E-04 -3.94787198E-05
  1.71203783E-04 -1.99430737E-04  1.89484616E-04 -8.21896355E-04 -2.83493115E-04
  5.71812353E-05 -2.47885946E-04  6.89744139E-06  4.66418724E-05 -9.21861871E-06
  2.58934831E-05 -1.07580945E-05 -1.58687380E-04 -6.27962784E-04  1.39634043E-04
 -2.98343426E-04  1.44836305E-04  5.97257200E-04  1.12472703E-03 -3.37598842E-04
  3.51480685E-04 -2.59396139E-04 -1.66909049E-05  4.94510485E-04 -1.31895426E-04
  3.29127602E-04 -2.13482294E-04  7.71404008E-05 -9.84697791E-05  2.71899687E-04
  9.34916969E-04 -5.03692524E-03 -5.84666277E-05 -4.91989293E-05  2.13427947E-04
 -1.98803254E-03  4.43189661E-05 -1.92183496E-04  2.22010152E-04  1.08441801E-03
 -6.53025840E-03  3.65422982E-05  4.48818992E-05 -1.94531218E-04 -4.97890826E-04
 -1.32426009E-04  5.73682617E-04  4.66788648E-01  6.08199737E-01  3.97857567E-02
 -2.86200375E-02  7.61633664E-02 -1.25737783E-03  1.64383136E-03  1.93570465E-06
 -8.72251854E-06  5.50101725E-03 -1.45154090E-04  6.28052107E-04 -1.95145703E-02
  5.05260069E-04 -2.19377242E-03 -4.30451786E-05  6.17899372E-05 -3.47813439E-04
  1.50249719E-03 -1.42667003E-05 -8.29274718E-04  1.20834875E-04 -3.99158600E-04
  3.07494801E-03 -2.79499107E-05  1.17681281E-02  2.01600061E-03 -4.55738450E-03
 -1.67378684E-03 -4.65123058E-04 -1.27872399E-04 -1.57573202E-03  1.57268765E-05
  1.56419067E-04  3.75880229E-04  7.74281058E-04 -4.41091517E-05 -8.27441382E-05
 -1.80188374E-04  2.37813445E-03 -1.01646161E-02  9.49748695E-04  6.79865708E-03
 -6.75691179E-04  2.45673766E-05 -1.06441683E-04  8.53422612E-03 -3.02511554E-04
  1.31081745E-03 -1.02180247E-02  1.52708868E-03 -6.61859022E-03  5.96818444E-06
  4.22897102E-06  3.54186754E-05 -1.55742540E-04 -9.65601455E-07  2.90480970E-03
  3.34476327E-04 -4.50084891E-04 -3.18355531E-03 -7.70332669E-05 -5.43895941E-03
 -1.79025891E-03  1.46931514E-03  3.38934486E-03  4.12741960E-04 -2.80508467E-06
 -4.78399950E-04 -4.13866466E-05  9.96530508E-05 -5.17914022E-05  7.91195772E-04
 -2.99073885E-05 -2.58842506E-04 -9.47817875E-05  2.31500928E-03  3.80728230E-04
 -6.49308768E-06  2.81110648E-05 -2.10173120E-03 -3.01155833E-05  1.30931664E-04
  5.91421354E-06 -7.18607525E-05  9.52606177E-04 -3.79335513E-03  1.21837285E-02
  3.27553878E-04 -1.43459310E-04  6.05321804E-06 -2.62672755E-05  1.44369995E-03
 -1.57855726E-04  6.84513154E-04 -3.55923963E-03  4.59243307E-04 -1.99197778E-03
 -3.04514209E-04  6.81210230E-05 -2.95274882E-04 -3.58197710E-05  5.76950399E-05
  1.46133161E-05  2.03231332E-06 -1.33068882E-05  1.92010650E-04 -5.96110149E-04
 -2.43798369E-05 -2.32396691E-04  1.37490164E-04 -5.47934448E-05  1.12804135E-03
  1.29803466E-04 -4.37948453E-04 -2.60066137E-04 -3.32421281E-05  2.13668146E-05
  3.77530970E-06  4.14298966E-05 -1.01609919E-05  6.46967227E-06 -1.16776308E-05
 -4.95735228E-04 -1.56970688E-04 -4.67821904E-02 -6.65278514E-04  3.61498326E-04
 -1.56777354E-03 -5.58830425E-03  9.25595837E-04 -4.01759651E-03 -4.69775643E-04
 -9.47726102E-04 -3.81720573E-02 -8.93601370E-04 -3.55907599E-04  1.54297448E-03
 -7.30518505E-03 -5.63090669E-04  2.43944306E-03 -2.16420123E-02 -4.47839714E-02
  6.83223576E-02  4.43160094E-02  4.66855416E-03  1.03862172E-02  5.17375493E-02
 -1.47981270E-03  6.41119523E-03  2.14053543E-02 -1.11391923E-03  4.82752388E-03
  5.97767644E-03 -2.21350347E-03  9.59984059E-03 -2.73750827E-03  1.25882966E-03
 -3.05785940E-04  5.99677383E-03 -2.90535549E-04 -6.58170380E-04  3.06431854E-03
 -6.79815414E-04  3.93049384E-03 -7.06868746E-04  3.82981525E-03 -1.21273924E-04
 -1.73134390E-03  4.71810733E-04  2.77728503E-05 -3.58195463E-04 -8.24334805E-04
 -5.89135132E-06  5.53535662E-04 -2.15526206E-04  1.78657636E-03 -1.58096371E-04
 -7.65920217E-02 -1.72187039E-01  2.68410794E-01  2.80103791E-01  1.95392990E-02
 -3.16539374E-02  4.24244356E-02 -1.67770528E-02  7.27435642E-02  1.78462129E-02
 -8.44279167E-03  3.66077764E-02 -5.75225805E-03  2.19794348E-03 -9.53108314E-03
  4.48406897E-03  7.50210930E-03 -3.38788262E-03  6.14119362E-03 -1.73041209E-03
  1.79078465E-03  5.75859700E-03 -2.84084602E-03  8.56016930E-03 -1.32839162E-03
 -8.29045897E-03 -1.47831171E-03  4.58911475E-03 -4.47982538E-03  3.41117143E-04
 -2.48622251E-04  5.91836242E-03 -7.77433956E-04  2.16647775E-03 -2.10743026E-03
 -5.76860657E-04 -6.44911475E-04  3.95584890E-02  3.50764132E-02  1.43458222E-02
 -2.51021782E-03 -1.90291541E-03  8.25083761E-03 -9.38868921E-05 -1.52503208E-04
  6.61105537E-04 -6.80726404E-02 -1.59525901E-01  2.29120460E-01  2.94072629E-01