0002_q000_m01_k00_opt_uwb97xd_def2svpd/0002_q000_m01_k00_force_uwb97xd_d
Force     UwB97XD                                                     Gen                 
Number of atoms                            I                6
Info1-9                                    I   N=           9
          13           9           0           0           0         100
           5          18       -5802
Full Title                                 C   N=           8
0002_q000_m01_k00_opt_uwb97xd_def2svpd/0002_q000_m01_k00_for
ce_uwb97xd_def2svp stable-force     
Route                                      C   N=          15
#p uwb97xd/chkbasis force guess=read geom=check scf=(maxcycl
e=900,verytightlineq,xqc) integral=grid=ultrafine symmetry=N
one density=current pop=(cm5,hlygat,mbs,npa) output=wfx     
Charge                                     I                0
Multiplicity                               I                1
Number of electrons                        I               24
Number of alpha electrons                  I               12
Number of beta electrons                   I               12
Number of basis functions                  I               57
Number of independent functions            I               57
Number of point charges in /Mol/           I                0
Number of translation vectors              I                0
Atomic numbers                             I   N=           6
           6           7           1           8           1           1
Nuclear charges                            R   N=           6
  6.00000000E+00  7.00000000E+00  1.00000000E+00  8.00000000E+00  1.00000000E+00
  1.00000000E+00
Current cartesian coordinates              R   N=          18
  1.76526120E+00 -9.56393551E-02  1.00895621E-01  4.21476231E+00 -1.14759850E-01
  1.83592472E-01  5.12197023E+00  2.73169593E-01 -1.49843980E+00  5.62552287E+00
 -5.41213095E-01  2.03257921E+00  8.69741593E-01  3.19707205E-01 -1.70041362E+00
  7.24411360E-01 -4.93862518E-01  1.82729168E+00
Number of symbols in /Mol/                 I                0
Int Atom Types                             I   N=           6
           0           0           0           0           0           0
Force Field                                I                0
Atom Types                                 C   N=           6
                                                            
            
MM charges                                 R   N=           6
  0.00000000E+00  0.00000000E+00  0.00000000E+00  0.00000000E+00  0.00000000E+00
  0.00000000E+00
Integer atomic weights                     I   N=           6
          12          14           1          16           1           1
Real atomic weights                        R   N=           6
  1.20000000E+01  1.40030740E+01  1.00782504E+00  1.59949146E+01  1.00782504E+00
  1.00782504E+00
Atom fragment info                         I   N=           6
           0           0           0           0           0           0
Atom residue num                           I   N=           6
           0           0           0           0           0           0
Nuclear spins                              I   N=           6
           0           2           1           0           1           1
Nuclear ZEff                               R   N=           6
 -3.60000000E+00 -4.55000000E+00 -1.00000000E+00 -5.60000000E+00 -1.00000000E+00
 -1.00000000E+00
Nuclear ZNuc                               R   N=           6
  6.00000000E+00  7.00000000E+00  1.00000000E+00  8.00000000E+00  1.00000000E+00
  1.00000000E+00
Nuclear QMom                               R   N=           6
  0.00000000E+00  2.04400000E+00  0.00000000E+00  0.00000000E+00  0.00000000E+00
  0.00000000E+00
Nuclear GFac                               R   N=           6
  0.00000000E+00  4.03761000E-01  2.79284600E+00  0.00000000E+00  2.79284600E+00
  2.79284600E+00
MicOpt                                     I   N=           6
          -1          -1          -1          -1          -1          -1
Number of residues                         I                0
Number of secondary structures             I                0
Number of contracted shells                I               27
Number of primitive shells                 I               51
Pure/Cartesian d shells                    I                0
Pure/Cartesian f shells                    I                0
Highest angular momentum                   I                2
Largest degree of contraction              I                5
Shell types                                I   N=          27
           0           0           0           1           1          -2
           0           0           0           1           1          -2
           0           0           1           0           0           0
           1           1          -2           0           0           1
           0           0           1
Number of primitives per shell             I   N=          27
           5           1           1           3           1           1
           5           1           1           3           1           1
           3           1           1           5           1           1
           3           1           1           3           1           1
           3           1           1
Shell to atom map                          I   N=          27
           1           1           1           1           1           1
           2           2           2           2           2           2
           3           3           3           4           4           4
           4           4           4           5           5           5
           6           6           6
Primitive exponents                        R   N=          51
  1.23840169E+03  1.86290050E+02  4.22511763E+01  1.16765579E+01  3.59305065E+00
  4.02451474E-01  1.30901827E-01  9.46809706E+00  2.01035451E+00  5.47710047E-01
  1.52686138E-01  8.00000000E-01  1.71284159E+03  2.57648127E+02  5.84582459E+01
  1.61983679E+01  5.00526008E+00  5.87318566E-01  1.87645923E-01  1.35714702E+01
  2.92573729E+00  7.99277508E-01  2.19543480E-01  1.00000000E+00  1.30107010E+01
  1.96225720E+00  4.44537960E-01  1.21949620E-01  8.00000000E-01  2.26617678E+03
  3.40870102E+02  7.73631352E+01  2.14796449E+01  6.65894331E+00  8.09759757E-01
  2.55307722E-01  1.77215043E+01  3.86355054E+00  1.04809209E+00  2.76415444E-01
  1.20000000E+00  1.30107010E+01  1.96225720E+00  4.44537960E-01  1.21949620E-01
  8.00000000E-01  1.30107010E+01  1.96225720E+00  4.44537960E-01  1.21949620E-01
  8.00000000E-01
Contraction coefficients                   R   N=          51
  5.51736505E-03  4.10888286E-02  1.82253821E-01  4.68284594E-01  4.45758173E-01
  1.00000000E+00  1.00000000E+00  5.68883320E-02  3.12940593E-01  7.60650165E-01
  1.00000000E+00  1.00000000E+00 -5.44779958E-03 -4.06271746E-02 -1.81119623E-01
 -4.68439756E-01 -4.46168463E-01  1.00000000E+00  1.00000000E+00 -5.88481170E-02
 -3.20246248E-01 -7.53282265E-01  1.00000000E+00  1.00000000E+00  3.34854848E-02
  2.34721871E-01  8.13770285E-01  1.00000000E+00  1.00000000E+00 -5.38935039E-03
 -4.02347214E-02 -1.80081842E-01 -4.68288577E-01 -4.46926172E-01  1.00000000E+00
  1.00000000E+00  6.26302488E-02  3.33311385E-01  7.41486383E-01  1.00000000E+00
  1.00000000E+00  3.34854848E-02  2.34721871E-01  8.13770285E-01  1.00000000E+00
  1.00000000E+00  3.34854848E-02  2.34721871E-01  8.13770285E-01  1.00000000E+00
  1.00000000E+00
Coordinates of each shell                  R   N=          81
  1.76526120E+00 -9.56393551E-02  1.00895621E-01  1.76526120E+00 -9.56393551E-02
  1.00895621E-01  1.76526120E+00 -9.56393551E-02  1.00895621E-01  1.76526120E+00
 -9.56393551E-02  1.00895621E-01  1.76526120E+00 -9.56393551E-02  1.00895621E-01
  1.76526120E+00 -9.56393551E-02  1.00895621E-01  4.21476231E+00 -1.14759850E-01
  1.83592472E-01  4.21476231E+00 -1.14759850E-01  1.83592472E-01  4.21476231E+00
 -1.14759850E-01  1.83592472E-01  4.21476231E+00 -1.14759850E-01  1.83592472E-01
  4.21476231E+00 -1.14759850E-01  1.83592472E-01  4.21476231E+00 -1.14759850E-01
  1.83592472E-01  5.12197023E+00  2.73169593E-01 -1.49843980E+00  5.12197023E+00
  2.73169593E-01 -1.49843980E+00  5.12197023E+00  2.73169593E-01 -1.49843980E+00
  5.62552287E+00 -5.41213095E-01  2.03257921E+00  5.62552287E+00 -5.41213095E-01
  2.03257921E+00  5.62552287E+00 -5.41213095E-01  2.03257921E+00  5.62552287E+00
 -5.41213095E-01  2.03257921E+00  5.62552287E+00 -5.41213095E-01  2.03257921E+00
  5.62552287E+00 -5.41213095E-01  2.03257921E+00  8.69741593E-01  3.19707205E-01
 -1.70041362E+00  8.69741593E-01  3.19707205E-01 -1.70041362E+00  8.69741593E-01
  3.19707205E-01 -1.70041362E+00  7.24411360E-01 -4.93862518E-01  1.82729168E+00
  7.24411360E-01 -4.93862518E-01  1.82729168E+00  7.24411360E-01 -4.93862518E-01
  1.82729168E+00
Num ILSW                                   I              100
ILSW                                       I   N=         100
           1           0           0           0           2           0
           0           0           0           0        4639          -1
           5           0           0           0           2           0
           0           0           0           0           1           0
           1           1           0           0           0           0
           0           0      100000           0          -1           0
           0           0           0           0           0           0
           0           0           0           1           0           0
           0 -2000000000           1           0           0           0
           0           0         121          52           0           0
           0           0          58           0           0           0
           0           0           0           6           0           1
           0           0           0           0           0           0
           0           0           0           0           0           0
           0           0           0           0           0           0
           0           0           0           0           0           0
           0           0           0           0
Num RLSW                                   I               52
RLSW                                       R   N=          52
  1.00000000E+00  1.00000000E+00  1.00000000E+00  1.00000000E+00  1.00000000E+00
  0.00000000E+00  2.00000000E-01  2.22036000E-01  0.00000000E+00  7.77964000E-01
  0.00000000E+00  2.00000000E-01  0.00000000E+00  0.00000000E+00  1.00000000E+00
  0.00000000E+00  0.00000000E+00  1.00000000E+00  0.00000000E+00  0.00000000E+00
  0.00000000E+00  0.00000000E+00  1.00000000E+00  0.00000000E+00  0.00000000E+00
  0.00000000E+00  0.00000000E+00  1.00000000E+00  0.00000000E+00  0.00000000E+00
  0.00000000E+00  0.00000000E+00  1.00000000E+00  0.00000000E+00  0.00000000E+00
  0.00000000E+00  0.00000000E+00  0.00000000E+00  1.00000000E+00  1.00000000E+00
  0.00000000E+00  1.00000000E+00  0.00000000E+00  0.00000000E+00  0.00000000E+00
  0.00000000E+00  0.00000000E+00  0.00000000E+00  0.00000000E+00  0.00000000E+00
  0.00000000E+00  0.00000000E+00
MxBond                                     I                3
NBond                                      I   N=           6
           3           3           1           1           1           1
IBond                                      I   N=          18
           2           5           6           1           3           4
           2           0           0           2           0           0
           1           0           0           1           0           0
RBond                                      R   N=          18
  2.00000000E+00  1.00000000E+00  1.00000000E+00  2.00000000E+00  1.00000000E+00
  2.00000000E+00  1.00000000E+00  0.00000000E+00  0.00000000E+00  2.00000000E+00
  0.00000000E+00  0.00000000E+00  1.00000000E+00  0.00000000E+00  0.00000000E+00
  1.00000000E+00  0.00000000E+00  0.00000000E+00
Virial Ratio                               R      2.008008792123942E+00
SCF Energy                                 R     -1.696098029225633E+02
Total Energy                               R     -1.696098029225633E+02
S**2                                       R     -2.486899575160351E-14
S**2 after annihilation                    R     -4.263256414560541E-13
RMS Force                                  R      5.274181463467367E-03
RMS Density                                R      1.383696457836276E-09
Job Status                                 I                1
Nuclear derivative order                   I                1
External E-field                           R   N=          35
  0.00000000E+00  0.00000000E+00  0.00000000E+00  0.00000000E+00  0.00000000E+00
  0.00000000E+00  0.00000000E+00  0.00000000E+00  0.00000000E+00  0.00000000E+00
  0.00000000E+00  0.00000000E+00  0.00000000E+00  0.00000000E+00  0.00000000E+00
  0.00000000E+00  0.00000000E+00  0.00000000E+00  0.00000000E+00  0.00000000E+00
  0.00000000E+00  0.00000000E+00  0.00000000E+00  0.00000000E+00  0.00000000E+00
  0.00000000E+00  0.00000000E+00  0.00000000E+00  0.00000000E+00  0.00000000E+00
  0.00000000E+00  0.00000000E+00  0.00000000E+00  0.00000000E+00  0.00000000E+00
IOpCl                                      I                1
IROHF                                      I                0
Alpha Orbital Energies                     R   N=          57
 -1.92290393E+01 -1.45955631E+01 -1.03407713E+01 -1.20857353E+00 -9.54616412E-01
 -7.54310730E-01 -6.37459776E-01 -5.66576388E-01 -5.48142965E-01 -5.03743736E-01
 -3.38032705E-01 -3.08995876E-01  4.51086463E-02  1.19011977E-01  1.73457443E-01
  2.09890737E-01  3.11578074E-01  3.57208239E-01  4.98054309E-01  5.65864925E-01
  5.81218075E-01  6.41281369E-01  6.92254524E-01  7.25643942E-01  7.39546747E-01
  8.27384267E-01  8.48651865E-01  1.03416773E+00  1.05083064E+00  1.10017450E+00
  1.17268786E+00  1.24555674E+00  1.31602986E+00  1.35800352E+00  1.40740020E+00
  1.59587716E+00  1.60282547E+00  1.72019171E+00  1.89696049E+00  1.94301179E+00
  2.00709118E+00  2.01734357E+00  2.13807151E+00  2.18688086E+00  2.39109006E+00
  2.41870828E+00  2.58611172E+00  2.59417481E+00  2.71955522E+00  2.81840978E+00
  2.86499956E+00  2.93508621E+00  3.07951494E+00  3.27809748E+00  3.31178013E+00
  3.57986109E+00  3.84552379E+00
Beta Orbital Energies                      R   N=          57
 -1.92290393E+01 -1.45955631E+01 -1.03407713E+01 -1.20857353E+00 -9.54616412E-01
 -7.54310730E-01 -6.37459776E-01 -5.66576388E-01 -5.48142965E-01 -5.03743736E-01
 -3.38032705E-01 -3.08995876E-01  4.51086463E-02  1.19011977E-01  1.73457443E-01
  2.09890737E-01  3.11578074E-01  3.57208239E-01  4.98054309E-01  5.65864925E-01
  5.81218075E-01  6.41281369E-01  6.92254524E-01  7.25643942E-01  7.39546747E-01
  8.27384267E-01  8.48651865E-01  1.03416773E+00  1.05083064E+00  1.10017450E+00
  1.17268786E+00  1.24555674E+00  1.31602986E+00  1.35800352E+00  1.40740020E+00
  1.59587716E+00  1.60282547E+00  1.72019171E+00  1.89696049E+00  1.94301179E+00
  2.00709118E+00  2.01734357E+00  2.13807151E+00  2.18688086E+00  2.39109006E+00
  2.41870828E+00  2.58611172E+00  2.59417481E+00  2.71955522E+00  2.81840978E+00
  2.86499956E+00  2.93508621E+00  3.07951494E+00  3.27809748E+00  3.31178013E+00
  3.57986109E+00  3.84552379E+00
Alpha MO coefficients                      R   N=        3249
  2.43085107E-05 -4.54189952E-04  1.18541864E-04  5.04887483E-05 -7.78964620E-05
  3.37776090E-04 -1.30435653E-03 -3.08124449E-04  1.33598627E-03 -1.10664556E-04
  8.30676095E-04  9.74994717E-05 -2.08585779E-04 -1.91565470E-04  3.05892674E-04
  9.63037471E-04 -1.18502202E-02 -5.87818678E-04  1.92019743E-04 -8.32543126E-04
 -6.16892211E-03  1.78025119E-03 -7.71864315E-03  5.19955894E-04  1.33959703E-03
 -2.69931972E-04  2.07464565E-04 -3.08960610E-04  3.78734372E-04 -1.30697999E-04
  7.42969157E-04 -7.70562180E-05  3.34078630E-04  9.89103025E-01 -3.92288279E-02
  2.73743267E-02  1.67767768E-03 -4.97652514E-04  2.15768721E-03 -5.15819287E-03
  1.56424665E-03 -6.78216902E-03 -1.52112952E-05 -3.73282314E-05  1.02750257E-05
 -1.58331235E-05  8.60923130E-06 -1.32066368E-04 -2.23776689E-05 -7.54733558E-05
  5.56021932E-05 -2.41084111E-04  3.39063585E-04 -1.39902819E-03  2.10504045E-04
  3.03297548E-05 -1.31494245E-04 -4.18323390E-04  1.04357270E-03 -1.42085771E-02
  1.74364752E-03 -2.60333158E-05  1.12698512E-04 -6.44435369E-03  2.50221656E-04
 -1.08394667E-03 -1.12476852E-03  6.48002302E-05  7.64407953E-05  1.63434724E-03
 -1.50119587E-05  9.88552068E-01 -4.39317421E-02  2.70312816E-02 -4.02706707E-04
  1.23645470E-04 -5.35954559E-04 -7.67205593E-03  5.45040653E-05 -2.35827123E-04
 -9.39330630E-04 -1.72663349E-05  7.57544643E-04 -1.48292835E-03  4.02935426E-06
  3.30075334E-03 -2.76590496E-03 -1.15395814E-03 -7.21665456E-04  3.12904361E-03
  2.27449094E-04  3.65780417E-04  1.28209695E-03 -7.12184029E-04  2.24603916E-04
 -9.73829838E-04 -8.93692886E-04  5.91652198E-04 -2.56528737E-03  1.11034614E-03
  1.55930760E-03 -6.01636022E-04  5.46621842E-04 -3.59641855E-04  1.77005864E-04
  8.99416351E-04  1.99182276E-04  2.65743059E-05 -1.15336736E-04  5.77511085E-04
  1.26996263E-03  2.10954151E-04 -4.01025786E-05  1.73804884E-04  9.88376554E-01
  4.79313934E-02 -1.57919358E-02  1.07739398E-03  1.77874608E-05 -7.84194925E-05
  6.71158069E-03  3.49789696E-04 -1.51621904E-03  1.56355132E-03 -1.60539889E-04
 -1.23285456E-03  2.35334744E-03  3.70834800E-05 -6.35255299E-05 -7.15926257E-04
 -6.50065839E-03 -1.13583547E-03  2.55806182E-05 -1.10812561E-04  1.11022150E-02
 -6.24667331E-04  2.70730604E-03  2.34568550E-04  5.91152833E-05  2.11991521E-04
 -1.27656344E-03 -1.35593595E-05  2.92724038E-04 -5.54163994E-05 -1.51548227E-03
  7.70045050E-05 -3.33713422E-04  4.28098663E-05  3.72616720E-04 -4.01165248E-03
  1.12403988E-04  3.82919162E-05 -1.66065282E-04 -7.57346642E-04 -5.80998056E-04
  2.51939900E-03 -3.67449190E-04  1.68895826E-04  9.20372311E-05  2.58572921E-04
 -3.89630894E-05 -4.96055171E-03  5.49399703E-03 -1.58033831E-03  5.40173883E-04
 -2.34288212E-03 -4.28390207E-03  6.89130380E-03 -1.72140984E-03 -5.14207466E-04
  2.22908182E-03 -5.86415707E-02  1.07086599E-01  1.84914040E-02  7.35654053E-02
 -2.03807541E-03  8.83006834E-03  1.14689015E-02  3.80589214E-03 -1.65027240E-02
 -5.06961128E-03  1.53232291E-03  7.36304676E-05  8.47885574E-03 -3.53787428E-04
  2.15492590E-01  4.43630119E-01  1.20458761E-01 -5.88727533E-02  2.35182715E-02
 -1.01972788E-01  1.25557170E-02 -7.90731722E-03  3.42840859E-02  6.87126292E-03
  1.45509736E-02 -5.35982031E-03  1.01011900E-02 -3.35622027E-03  8.49875780E-02
  1.16196700E-03 -6.66573328E-03 -2.58138423E-03  1.11933651E-02  1.89065035E-01
  3.75110653E-01  1.86893252E-01 -9.56632319E-02  2.85671079E-02 -1.23858964E-01
 -2.57571677E-02  8.49339450E-03 -3.68244796E-02  6.91110134E-03  1.42284330E-02
 -3.97418536E-03  4.34386011E-03 -3.28167900E-03  1.03817840E-02 -6.48148392E-03
  1.98050109E-03 -6.33596716E-04  2.74738617E-03  1.77271270E-02  9.19532109E-03
  2.43670623E-03  6.16095104E-04 -2.67083058E-03  1.62850866E-01 -3.12789598E-01
 -6.16055845E-02 -1.47097973E-01 -5.62579434E-03  2.44143842E-02 -1.50352709E-02
 -3.36468319E-03  1.45896159E-02  7.40927854E-03  4.90927635E-03  6.04008061E-04
 -1.53147500E-02 -1.13154058E-03 -1.26045056E-01 -2.60046178E-01 -1.18328210E-01
 -2.52287594E-01  4.27291254E-02 -1.85251046E-01  7.92542307E-02 -1.17236315E-02
  5.08294686E-02  8.54613292E-03  9.86973187E-03 -2.25433314E-03 -5.54770025E-03
 -2.27607373E-03 -1.12402763E-01 -4.68738392E-03  1.36417541E-02  2.13708664E-03
 -9.26752924E-03  1.63337906E-01  3.34344837E-01  2.12862179E-01 -2.71020152E-02
  1.28651663E-02 -5.57815251E-02 -6.57277120E-03  3.30988672E-03 -1.43521518E-02
  3.75297865E-03  4.41153111E-03 -1.50258985E-03 -3.31873471E-04 -1.01741326E-03
 -7.55427306E-02 -4.86542351E-03 -5.68523645E-03  2.13680030E-03 -9.26637438E-03
 -5.66320721E-02 -9.40209137E-03 -4.80180631E-03 -1.69969557E-03  7.36938513E-03
 -1.50549212E-01  3.05277154E-01  9.26333546E-02 -1.91264135E-02 -1.91545682E-02
  8.30282108E-02 -2.25839611E-02 -7.32322410E-03  3.17509574E-02  2.50611744E-03
  9.47763738E-03 -1.66241600E-03  2.48255190E-03 -2.18577106E-03 -8.53042849E-02
 -1.88655962E-01 -7.94948200E-02  2.46723268E-01  6.31794689E-02 -2.73943251E-01
 -9.01079504E-02 -2.23593017E-02  9.69477843E-02 -2.96987896E-03  3.18556960E-03
  4.03032944E-04  3.49053705E-03 -7.34839285E-04 -3.04839807E-01 -3.99388156E-02
  1.15247211E-02  5.44916597E-03 -2.36288874E-02  6.29814776E-02  1.29970094E-01
  1.05360444E-01 -6.23405665E-02 -1.83418574E-02  7.95295242E-02 -3.12460742E-02
 -9.96203045E-03  4.31951905E-02 -1.06433022E-02  2.33600569E-03  3.08249293E-03
  5.78042078E-03 -5.38857916E-04  9.00143255E-02  2.08916081E-02  2.66552300E-03
 -2.17791681E-03  9.44457556E-03  1.59964645E-01  2.08996752E-02  7.14377841E-03
  2.91904757E-03 -1.26561323E-02  9.98568940E-02 -1.94438963E-01 -1.29050190E-01
  3.12843594E-01 -3.40949845E-02  1.47872662E-01  8.16445087E-02 -9.18476405E-03
  3.98351489E-02 -1.52532445E-02  5.70590111E-03  3.70921194E-03  1.11881963E-02
 -1.31677357E-03  7.27979442E-02  1.75676012E-01  9.90692283E-02  2.22680056E-01
  4.09410145E-02 -1.77571887E-01 -6.93592013E-02 -2.10490005E-02  9.12943477E-02
  2.02457901E-03 -3.59507407E-03 -2.60783439E-04 -2.43477135E-03  8.28688302E-04
 -1.24065302E-01 -3.53560588E-02  1.37387910E-03  1.98112869E-03 -8.58921786E-03
 -6.41960128E-02 -1.26727295E-01 -1.68589112E-01 -1.43412547E-01  2.77728227E-03
 -1.20169547E-02 -6.99200767E-02 -2.09241485E-03  9.08466015E-03 -6.63141799E-03
  7.12639151E-03  1.04530883E-03  7.19292511E-03 -1.64399160E-03 -2.92781741E-01
 -7.27987574E-02 -5.89742563E-03  3.90279158E-03 -1.69253351E-02 -1.25309481E-01
 -2.57036025E-02  8.12825311E-04 -2.80369899E-03  1.21576409E-02  1.82741240E-02
 -3.53928465E-02 -3.93098113E-02  2.10301618E-01  5.29091342E-02 -2.29380459E-01
  8.48700784E-02  1.33314726E-02 -5.77889155E-02 -7.21680272E-03 -4.54662805E-04
  9.62687281E-04  8.55278326E-03  1.04462790E-04 -4.04396938E-02 -1.01836317E-01
 -9.90819244E-02  2.73669928E-01 -3.62793821E-02  1.57214853E-01 -1.08514985E-01
  2.10302463E-02 -9.11353245E-02 -2.50467540E-03  4.44821785E-03  1.61597063E-03
 -2.29442324E-03 -1.02609801E-03 -4.11290200E-02 -4.60678893E-03 -8.79281239E-03
  1.14425577E-03 -4.95890946E-03  1.30615040E-01  2.54411728E-01  3.70869541E-01
  1.59574875E-01 -6.27332878E-02  2.72037911E-01  6.81685043E-02 -2.92444516E-02
  1.26819177E-01 -1.02134725E-02 -1.06986936E-02  5.07363501E-03 -3.14059661E-03
  2.46706804E-03  6.86762678E-02  3.72541826E-02  6.17615960E-03  2.14428452E-04
 -9.28139562E-04 -2.53894321E-01 -6.18142276E-02 -5.93584257E-03 -2.49648354E-03
  1.08239878E-02  5.88038062E-06 -1.25065789E-05 -8.63650775E-06  1.16176345E-05
 -2.03756924E-01 -4.70043251E-02  5.26228909E-06 -9.55981425E-02 -2.20497807E-02
 -2.49607039E-05 -5.17761856E-03 -5.73931751E-05 -1.46365147E-05 -2.24509492E-02
  2.09688730E-06  4.94828553E-06  1.70866225E-06  1.90448383E-05  4.81006846E-01
  1.10934729E-01 -9.23630318E-06 -3.01064579E-01 -6.94367840E-02 -4.36000455E-03
 -7.15292448E-05 -1.03344298E-02 -2.51722845E-03 -3.11473343E-04 -6.51791681E-06
 -2.21936315E-06 -2.42213035E-07 -1.43225026E-02 -3.30390792E-03  1.40375263E-06
  2.77436940E-06  4.94960748E-06 -5.28411315E-06 -2.90932516E-01 -6.70928429E-02
 -3.40497118E-06 -1.64399634E-01 -3.79130997E-02  7.32610740E-03  3.21214621E-03
  1.73653319E-02  4.23046229E-03  1.39264433E-02  3.22269446E-06  2.28568809E-06
  5.35699674E-07 -5.44263049E-03 -1.25515364E-03 -1.52785222E-05 -5.23435050E-06
 -3.00769460E-07 -5.02848732E-03 -1.15920772E-03 -4.55643354E-03  1.23454904E-02
  5.02424749E-03  4.08543420E-03 -7.80587884E-02  3.38452072E-01  8.63506561E-04
 -2.44420319E-02  1.05973439E-01 -2.28133181E-03 -1.83914431E-02  4.13239993E-04
  2.24772325E-03  4.24155892E-03 -2.36336535E-02 -7.00744816E-02 -6.70131833E-03
  5.43580353E-02 -5.55945639E-02  2.41092746E-01  8.83496504E-04  1.42117633E-02
 -6.16495625E-02 -3.44864113E-03 -2.10957047E-02  1.60046830E-03 -5.98338898E-04
  4.86530125E-03  1.65200654E-01  6.87209206E-02 -6.97997208E-03 -1.61079584E-03
  6.98385788E-03  6.52721265E-02  1.23256920E-01  1.67184250E-01  2.07969733E-01
 -4.78352051E-02  2.07364750E-01  1.21798437E-01 -2.75028346E-02  1.19222604E-01
 -2.69105795E-03 -1.30376845E-02  2.50423098E-03 -5.61676783E-03  3.00738192E-03
 -2.84056076E-01 -1.19765520E-01 -9.02613136E-03  1.54614967E-03 -6.70712851E-03
  2.69936706E-01  1.10166350E-01  8.65280567E-03  1.53222086E-03 -6.64205873E-03
 -4.38191678E-02  1.34577124E-01  9.56264300E-02  1.40556106E-01 -5.08240607E-03
  2.20495746E-02  7.58737484E-03  5.15197160E-03 -2.23351098E-02 -4.14375784E-03
  1.67280786E-03  1.65287904E-03  3.91768707E-04 -3.85940508E-04  4.02400832E-03
  1.33763111E-02  5.42207980E-02  8.67492221E-02  1.29981065E-02 -5.63612608E-02
  2.80632037E-02 -8.64947401E-03  3.75002130E-02 -3.46716308E-02  1.65530913E-02
  9.12075102E-03  2.26083704E-02 -3.81882202E-03 -2.11554212E-01 -1.12382306E-01
  4.23627206E-03  4.39400428E-04 -1.90614093E-03  1.09011111E-03  6.24219686E-03
 -3.99348051E-02  4.90945508E-01  8.54470792E-02 -3.70538770E-01  3.86257822E-01
  6.07360602E-02 -2.63382809E-01  1.62606936E-02 -6.13134727E-03 -4.21633396E-03
 -1.08539962E-02  1.41446061E-03 -4.36450725E-02 -7.38453315E-02  1.91999905E-03
  6.08678076E-04 -2.63969457E-03 -1.29101563E-02 -6.55324628E-02 -4.35798804E-04
 -7.15945514E-05  3.11455262E-04  5.52211923E-06 -1.27637747E-05 -1.11694442E-05
  2.62712239E-06 -3.91016498E-01 -9.01769107E-02  2.70774125E-06 -3.18102420E-01
 -7.33556181E-02  1.07974523E-03 -3.54057456E-03  2.56015630E-03  6.23010677E-04
 -1.53504249E-02  1.55469043E-06  4.02538147E-06  1.26592659E-07  6.37691255E-06
  1.10382645E-01  2.54582605E-02 -1.34917402E-06 -5.35156392E-02 -1.23444970E-02
  9.11529021E-03  8.17049173E-03  2.16055237E-02  5.26416918E-03  3.54259173E-02
 -2.10662174E-06 -1.60563948E-06  1.54978457E-08 -7.29555686E-03 -1.68268219E-03
 -3.38152756E-09 -7.89550409E-08  7.43786037E-07  1.24133400E-05  4.78843158E-01
  1.10434360E-01  9.73570762E-06  3.82657751E-01  8.82505717E-02 -5.24874519E-03
 -2.07581196E-03 -1.24406917E-02 -3.03073479E-03 -8.99937548E-03  4.28068039E-06
  4.10520535E-06  7.07834312E-07 -1.37813417E-02 -3.17770746E-03  4.45273947E-06
 -3.89630489E-06 -4.68050423E-08 -1.21027147E-02 -2.79179195E-03 -6.99107860E-06
  1.24040621E-05  5.59161099E-05 -6.99674041E-06  3.81273730E-01  8.79299493E-02
 -1.35722018E-05  5.30205889E-01  1.22281172E-01  1.83695585E-04 -5.31491489E-03
  4.36614947E-04  1.05265782E-04 -2.30461688E-02 -6.59437867E-07 -2.89425139E-06
  6.68116996E-06  1.83634515E-06  4.48858292E-01  1.03523102E-01 -6.40120320E-06
 -5.02333334E-01 -1.15857795E-01  6.09276100E-03 -1.95057055E-03  1.44411066E-02
  3.51720256E-03 -8.45964101E-03 -3.03996468E-06 -1.82493574E-06 -1.04615795E-07
 -2.57348854E-02 -5.93552708E-03  1.21455708E-07  2.79302348E-07  1.03546433E-06
  1.38760917E-06  3.11659080E-01  7.18801899E-02  1.38311684E-06  3.26425535E-01
  7.52852643E-02  1.68727156E-03  3.13844252E-04  3.99911256E-03  9.74127361E-04
  1.36051189E-03 -1.47814361E-05 -2.36100682E-05 -9.36677902E-09  2.12964587E-02
  4.91106654E-03 -1.32472445E-05 -2.59579234E-05 -9.46118455E-09  2.04819834E-02
  4.72429851E-03  2.93544389E-02 -5.49553982E-02 -4.59087852E-01  1.11060461E-01
 -3.15249177E-02  1.36718285E-01  3.10109518E-01 -8.77639197E-02  3.80625854E-01
  7.89813398E-03  1.61883461E-02 -2.29276014E-03 -4.26817642E-03 -3.73378295E-03
 -8.24978641E-02 -1.54385446E-01 -1.01265836E+00  1.18788966E-01  5.56361223E-02
 -2.41217750E-01 -1.76050943E-01 -7.78394924E-02  3.37460111E-01  7.19094709E-04
 -1.57733627E-02 -4.57309832E-04  6.34745350E-04  3.63746001E-03  1.64949560E-01
  1.31019667E+00  7.89748091E-03  2.98125745E-03 -1.29288191E-02 -1.09357317E-02
 -3.02187468E-02 -2.81438172E-03  4.94730545E-02  1.44636669E-02 -6.27081045E-02
  5.10206479E-02  2.06717120E-02 -8.96180979E-02 -3.62172040E-03 -5.11138731E-04
  5.42149651E-04  4.04772532E-03  1.17761192E-04  6.07909265E-02  8.76860932E-01
  4.30031279E-03  2.48455464E-03 -1.07735768E-02 -2.79192065E-02 -9.90790837E-02
  5.12586256E-03 -1.12079502E-03  4.86069477E-03 -1.36024351E-01  2.79065289E-01
  2.06182061E+00 -1.74390607E-01 -4.93929544E-03  2.13261396E-02 -5.27641268E-01
 -1.94160773E-02  8.39078839E-02 -6.86183982E-03  6.91765073E-03  4.62976470E-03
 -7.12257798E-03 -1.59489406E-03 -4.21015778E-02 -9.00285144E-02 -3.67784629E-01
 -1.23464684E-02  1.85034502E-02 -8.02674500E-02 -1.01142581E-02 -3.55234155E-02
  1.54119454E-01 -2.34956908E-03 -7.50642926E-03  4.26193094E-04  2.31869269E-03
  1.73226726E-03  9.94599148E-02  5.49339630E-01  1.33065178E-02  1.94335751E-05
 -8.15323457E-05  3.13396629E-03  1.16173706E-02 -2.89494694E-02 -4.19970288E-02
 -6.91257535E-03  2.99503224E-02 -2.27551669E-02 -4.73983978E-03  2.05171530E-02
 -1.16462947E-03  1.08729943E-03  3.60771826E-04  5.35324942E-04 -2.50795892E-04
 -6.31632508E-02 -1.36095958E+00  1.94429414E-03 -2.99549971E-03  1.29874369E-02
 -1.23690911E-01 -1.59015263E+00  6.01477732E-03  2.74402615E-03 -1.19007943E-02
  1.55456571E-02 -2.25958567E-02 -3.74411947E-01 -7.82106315E-02 -7.35014402E-02
  3.18723386E-01 -3.78704888E-01 -2.78132129E-01  1.20602956E+00 -7.13395781E-03
  2.42236480E-02  1.91171309E-03  4.50856002E-03 -5.58621380E-03  7.77480066E-02
  1.59636964E-01  9.71876048E-01 -5.44228370E-02 -4.24342314E-03  1.83931371E-02
  4.18789390E-02  4.50645198E-02 -1.95395694E-01 -4.51684266E-03 -3.41666559E-02
  2.84651918E-03 -3.85725212E-03  7.87970930E-03 -3.60592073E-03 -6.17656531E-01
  1.26606593E-02 -1.26785627E-03  5.49379229E-03 -2.71069026E-02 -6.61948209E-02
 -1.24651425E-01  9.84378456E-02 -3.45942252E-02  1.49981309E-01  1.08521742E-01
 -3.72717623E-02  1.61593021E-01  9.43569238E-04  2.65373640E-03 -5.39928159E-04