0002_q000_m01_k00_opt_uwb97xd_def2svpd/0002_q000_m01_k00_force_uwb97xd_d
Force     UwB97XD                                                     Gen                 
Number of atoms                            I                6
Info1-9                                    I   N=           9
          13           9           0           0           0         100
           5          18       -5802
Full Title                                 C   N=           8
0002_q000_m01_k00_opt_uwb97xd_def2svpd/0002_q000_m01_k00_for
ce_uwb97xd_def2svpd stable-force    
Route                                      C   N=          15
#p uwb97xd/chkbasis force guess=read geom=check scf=(maxcycl
e=900,verytightlineq,xqc) integral=grid=ultrafine symmetry=N
one density=current pop=(cm5,hlygat,mbs,npa) output=wfx     
Charge                                     I                0
Multiplicity                               I                1
Number of electrons                        I               24
Number of alpha electrons                  I               12
Number of beta electrons                   I               12
Number of basis functions                  I               87
Number of independent functions            I               87
Number of point charges in /Mol/           I                0
Number of translation vectors              I                0
Atomic numbers                             I   N=           6
           6           7           1           8           1           1
Nuclear charges                            R   N=           6
  6.00000000E+00  7.00000000E+00  1.00000000E+00  8.00000000E+00  1.00000000E+00
  1.00000000E+00
Current cartesian coordinates              R   N=          18
  1.76526120E+00 -9.56393551E-02  1.00895621E-01  4.21476231E+00 -1.14759850E-01
  1.83592472E-01  5.12197023E+00  2.73169593E-01 -1.49843980E+00  5.62552287E+00
 -5.41213095E-01  2.03257921E+00  8.69741593E-01  3.19707205E-01 -1.70041362E+00
  7.24411360E-01 -4.93862518E-01  1.82729168E+00
Number of symbols in /Mol/                 I                0
Int Atom Types                             I   N=           6
           0           0           0           0           0           0
Force Field                                I                0
Atom Types                                 C   N=           6
                                                            
            
MM charges                                 R   N=           6
  0.00000000E+00  0.00000000E+00  0.00000000E+00  0.00000000E+00  0.00000000E+00
  0.00000000E+00
Integer atomic weights                     I   N=           6
          12          14           1          16           1           1
Real atomic weights                        R   N=           6
  1.20000000E+01  1.40030740E+01  1.00782504E+00  1.59949146E+01  1.00782504E+00
  1.00782504E+00
Atom fragment info                         I   N=           6
           0           0           0           0           0           0
Atom residue num                           I   N=           6
           0           0           0           0           0           0
Nuclear spins                              I   N=           6
           0           2           1           0           1           1
Nuclear ZEff                               R   N=           6
 -3.60000000E+00 -4.55000000E+00 -1.00000000E+00 -5.60000000E+00 -1.00000000E+00
 -1.00000000E+00
Nuclear ZNuc                               R   N=           6
  6.00000000E+00  7.00000000E+00  1.00000000E+00  8.00000000E+00  1.00000000E+00
  1.00000000E+00
Nuclear QMom                               R   N=           6
  0.00000000E+00  2.04400000E+00  0.00000000E+00  0.00000000E+00  0.00000000E+00
  0.00000000E+00
Nuclear GFac                               R   N=           6
  0.00000000E+00  4.03761000E-01  2.79284600E+00  0.00000000E+00  2.79284600E+00
  2.79284600E+00
MicOpt                                     I   N=           6
          -1          -1          -1          -1          -1          -1
Number of residues                         I                0
Number of secondary structures             I                0
Number of contracted shells                I               37
Number of primitive shells                 I               61
Pure/Cartesian d shells                    I                0
Pure/Cartesian f shells                    I                0
Highest angular momentum                   I                2
Largest degree of contraction              I                5
Shell types                                I   N=          37
           0           0           0           0           1           1
          -2          -2           0           0           0           0
           1           1          -2          -2           0           0
           1           1           0           0           0           0
           1           1           1          -2          -2           0
           0           1           1           0           0           1
           1
Number of primitives per shell             I   N=          37
           5           1           1           1           3           1
           1           1           5           1           1           1
           3           1           1           1           3           1
           1           1           5           1           1           1
           3           1           1           1           1           3
           1           1           1           3           1           1
           1
Shell to atom map                          I   N=          37
           1           1           1           1           1           1
           1           1           2           2           2           2
           2           2           2           2           3           3
           3           3           4           4           4           4
           4           4           4           4           4           5
           5           5           5           6           6           6
           6
Primitive exponents                        R   N=          61
  1.23840169E+03  1.86290050E+02  4.22511763E+01  1.16765579E+01  3.59305065E+00
  4.02451474E-01  1.30901827E-01  6.70535403E-02  9.46809706E+00  2.01035451E+00
  5.47710047E-01  1.52686138E-01  8.00000000E-01  1.17131851E-01  1.71284159E+03
  2.57648127E+02  5.84582459E+01  1.61983679E+01  5.00526008E+00  5.87318566E-01
  1.87645923E-01  9.61712415E-02  1.35714702E+01  2.92573729E+00  7.99277508E-01
  2.19543480E-01  1.00000000E+00  1.66977081E-01  1.30107010E+01  1.96225720E+00
  4.44537960E-01  1.21949620E-01  8.00000000E-01  1.17040991E-01  2.26617678E+03
  3.40870102E+02  7.73631352E+01  2.14796449E+01  6.65894331E+00  8.09759757E-01
  2.55307722E-01  7.65724533E-02  1.77215043E+01  3.86355054E+00  1.04809209E+00
  2.76415444E-01  6.90022764E-02  1.20000000E+00  1.79920243E-01  1.30107010E+01
  1.96225720E+00  4.44537960E-01  1.21949620E-01  8.00000000E-01  1.17040991E-01
  1.30107010E+01  1.96225720E+00  4.44537960E-01  1.21949620E-01  8.00000000E-01
  1.17040991E-01
Contraction coefficients                   R   N=          61
  5.51736505E-03  4.10888286E-02  1.82253821E-01  4.68284594E-01  4.45758173E-01
  1.00000000E+00  1.00000000E+00  1.00000000E+00  5.68883320E-02  3.12940593E-01
  7.60650165E-01  1.00000000E+00  1.00000000E+00  1.00000000E+00 -5.44779958E-03
 -4.06271746E-02 -1.81119623E-01 -4.68439756E-01 -4.46168463E-01  1.00000000E+00
  1.00000000E+00  1.00000000E+00 -5.88481170E-02 -3.20246248E-01 -7.53282265E-01
  1.00000000E+00  1.00000000E+00  1.00000000E+00  3.34854848E-02  2.34721871E-01
  8.13770285E-01  1.00000000E+00  1.00000000E+00  1.00000000E+00 -5.38935039E-03
 -4.02347214E-02 -1.80081842E-01 -4.68288577E-01 -4.46926172E-01  1.00000000E+00
  1.00000000E+00  1.00000000E+00  6.26302488E-02  3.33311385E-01  7.41486383E-01
  1.00000000E+00  1.00000000E+00  1.00000000E+00  1.00000000E+00  3.34854848E-02
  2.34721871E-01  8.13770285E-01  1.00000000E+00  1.00000000E+00  1.00000000E+00
  3.34854848E-02  2.34721871E-01  8.13770285E-01  1.00000000E+00  1.00000000E+00
  1.00000000E+00
Coordinates of each shell                  R   N=         111
  1.76526120E+00 -9.56393551E-02  1.00895621E-01  1.76526120E+00 -9.56393551E-02
  1.00895621E-01  1.76526120E+00 -9.56393551E-02  1.00895621E-01  1.76526120E+00
 -9.56393551E-02  1.00895621E-01  1.76526120E+00 -9.56393551E-02  1.00895621E-01
  1.76526120E+00 -9.56393551E-02  1.00895621E-01  1.76526120E+00 -9.56393551E-02
  1.00895621E-01  1.76526120E+00 -9.56393551E-02  1.00895621E-01  4.21476231E+00
 -1.14759850E-01  1.83592472E-01  4.21476231E+00 -1.14759850E-01  1.83592472E-01
  4.21476231E+00 -1.14759850E-01  1.83592472E-01  4.21476231E+00 -1.14759850E-01
  1.83592472E-01  4.21476231E+00 -1.14759850E-01  1.83592472E-01  4.21476231E+00
 -1.14759850E-01  1.83592472E-01  4.21476231E+00 -1.14759850E-01  1.83592472E-01
  4.21476231E+00 -1.14759850E-01  1.83592472E-01  5.12197023E+00  2.73169593E-01
 -1.49843980E+00  5.12197023E+00  2.73169593E-01 -1.49843980E+00  5.12197023E+00
  2.73169593E-01 -1.49843980E+00  5.12197023E+00  2.73169593E-01 -1.49843980E+00
  5.62552287E+00 -5.41213095E-01  2.03257921E+00  5.62552287E+00 -5.41213095E-01
  2.03257921E+00  5.62552287E+00 -5.41213095E-01  2.03257921E+00  5.62552287E+00
 -5.41213095E-01  2.03257921E+00  5.62552287E+00 -5.41213095E-01  2.03257921E+00
  5.62552287E+00 -5.41213095E-01  2.03257921E+00  5.62552287E+00 -5.41213095E-01
  2.03257921E+00  5.62552287E+00 -5.41213095E-01  2.03257921E+00  5.62552287E+00
 -5.41213095E-01  2.03257921E+00  8.69741593E-01  3.19707205E-01 -1.70041362E+00
  8.69741593E-01  3.19707205E-01 -1.70041362E+00  8.69741593E-01  3.19707205E-01
 -1.70041362E+00  8.69741593E-01  3.19707205E-01 -1.70041362E+00  7.24411360E-01
 -4.93862518E-01  1.82729168E+00  7.24411360E-01 -4.93862518E-01  1.82729168E+00
  7.24411360E-01 -4.93862518E-01  1.82729168E+00  7.24411360E-01 -4.93862518E-01
  1.82729168E+00
Num ILSW                                   I              100
ILSW                                       I   N=         100
           1           0           0           0           2           0
           0           0           0           0        4639          -1
           5           0           0           0           2           0
           0           0           0           0           1           0
           1           1           0           0           0           0
           0           0      100000           0          -1           0
           0           0           0           0           0           0
           0           0           0           1           0           0
           0 -2000000000           1           0           0           0
           0           0         121          52           0           0
           0           0          58           0           0           0
           0           0           0           6           0           1
           0           0           0           0           0           0
           0           0           0           0           0           0
           0           0           0           0           0           0
           0           0           0           0           0           0
           0           0           0           0
Num RLSW                                   I               52
RLSW                                       R   N=          52
  1.00000000E+00  1.00000000E+00  1.00000000E+00  1.00000000E+00  1.00000000E+00
  0.00000000E+00  2.00000000E-01  2.22036000E-01  0.00000000E+00  7.77964000E-01
  0.00000000E+00  2.00000000E-01  0.00000000E+00  0.00000000E+00  1.00000000E+00
  0.00000000E+00  0.00000000E+00  1.00000000E+00  0.00000000E+00  0.00000000E+00
  0.00000000E+00  0.00000000E+00  1.00000000E+00  0.00000000E+00  0.00000000E+00
  0.00000000E+00  0.00000000E+00  1.00000000E+00  0.00000000E+00  0.00000000E+00
  0.00000000E+00  0.00000000E+00  1.00000000E+00  0.00000000E+00  0.00000000E+00
  0.00000000E+00  0.00000000E+00  0.00000000E+00  1.00000000E+00  1.00000000E+00
  0.00000000E+00  1.00000000E+00  0.00000000E+00  0.00000000E+00  0.00000000E+00
  0.00000000E+00  0.00000000E+00  0.00000000E+00  0.00000000E+00  0.00000000E+00
  0.00000000E+00  0.00000000E+00
MxBond                                     I                3
NBond                                      I   N=           6
           3           3           1           1           1           1
IBond                                      I   N=          18
           2           5           6           1           3           4
           2           0           0           2           0           0
           1           0           0           1           0           0
RBond                                      R   N=          18
  2.00000000E+00  1.00000000E+00  1.00000000E+00  2.00000000E+00  1.00000000E+00
  2.00000000E+00  1.00000000E+00  0.00000000E+00  0.00000000E+00  2.00000000E+00
  0.00000000E+00  0.00000000E+00  1.00000000E+00  0.00000000E+00  0.00000000E+00
  1.00000000E+00  0.00000000E+00  0.00000000E+00
Virial Ratio                               R      2.009111586975004E+00
SCF Energy                                 R     -1.696278335783063E+02
Total Energy                               R     -1.696278335783063E+02
S**2                                       R     -1.598721155460225E-14
S**2 after annihilation                    R      9.467981954003311E-13
RMS Force                                  R      8.465886030419713E-07
RMS Density                                R      1.037463788894281E-09
Job Status                                 I                1
Nuclear derivative order                   I                1
External E-field                           R   N=          35
  0.00000000E+00  0.00000000E+00  0.00000000E+00  0.00000000E+00  0.00000000E+00
  0.00000000E+00  0.00000000E+00  0.00000000E+00  0.00000000E+00  0.00000000E+00
  0.00000000E+00  0.00000000E+00  0.00000000E+00  0.00000000E+00  0.00000000E+00
  0.00000000E+00  0.00000000E+00  0.00000000E+00  0.00000000E+00  0.00000000E+00
  0.00000000E+00  0.00000000E+00  0.00000000E+00  0.00000000E+00  0.00000000E+00
  0.00000000E+00  0.00000000E+00  0.00000000E+00  0.00000000E+00  0.00000000E+00
  0.00000000E+00  0.00000000E+00  0.00000000E+00  0.00000000E+00  0.00000000E+00
IOpCl                                      I                1
IROHF                                      I                0
Alpha Orbital Energies                     R   N=          87
 -1.92486679E+01 -1.46058205E+01 -1.03526065E+01 -1.21956986E+00 -9.63577239E-01
 -7.62207172E-01 -6.46839011E-01 -5.79237310E-01 -5.56736795E-01 -5.14164370E-01
 -3.52800675E-01 -3.23039067E-01  2.89434913E-02  7.94712450E-02  1.09914477E-01
  1.71725809E-01  1.78938632E-01  1.90255089E-01  1.91668643E-01  2.09501647E-01
  2.36466935E-01  2.40778625E-01  2.57443220E-01  2.96113923E-01  3.31264297E-01
  3.36191812E-01  3.55525349E-01  3.77344106E-01  3.86653031E-01  4.15147626E-01
  4.16407279E-01  4.33092618E-01  4.60100478E-01  4.77587049E-01  5.01652173E-01
  5.13816599E-01  5.40834028E-01  5.61294928E-01  6.00095290E-01  6.22717625E-01
  6.80776216E-01  6.88474000E-01  6.96760908E-01  7.11973801E-01  7.30471482E-01
  7.40612376E-01  7.77619040E-01  8.09958052E-01  8.35254176E-01  9.40801383E-01
  1.02704777E+00  1.05999557E+00  1.12074713E+00  1.15439270E+00  1.18847535E+00
  1.24696519E+00  1.35399932E+00  1.48884826E+00  1.52102727E+00  1.58763329E+00
  1.63989914E+00  1.66281125E+00  1.69649540E+00  1.70135489E+00  1.86141579E+00
  1.86474217E+00  1.87617230E+00  1.98925779E+00  2.02771345E+00  2.13033579E+00
  2.17500656E+00  2.25870244E+00  2.27943768E+00  2.28927513E+00  2.43152632E+00
  2.49404049E+00  2.69000810E+00  2.69754920E+00  2.90994384E+00  2.96764091E+00
  2.97471596E+00  3.07956994E+00  3.21231723E+00  3.29795206E+00  3.42240558E+00
  3.68855134E+00  4.02096519E+00
Beta Orbital Energies                      R   N=          87
 -1.92486679E+01 -1.46058205E+01 -1.03526065E+01 -1.21956986E+00 -9.63577239E-01
 -7.62207172E-01 -6.46839011E-01 -5.79237310E-01 -5.56736795E-01 -5.14164370E-01
 -3.52800675E-01 -3.23039067E-01  2.89434913E-02  7.94712450E-02  1.09914477E-01
  1.71725809E-01  1.78938632E-01  1.90255089E-01  1.91668643E-01  2.09501647E-01
  2.36466935E-01  2.40778625E-01  2.57443220E-01  2.96113923E-01  3.31264297E-01
  3.36191812E-01  3.55525349E-01  3.77344106E-01  3.86653031E-01  4.15147626E-01
  4.16407279E-01  4.33092618E-01  4.60100478E-01  4.77587049E-01  5.01652173E-01
  5.13816599E-01  5.40834028E-01  5.61294928E-01  6.00095290E-01  6.22717625E-01
  6.80776216E-01  6.88474000E-01  6.96760908E-01  7.11973801E-01  7.30471482E-01
  7.40612376E-01  7.77619040E-01  8.09958052E-01  8.35254176E-01  9.40801383E-01
  1.02704777E+00  1.05999557E+00  1.12074713E+00  1.15439270E+00  1.18847535E+00
  1.24696519E+00  1.35399932E+00  1.48884826E+00  1.52102727E+00  1.58763329E+00
  1.63989914E+00  1.66281125E+00  1.69649540E+00  1.70135489E+00  1.86141579E+00
  1.86474217E+00  1.87617230E+00  1.98925779E+00  2.02771345E+00  2.13033579E+00
  2.17500656E+00  2.25870244E+00  2.27943768E+00  2.28927513E+00  2.43152632E+00
  2.49404049E+00  2.69000810E+00  2.69754920E+00  2.90994384E+00  2.96764091E+00
  2.97471596E+00  3.07956994E+00  3.21231723E+00  3.29795206E+00  3.42240558E+00
  3.68855134E+00  4.02096519E+00
Alpha MO coefficients                      R   N=        7569
  3.77949758E-05 -1.69040634E-03  1.03976163E-02  1.18722024E-02  6.59624175E-05
 -5.26078035E-05  2.28024550E-04  6.25882071E-03  2.04455314E-03 -8.86423744E-03
  3.22954268E-05  4.76961491E-04 -8.18984973E-05  2.80236932E-04 -1.10011570E-04
  4.25644633E-03 -8.06092854E-03 -2.28449381E-03  2.00848532E-03  1.85895037E-03
  1.88877380E-04  1.64074868E-03 -3.18183910E-02 -5.61717851E-02 -1.98807716E-04
  8.07875932E-05 -3.50275285E-04 -1.66894795E-02  4.48968543E-03 -1.94662631E-02
  1.84820258E-04  9.29882294E-04 -9.60838983E-05  7.43017262E-05 -2.14462376E-04
 -7.95717554E-03 -1.92964550E-02  5.07231452E-03 -7.04043267E-03  4.45059330E-03
  5.92851396E-04  3.03953860E-03 -2.23068333E-04 -1.70035403E-04  7.37197889E-04
 -1.81057546E-03  3.13956991E-05 -1.36290078E-04  9.88457478E-01 -4.71252611E-02
  7.80283519E-02  1.67131486E-02  1.75922547E-03 -5.78954623E-04  2.51016989E-03
 -1.31321940E-02  4.39640224E-03 -1.90614660E-02 -2.88246651E-03  1.40388843E-03
 -6.08677980E-03  2.20821044E-04  3.37907326E-04 -1.33048182E-04  1.63708726E-04
 -7.79380759E-05  1.58633993E-03  2.01768892E-03 -6.45580913E-04 -9.75596632E-05
 -4.65375186E-04 -6.48238841E-04  3.45770483E-03  2.53931291E-04 -1.30428052E-05
  5.64352466E-05 -2.33391777E-04 -7.81510438E-04  3.38954495E-03 -1.65636343E-04
 -5.65122647E-03  6.34087344E-07  6.13468747E-05 -2.66043007E-04  3.71923109E-03
  3.82734341E-04 -1.66222137E-03 -2.88689790E-04 -4.23459927E-04 -3.56143375E-02
 -5.34778873E-04  1.00722920E-03 -2.69236463E-07  1.09029655E-06 -1.58165042E-02
  5.82934079E-04 -2.52486946E-03 -1.19715304E-03 -3.26020096E-05  1.65937606E-04
  1.39227715E-03  7.45786476E-06  4.46918622E-03 -7.24687014E-03 -3.21686522E-04
 -6.41994441E-03  1.67141291E-03  9.88095088E-01 -5.05057850E-02  6.30582725E-02
 -1.10884131E-02 -3.63087235E-04  8.89062625E-06 -3.83264995E-05 -1.36567718E-02
  5.34422634E-04 -2.31571350E-03 -8.65045510E-04 -1.22702608E-04  6.70690084E-04
 -1.25505475E-03  2.83348450E-05 -1.38538878E-03 -4.13854182E-03  5.03023692E-05
  2.19365557E-03  9.54464982E-04  1.70906513E-03 -1.72309788E-02 -1.11739179E-03
 -5.84933252E-04  2.53621462E-03  9.68897347E-04  1.65899336E-03 -7.19315264E-03
  1.13737409E-04 -7.46853681E-04  5.49958676E-03  1.43138289E-02 -3.38158327E-04
  1.27444461E-04 -5.52553481E-04 -2.74068898E-03  1.02036760E-03 -4.42430189E-03
 -3.65985904E-03  1.12585525E-03 -4.88121728E-03  9.45761775E-04  1.51353162E-03
 -5.06943347E-04  4.42973678E-04 -3.49075909E-04  1.41613543E-03  1.63781816E-03
 -7.12480589E-04  4.72053328E-04 -3.77762270E-04  4.31926414E-04  1.01708762E-02
  3.78579573E-04 -3.71033022E-05  1.60847541E-04 -2.97935664E-03 -9.90124702E-04
  4.29397971E-03  5.65306067E-04 -3.90656048E-03  4.67962444E-04 -3.74833072E-06
  1.61549897E-05  3.92165679E-04  2.44151374E-04 -1.05916182E-03  9.87588075E-01
  6.15833403E-02 -8.79839350E-02 -2.37689494E-02  1.48799398E-03  2.40849501E-05
 -1.05603324E-04  2.60305285E-02 -1.10693834E-03  4.80399532E-03  8.71940702E-04
 -9.90872775E-05 -8.54678700E-04  1.99861049E-03  2.28879863E-05 -1.53016182E-02
 -1.63892726E-03  6.13707466E-03  1.30803109E-03  3.78337964E-04  5.03512230E-05
  8.34615677E-04 -1.49750005E-02  2.33756117E-03 -5.34310180E-04  1.74978844E-05
 -7.59711050E-05  1.75475641E-02 -1.02354669E-03  4.43480130E-03  4.40008919E-04
  1.15726128E-04  1.21492309E-04 -1.26086080E-03 -2.66228337E-05  7.56947011E-03
  2.89910678E-03 -1.68026831E-03 -6.21320838E-03 -6.68180779E-04 -8.93907517E-05
 -2.24862153E-03 -6.66229361E-04 -7.65234904E-05  3.31884894E-04  3.66980053E-03
 -1.62644704E-04  7.04658742E-04  2.48420504E-05  4.11229214E-04 -9.32547701E-03
  8.23775698E-04 -4.17464803E-05 -2.68964069E-05  1.16614712E-04  2.46677424E-03
 -3.41424382E-04  1.48042065E-03 -3.31164454E-04 -9.03135200E-05  3.91666026E-04
 -7.98590902E-05  5.22874111E-05  5.44478901E-06  1.15926998E-04 -1.20633319E-05
 -3.98619078E-04 -7.97122857E-04 -1.74133977E-04  1.40548420E-03  1.83688903E-04
 -2.36304991E-03  6.38541505E-02 -1.32544440E-03  4.23141038E-04 -1.83523593E-03
  1.07268661E-02 -2.20705544E-03  9.57625043E-03 -2.60705934E-03  5.22295148E-02
 -1.26717323E-03 -4.42224356E-04  1.91696738E-03  1.11534638E-02  1.52417726E-03
 -6.60416352E-03 -5.78550026E-02  1.09650288E-01  3.08853193E-02  4.11190104E-03
  7.30823022E-02 -2.09830337E-03  9.09127012E-03  2.82974231E-02 -2.07817055E-03
  9.01078183E-03 -4.97005877E-03  2.35304216E-03 -5.76367149E-06  8.63216180E-03
 -5.43065167E-04 -5.43782388E-03  8.64366886E-03  7.28770800E-04  6.42286496E-03
 -1.99369709E-03  2.13675477E-01  4.42696651E-01  6.47446412E-02 -8.66922593E-02
 -5.95291443E-02  2.38396070E-02 -1.03366135E-01  1.44821282E-02 -7.84395299E-03
  3.40084273E-02  7.05084514E-03  1.40023018E-02 -5.42904581E-03  1.00743218E-02
 -3.22967586E-03 -2.80446908E-03  2.39958060E-02  3.37196298E-03 -8.98557780E-03
 -5.53384423E-03  8.86161839E-02  6.29226787E-02 -5.37006051E-03 -2.66841704E-03
  1.15707861E-02 -4.41840074E-03 -3.57183880E-03  1.54868189E-02  1.91508080E-01
  3.79665500E-01  1.88579184E-01  2.94293705E-02 -9.55074978E-02  2.84762422E-02
 -1.23464904E-01 -3.64853804E-02  1.04500996E-02 -4.53086634E-02 -6.45204141E-03
  1.54318094E-03 -6.69084184E-03  6.95749792E-03  1.45093911E-02 -4.06081084E-03
  4.61909350E-03 -3.34647371E-03  5.22885041E-03  6.20709214E-03 -3.73333652E-03
  6.26958574E-03 -1.43180640E-03  1.25935308E-02  2.64870576E-03  1.58486570E-03
 -5.72877110E-04  2.48431680E-03  5.57792767E-03  1.83821971E-04 -8.00074548E-04
  1.57515740E-02  2.02642683E-02  2.64421282E-03  6.25543411E-04 -2.71197718E-03
  5.17472605E-03  7.80293006E-04 -3.38045200E-03  1.64800916E-01 -3.29781801E-01
 -2.08718973E-02 -8.36318757E-03 -1.48749108E-01 -5.42034621E-03  2.35236692E-02
 -3.56275654E-02  7.50320790E-03 -3.25368903E-02  7.51383724E-03  3.96888825E-03
  5.64827140E-04 -1.53347685E-02 -9.14671853E-04  2.45597360E-02 -1.44022741E-02
 -7.68421739E-03 -1.09860806E-02  3.32105056E-03 -1.28965152E-01 -2.69726891E-01
 -1.01806821E-01  3.69312813E-02 -2.51551349E-01  4.19146205E-02 -1.81719081E-01
  5.74900994E-02 -7.26823773E-03  3.15147622E-02  8.07448784E-03  9.97172270E-03
 -1.90306769E-03 -6.17281128E-03 -2.29957627E-03 -4.17497271E-03 -4.44410492E-02
 -4.93073017E-04  9.25728712E-03  1.02488601E-02 -1.18389484E-01 -6.68177606E-02
  1.20752438E-02  2.19884080E-03 -9.53529967E-03 -7.47034490E-03  4.12241483E-03
 -1.78724011E-02  1.62397944E-01  3.32979711E-01  2.48414132E-01  3.62574794E-02
 -2.49702322E-02  1.20604674E-02 -5.22926266E-02 -1.27652801E-02  6.90051530E-03
 -2.99197702E-02 -3.35707049E-03  2.00505497E-03 -8.69269123E-03  3.86295204E-03
  4.42488462E-03 -1.55975340E-03 -2.87684206E-04 -1.02049230E-03  1.76883313E-03
  3.98911641E-03  4.53638313E-04 -4.92652770E-03 -9.19860839E-04 -8.10572329E-02
 -5.18749297E-02 -5.14687916E-03  2.12021971E-03 -9.19488261E-03 -2.31099119E-02
  1.59380231E-04 -6.91825985E-04 -5.70286905E-02 -4.02326793E-02 -5.48217805E-03
 -1.69713523E-03  7.35830454E-03 -1.28145380E-02  3.28449197E-04 -1.43009388E-03
 -1.51495660E-01  3.20225969E-01  3.11383014E-02 -8.07393350E-02 -2.43116251E-02
 -1.97377102E-02  8.55575533E-02  9.21252334E-04  1.00982013E-02 -4.37840847E-02
  2.15750015E-03  7.94802545E-03 -1.42501195E-03  2.11218247E-03 -1.83289086E-03
 -7.40045845E-02 -2.51572903E-02  2.89467854E-02  9.35745983E-03  5.80448484E-03
 -8.78411082E-02 -1.96790400E-01 -8.79176922E-02  2.09160910E-02  2.45518135E-01
  6.26691381E-02 -2.71730638E-01 -8.05126992E-02 -2.22594743E-02  9.65090298E-02
 -3.72512040E-03  4.15009979E-03  9.52705901E-04  2.54230478E-03 -9.57303582E-04
  2.81857407E-02 -6.54462308E-02 -1.51830304E-02  1.35108766E-02  1.50952737E-02
 -3.19234238E-01 -1.09695042E-01  9.00571161E-03  5.07509480E-03 -2.20072796E-02
 -5.11047724E-03  1.80969440E-03 -7.84910096E-03  6.42131350E-02  1.34870200E-01
  1.18776660E-01  4.02287552E-02 -6.16428864E-02 -1.93815098E-02  8.40371372E-02
 -2.12926194E-02 -8.50065245E-03  3.68583245E-02 -9.52101776E-03  4.29913058E-04
 -1.86644945E-03 -1.00081221E-02  1.98621994E-03  2.99187625E-03  5.05216395E-03
 -4.58176193E-04 -1.17789810E-02 -1.52320247E-04  5.39444134E-03 -1.74134137E-03
  3.49757105E-05  9.05230077E-02  9.97163851E-02  3.32994310E-03 -2.17662784E-03
  9.43947727E-03  1.44496276E-02  3.89350752E-03 -1.68585271E-02  1.74566554E-01
  1.11760810E-01  7.16215617E-03  2.83169597E-03 -1.22766451E-02  3.33640147E-02
 -3.80085502E-03  1.64842023E-02  9.90636357E-02 -1.89091622E-01 -3.03504285E-02
 -1.96618499E-02  3.13661525E-01 -3.44479405E-02  1.49401632E-01  7.74922501E-02
  6.59075490E-03 -2.85775998E-02 -1.48036682E-02  4.95868608E-03  3.57348603E-03
  1.09672018E-02 -1.14445729E-03  4.26613190E-02 -4.05579211E-02 -1.26975956E-02
 -2.17431949E-02  9.35135270E-03  7.20844709E-02  1.75327209E-01  1.28292968E-01
 -8.05390515E-02  2.21357996E-01  4.26871300E-02 -1.85140766E-01 -6.13385594E-02
 -2.12066166E-02  9.19808142E-02  1.87913977E-03 -2.95827038E-03 -2.48284146E-04
 -2.23403256E-03  6.81840353E-04  4.16780552E-03 -6.04296311E-02  4.62979604E-03
 -2.62297885E-02  1.39358069E-02 -1.35247676E-01 -5.28207142E-02 -1.95798385E-04
  1.76768399E-03 -7.66434117E-03  2.32360967E-03 -2.97092881E-05  1.30429986E-04
 -6.62253398E-02 -1.39233885E-01 -9.61706476E-02  3.02189101E-02 -1.51644917E-01
  3.81878799E-03 -1.65332069E-02 -6.80819281E-02  1.00328445E-03 -4.33327907E-03
 -1.86725898E-02  2.37907284E-03 -1.03087372E-02 -6.08495411E-03  7.07542822E-03
  8.79997643E-04  6.92515569E-03 -1.63222742E-03 -8.92683447E-03  2.11117251E-03
  2.98168152E-03  3.21772489E-03 -4.87324556E-04 -2.96469983E-01 -1.13208852E-01
 -5.19911500E-03  3.85659952E-03 -1.67254832E-02 -4.05695653E-02 -1.14542022E-03
  4.97310449E-03 -1.23963234E-01 -5.73463250E-02  8.23444886E-04 -2.76583269E-03
  1.19932761E-02 -8.43762908E-03  2.96200778E-03 -1.28612436E-02  1.91325716E-02
 -3.20020485E-02 -6.43880009E-02 -6.05852556E-03  2.17817772E-01  4.93520319E-02
 -2.13958761E-01  5.24088475E-02 -8.14417903E-03  3.53241167E-02 -7.37629469E-03
  3.62424623E-04  1.21809791E-03  7.77996415E-03 -8.40374677E-05  1.68808718E-02
  9.99875264E-03 -5.38450531E-03 -7.15688824E-03 -2.30696175E-03 -3.87597727E-02
 -9.58296657E-02 -6.41799511E-02  7.53825741E-02  2.78453490E-01 -3.76780653E-02
  1.63285275E-01 -9.93899321E-02  2.14078915E-02 -9.27757480E-02 -2.50289787E-03
  2.53616347E-03  1.51277249E-03 -1.87404654E-03 -5.85124553E-04  9.39973522E-03
  5.61050358E-02 -3.33651791E-03 -2.58229050E-03 -1.29403990E-02 -3.03085148E-02
  1.67143744E-02 -5.52477734E-03  1.22869158E-03 -5.32503645E-03  1.67672843E-02
 -2.99755949E-03  1.29978264E-02  1.31413201E-01  2.70799444E-01  2.69759523E-01
  3.84085763E-03  1.66836394E-01 -6.53991427E-02  2.83593983E-01  6.92753093E-02
 -3.23894437E-02  1.40453660E-01  1.20159517E-02 -7.52290809E-03  3.26246474E-02
 -1.00348962E-02 -1.09190899E-02  4.92782139E-03 -2.85101829E-03  2.51796261E-03
 -1.00346015E-02 -6.29554222E-03  3.77542338E-03  1.88015402E-03  1.45140057E-03
  5.42686550E-02  8.40654369E-02  5.66371804E-03  3.20659870E-04 -1.38927264E-03
  1.28616638E-02 -5.18626810E-03  2.24779913E-02 -2.49593623E-01 -1.30737014E-01
 -5.22350066E-03 -2.64457068E-03  1.14660139E-02 -2.03998647E-02 -2.18016212E-03
  9.46218966E-03  5.70657567E-06 -1.10492725E-05 -1.24979910E-05 -7.04457796E-06
  1.12331030E-05 -2.04837644E-01 -4.72531009E-02  1.13132287E-05 -5.46606328E-02
 -1.26051747E-02 -1.78673886E-04 -5.04112646E-03 -4.21757606E-04 -1.03300546E-04
 -2.18589862E-02  5.30014967E-04  3.32096001E-03  1.28267878E-03  3.16804598E-04
  1.43904803E-02  2.12500567E-06  5.51023453E-06 -8.22426639E-06 -3.29133410E-06
  1.86278583E-05  4.78383131E-01  1.10329565E-01 -5.08850013E-06 -2.80225135E-01
 -6.46292194E-02 -4.50905216E-03 -2.09261587E-04 -1.06877422E-02 -2.60333904E-03
 -9.08587011E-04  4.25341828E-03  7.70010340E-03  1.00760199E-02  2.45592018E-03
  3.33762125E-02 -6.25395345E-06  2.23766092E-07 -2.40027004E-07 -1.46471892E-02
 -3.37872480E-03  5.91992486E-07 -1.17838623E-02 -2.71655252E-03  1.20900910E-06
  2.70994965E-06  1.28660348E-08  2.81384146E-07 -5.55979129E-06 -2.97283256E-01
 -6.85577276E-02 -3.21646052E-06 -1.80884843E-01 -4.17146304E-02 -6.25480266E-07
 -4.03274734E-02 -9.30073644E-03  7.23550997E-03  3.20719673E-03  1.71505367E-02
  4.17815504E-03  1.39050913E-02  8.04712679E-03  2.21282951E-03  1.90739493E-02