0002_q000_m01_k00_opt_uwb97xd_def2svpd/0002_q000_m01_k00_force_ub3lyp_de
Force     UB3LYP                                                      Gen                 
Number of atoms                            I                6
Info1-9                                    I   N=           9
          13           9           0           0           0         100
           5          18        -502
Full Title                                 C   N=           8
0002_q000_m01_k00_opt_uwb97xd_def2svpd/0002_q000_m01_k00_for
ce_ub3lyp_def2tzvp stable-force     
Route                                      C   N=          15
#p ub3lyp/chkbasis force guess=read geom=check scf=(maxcycle
=900,verytightlineq,xqc) integral=grid=ultrafine symmetry=No
ne density=current pop=(cm5,hlygat,mbs,npa) output=wfx      
Charge                                     I                0
Multiplicity                               I                1
Number of electrons                        I               24
Number of alpha electrons                  I               12
Number of beta electrons                   I               12
Number of basis functions                  I              111
Number of independent functions            I              111
Number of point charges in /Mol/           I                0
Number of translation vectors              I                0
Atomic numbers                             I   N=           6
           6           7           1           8           1           1
Nuclear charges                            R   N=           6
  6.00000000E+00  7.00000000E+00  1.00000000E+00  8.00000000E+00  1.00000000E+00
  1.00000000E+00
Current cartesian coordinates              R   N=          18
  1.76526120E+00 -9.56393551E-02  1.00895621E-01  4.21476231E+00 -1.14759850E-01
  1.83592472E-01  5.12197023E+00  2.73169593E-01 -1.49843980E+00  5.62552287E+00
 -5.41213095E-01  2.03257921E+00  8.69741593E-01  3.19707205E-01 -1.70041362E+00
  7.24411360E-01 -4.93862518E-01  1.82729168E+00
Number of symbols in /Mol/                 I                0
Int Atom Types                             I   N=           6
           0           0           0           0           0           0
Force Field                                I                0
Atom Types                                 C   N=           6
                                                            
            
MM charges                                 R   N=           6
  0.00000000E+00  0.00000000E+00  0.00000000E+00  0.00000000E+00  0.00000000E+00
  0.00000000E+00
Integer atomic weights                     I   N=           6
          12          14           1          16           1           1
Real atomic weights                        R   N=           6
  1.20000000E+01  1.40030740E+01  1.00782504E+00  1.59949146E+01  1.00782504E+00
  1.00782504E+00
Atom fragment info                         I   N=           6
           0           0           0           0           0           0
Atom residue num                           I   N=           6
           0           0           0           0           0           0
Nuclear spins                              I   N=           6
           0           2           1           0           1           1
Nuclear ZEff                               R   N=           6
 -3.60000000E+00 -4.55000000E+00 -1.00000000E+00 -5.60000000E+00 -1.00000000E+00
 -1.00000000E+00
Nuclear ZNuc                               R   N=           6
  6.00000000E+00  7.00000000E+00  1.00000000E+00  8.00000000E+00  1.00000000E+00
  1.00000000E+00
Nuclear QMom                               R   N=           6
  0.00000000E+00  2.04400000E+00  0.00000000E+00  0.00000000E+00  0.00000000E+00
  0.00000000E+00
Nuclear GFac                               R   N=           6
  0.00000000E+00  4.03761000E-01  2.79284600E+00  0.00000000E+00  2.79284600E+00
  2.79284600E+00
MicOpt                                     I   N=           6
          -1          -1          -1          -1          -1          -1
Number of residues                         I                0
Number of secondary structures             I                0
Number of contracted shells                I               45
Number of primitive shells                 I               78
Pure/Cartesian d shells                    I                0
Pure/Cartesian f shells                    I                0
Highest angular momentum                   I                3
Largest degree of contraction              I                6
Shell types                                I   N=          45
           0           0           0           0           0           1
           1           1          -2          -2          -3           0
           0           0           0           0           1           1
           1          -2          -2          -3           0           0
           0           1           0           0           0           0
           0           1           1           1          -2          -2
          -3           0           0           0           1           0
           0           0           1
Number of primitives per shell             I   N=          45
           6           2           1           1           1           4
           1           1           1           1           1           6
           2           1           1           1           4           1
           1           1           1           1           3           1
           1           1           6           2           1           1
           1           4           1           1           1           1
           1           3           1           1           1           3
           1           1           1
Shell to atom map                          I   N=          45
           1           1           1           1           1           1
           1           1           1           1           1           2
           2           2           2           2           2           2
           2           2           2           2           3           3
           3           3           4           4           4           4
           4           4           4           4           4           4
           4           5           5           5           5           6
           6           6           6
Primitive exponents                        R   N=          78
  1.35753497E+04  2.03523337E+03  4.63225624E+02  1.31200196E+02  4.28530159E+01
  1.55841858E+01  6.20671385E+00  2.57648965E+00  5.76963394E-01  2.29728314E-01
  9.51644400E-02  3.46972322E+01  7.95826228E+00  2.37808269E+00  8.14332082E-01
  2.88875473E-01  1.00568237E-01  1.09700000E+00  3.18000000E-01  7.61000000E-01
  1.97308006E+04  2.95789587E+03  6.73221336E+02  1.90682495E+02  6.22954419E+01
  2.26541612E+01  8.97914774E+00  3.68630024E+00  8.46600768E-01  3.36471338E-01
  1.36476537E-01  4.92003805E+01  1.13467905E+01  3.42739724E+00  1.17855251E+00
  4.16422050E-01  1.42608260E-01  1.65400000E+00  4.69000000E-01  1.09300000E+00
  3.40613410E+01  5.12357460E+00  1.16466260E+00  3.27230410E-01  1.03072410E-01
  8.00000000E-01  2.70323826E+04  4.05238714E+03  9.22327227E+02  2.61240710E+02
  8.53546414E+01  3.10350352E+01  1.22608607E+01  4.99870760E+00  1.17031082E+00
  4.64747410E-01  1.85045364E-01  6.32749548E+01  1.46270494E+01  4.45012235E+00
  1.52757996E+00  5.29351179E-01  1.74784213E-01  2.31400000E+00  6.45000000E-01
  1.42800000E+00  3.40613410E+01  5.12357460E+00  1.16466260E+00  3.27230410E-01
  1.03072410E-01  8.00000000E-01  3.40613410E+01  5.12357460E+00  1.16466260E+00
  3.27230410E-01  1.03072410E-01  8.00000000E-01
Contraction coefficients                   R   N=          78
  6.06455036E-04  4.69790889E-03  2.43324776E-02  9.73999683E-02  3.01955843E-01
  6.62336091E-01  6.55953085E-01  3.75856333E-01  1.00000000E+00  1.00000000E+00
  1.00000000E+00  1.13272200E-02  7.61696592E-02  3.01922522E-01  7.27850273E-01
  1.00000000E+00  1.00000000E+00  1.00000000E+00  1.00000000E+00  1.00000000E+00
  5.86264026E-04  4.54288206E-03  2.35584135E-02  9.47091933E-02  2.97197849E-01
  6.69162469E-01  6.45966836E-01  3.87005744E-01  1.00000000E+00  1.00000000E+00
  1.00000000E+00  1.14488251E-02  7.84223380E-02  3.08180947E-01  7.20271964E-01
  1.00000000E+00  1.00000000E+00  1.00000000E+00  1.00000000E+00  1.00000000E+00
  2.54393072E-02  1.90085949E-01  8.52441130E-01  1.00000000E+00  1.00000000E+00
  1.00000000E+00  5.72273352E-04  4.43532335E-03  2.30201077E-02  9.28224907E-02
  2.93785000E-01  6.74016045E-01  6.38399370E-01  3.95345871E-01  1.00000000E+00
  1.00000000E+00  1.00000000E+00  1.20183322E-02  8.30054218E-02  3.19917439E-01
  7.07155429E-01  1.00000000E+00  1.00000000E+00  1.00000000E+00  1.00000000E+00
  1.00000000E+00  2.54393072E-02  1.90085949E-01  8.52441130E-01  1.00000000E+00
  1.00000000E+00  1.00000000E+00  2.54393072E-02  1.90085949E-01  8.52441130E-01
  1.00000000E+00  1.00000000E+00  1.00000000E+00
Coordinates of each shell                  R   N=         135
  1.76526120E+00 -9.56393551E-02  1.00895621E-01  1.76526120E+00 -9.56393551E-02
  1.00895621E-01  1.76526120E+00 -9.56393551E-02  1.00895621E-01  1.76526120E+00
 -9.56393551E-02  1.00895621E-01  1.76526120E+00 -9.56393551E-02  1.00895621E-01
  1.76526120E+00 -9.56393551E-02  1.00895621E-01  1.76526120E+00 -9.56393551E-02
  1.00895621E-01  1.76526120E+00 -9.56393551E-02  1.00895621E-01  1.76526120E+00
 -9.56393551E-02  1.00895621E-01  1.76526120E+00 -9.56393551E-02  1.00895621E-01
  1.76526120E+00 -9.56393551E-02  1.00895621E-01  4.21476231E+00 -1.14759850E-01
  1.83592472E-01  4.21476231E+00 -1.14759850E-01  1.83592472E-01  4.21476231E+00
 -1.14759850E-01  1.83592472E-01  4.21476231E+00 -1.14759850E-01  1.83592472E-01
  4.21476231E+00 -1.14759850E-01  1.83592472E-01  4.21476231E+00 -1.14759850E-01
  1.83592472E-01  4.21476231E+00 -1.14759850E-01  1.83592472E-01  4.21476231E+00
 -1.14759850E-01  1.83592472E-01  4.21476231E+00 -1.14759850E-01  1.83592472E-01
  4.21476231E+00 -1.14759850E-01  1.83592472E-01  4.21476231E+00 -1.14759850E-01
  1.83592472E-01  5.12197023E+00  2.73169593E-01 -1.49843980E+00  5.12197023E+00
  2.73169593E-01 -1.49843980E+00  5.12197023E+00  2.73169593E-01 -1.49843980E+00
  5.12197023E+00  2.73169593E-01 -1.49843980E+00  5.62552287E+00 -5.41213095E-01
  2.03257921E+00  5.62552287E+00 -5.41213095E-01  2.03257921E+00  5.62552287E+00
 -5.41213095E-01  2.03257921E+00  5.62552287E+00 -5.41213095E-01  2.03257921E+00
  5.62552287E+00 -5.41213095E-01  2.03257921E+00  5.62552287E+00 -5.41213095E-01
  2.03257921E+00  5.62552287E+00 -5.41213095E-01  2.03257921E+00  5.62552287E+00
 -5.41213095E-01  2.03257921E+00  5.62552287E+00 -5.41213095E-01  2.03257921E+00
  5.62552287E+00 -5.41213095E-01  2.03257921E+00  5.62552287E+00 -5.41213095E-01
  2.03257921E+00  8.69741593E-01  3.19707205E-01 -1.70041362E+00  8.69741593E-01
  3.19707205E-01 -1.70041362E+00  8.69741593E-01  3.19707205E-01 -1.70041362E+00
  8.69741593E-01  3.19707205E-01 -1.70041362E+00  7.24411360E-01 -4.93862518E-01
  1.82729168E+00  7.24411360E-01 -4.93862518E-01  1.82729168E+00  7.24411360E-01
 -4.93862518E-01  1.82729168E+00  7.24411360E-01 -4.93862518E-01  1.82729168E+00
Num ILSW                                   I              100
ILSW                                       I   N=         100
           1           0           0           0           2           0
           0           0           0           0         402          -1
           5           0           0           0           2           0
           0           0           0           0           1           0
           1           1           0           0           0           0
           0           0      100000           0          -1           0
           0           0           0           0           0           0
           0           0           0           1           0           0
           0 -2000000000           1           0           0           0
           0           0           4          52           0           0
           0           0           5           0           0           0
           0           0           0           6           0           1
           0           0           0           0           0           0
           0           0           0           0           0           0
           0           0           0           0           0           0
           0           0           0           0           0           0
           0           0           0           0
Num RLSW                                   I               52
RLSW                                       R   N=          52
  8.00000000E-01  7.20000000E-01  1.00000000E+00  8.10000000E-01  2.00000000E-01
  0.00000000E+00  0.00000000E+00  1.00000000E+00  0.00000000E+00  0.00000000E+00
  0.00000000E+00  0.00000000E+00  1.00000000E+00  0.00000000E+00  0.00000000E+00
  0.00000000E+00  0.00000000E+00  1.00000000E+00  0.00000000E+00  0.00000000E+00
  0.00000000E+00  0.00000000E+00  1.00000000E+00  0.00000000E+00  0.00000000E+00
  0.00000000E+00  0.00000000E+00  1.00000000E+00  0.00000000E+00  0.00000000E+00
  0.00000000E+00  0.00000000E+00  1.00000000E+00  0.00000000E+00  0.00000000E+00
  0.00000000E+00  0.00000000E+00  0.00000000E+00  1.00000000E+00  1.00000000E+00
  0.00000000E+00  1.00000000E+00  0.00000000E+00  0.00000000E+00  0.00000000E+00
  0.00000000E+00  0.00000000E+00  0.00000000E+00  0.00000000E+00  0.00000000E+00
  0.00000000E+00  0.00000000E+00
MxBond                                     I                3
NBond                                      I   N=           6
           3           3           1           1           1           1
IBond                                      I   N=          18
           2           5           6           1           3           4
           2           0           0           2           0           0
           1           0           0           1           0           0
RBond                                      R   N=          18
  2.00000000E+00  1.00000000E+00  1.00000000E+00  2.00000000E+00  1.00000000E+00
  2.00000000E+00  1.00000000E+00  0.00000000E+00  0.00000000E+00  2.00000000E+00
  0.00000000E+00  0.00000000E+00  1.00000000E+00  0.00000000E+00  0.00000000E+00
  1.00000000E+00  0.00000000E+00  0.00000000E+00
Virial Ratio                               R      2.004399466797279E+00
SCF Energy                                 R     -1.698752092001041E+02
Total Energy                               R     -1.698752092001041E+02
S**2                                       R     -5.329070518200751E-15
S**2 after annihilation                    R     -7.993605777300978E-14
RMS Force                                  R      3.343790340641677E-03
RMS Density                                R      1.704148811523789E-09
Job Status                                 I                1
Nuclear derivative order                   I                1
External E-field                           R   N=          35
  0.00000000E+00  0.00000000E+00  0.00000000E+00  0.00000000E+00  0.00000000E+00
  0.00000000E+00  0.00000000E+00  0.00000000E+00  0.00000000E+00  0.00000000E+00
  0.00000000E+00  0.00000000E+00  0.00000000E+00  0.00000000E+00  0.00000000E+00
  0.00000000E+00  0.00000000E+00  0.00000000E+00  0.00000000E+00  0.00000000E+00
  0.00000000E+00  0.00000000E+00  0.00000000E+00  0.00000000E+00  0.00000000E+00
  0.00000000E+00  0.00000000E+00  0.00000000E+00  0.00000000E+00  0.00000000E+00
  0.00000000E+00  0.00000000E+00  0.00000000E+00  0.00000000E+00  0.00000000E+00
IOpCl                                      I                1
IROHF                                      I                0
Alpha Orbital Energies                     R   N=         111
 -1.91134020E+01 -1.44685220E+01 -1.02218385E+01 -1.12481213E+00 -8.71053105E-01
 -6.70601589E-01 -5.57445420E-01 -4.92638299E-01 -4.64182556E-01 -4.29653504E-01
 -2.68246702E-01 -2.44472670E-01 -4.30613784E-02  1.36062211E-02  6.82530847E-02
  1.00223320E-01  1.42434054E-01  1.61982951E-01  2.11362980E-01  2.12947672E-01
  2.98946449E-01  3.45563155E-01  3.64540234E-01  4.10308947E-01  4.15464217E-01
  4.49294839E-01  4.62784927E-01  4.87950844E-01  5.10787889E-01  5.29074724E-01
  5.56898539E-01  6.08126273E-01  6.78957072E-01  7.49326102E-01  7.61173941E-01
  9.14425946E-01  9.77018888E-01  1.02372679E+00  1.03602788E+00  1.20971956E+00
  1.30139336E+00  1.34416415E+00  1.41503394E+00  1.41661565E+00  1.51390159E+00
  1.53414262E+00  1.55303986E+00  1.57386972E+00  1.71504109E+00  1.74788648E+00
  1.75597136E+00  1.80258506E+00  1.82431277E+00  1.92746769E+00  2.01397240E+00
  2.04143783E+00  2.13816459E+00  2.16211866E+00  2.18289820E+00  2.25990380E+00
  2.38766320E+00  2.47393810E+00  2.50341782E+00  2.58932075E+00  2.62904812E+00
  2.71719207E+00  2.77824160E+00  2.81866955E+00  2.87740926E+00  2.90988308E+00
  2.96239773E+00  2.99017291E+00  3.02378446E+00  3.10972728E+00  3.20791642E+00
  3.27812304E+00  3.29253013E+00  3.43279046E+00  3.56350798E+00  3.64498709E+00
  3.76586690E+00  3.91943030E+00  4.08741091E+00  4.09715890E+00  4.21442881E+00
  4.40413136E+00  4.57770744E+00  4.67528464E+00  4.74463527E+00  4.75516818E+00
  4.85579322E+00  4.92357853E+00  5.03779184E+00  5.14711845E+00  5.19774472E+00
  5.26918763E+00  5.36821418E+00  5.39665061E+00  5.58520014E+00  5.77311147E+00
  6.25473136E+00  6.30460138E+00  6.33980126E+00  6.51275877E+00  6.84620863E+00
  6.98858878E+00  7.08434740E+00  7.36367949E+00  2.23560313E+01  3.19983160E+01
  4.38589192E+01
Beta Orbital Energies                      R   N=         111
 -1.91134020E+01 -1.44685220E+01 -1.02218385E+01 -1.12481213E+00 -8.71053105E-01
 -6.70601589E-01 -5.57445420E-01 -4.92638299E-01 -4.64182556E-01 -4.29653504E-01
 -2.68246702E-01 -2.44472670E-01 -4.30613784E-02  1.36062211E-02  6.82530847E-02
  1.00223320E-01  1.42434054E-01  1.61982951E-01  2.11362980E-01  2.12947672E-01
  2.98946449E-01  3.45563155E-01  3.64540234E-01  4.10308947E-01  4.15464217E-01
  4.49294839E-01  4.62784927E-01  4.87950844E-01  5.10787889E-01  5.29074724E-01
  5.56898539E-01  6.08126273E-01  6.78957072E-01  7.49326102E-01  7.61173941E-01
  9.14425946E-01  9.77018888E-01  1.02372679E+00  1.03602788E+00  1.20971956E+00
  1.30139336E+00  1.34416415E+00  1.41503394E+00  1.41661565E+00  1.51390159E+00
  1.53414262E+00  1.55303986E+00  1.57386972E+00  1.71504109E+00  1.74788648E+00
  1.75597136E+00  1.80258506E+00  1.82431277E+00  1.92746769E+00  2.01397240E+00
  2.04143783E+00  2.13816459E+00  2.16211866E+00  2.18289820E+00  2.25990380E+00
  2.38766320E+00  2.47393810E+00  2.50341782E+00  2.58932075E+00  2.62904812E+00
  2.71719207E+00  2.77824160E+00  2.81866955E+00  2.87740926E+00  2.90988308E+00
  2.96239773E+00  2.99017291E+00  3.02378446E+00  3.10972728E+00  3.20791642E+00
  3.27812304E+00  3.29253013E+00  3.43279046E+00  3.56350798E+00  3.64498709E+00
  3.76586690E+00  3.91943030E+00  4.08741091E+00  4.09715890E+00  4.21442881E+00
  4.40413136E+00  4.57770744E+00  4.67528464E+00  4.74463527E+00  4.75516818E+00
  4.85579322E+00  4.92357853E+00  5.03779184E+00  5.14711845E+00  5.19774472E+00
  5.26918763E+00  5.36821418E+00  5.39665061E+00  5.58520014E+00  5.77311147E+00
  6.25473136E+00  6.30460138E+00  6.33980126E+00  6.51275877E+00  6.84620863E+00
  6.98858878E+00  7.08434740E+00  7.36367949E+00  2.23560313E+01  3.19983160E+01
  4.38589192E+01
Alpha MO coefficients                      R   N=       12321
  1.74990278E-05 -8.85689747E-05  1.73062355E-03 -4.93391671E-03  6.21896021E-04
  2.26825682E-04 -7.68379532E-06  3.32764724E-05 -3.19870799E-04 -2.73670429E-04
  1.18703415E-03 -9.78672424E-04 -6.09678308E-04  2.64352543E-03  5.26076221E-05
  5.77549324E-05 -2.56109435E-05  1.40601040E-05 -1.33226333E-05 -1.15484483E-03
  1.07680977E-03  6.86980961E-04 -8.20334389E-04 -2.48336863E-04 -4.84783901E-05
  1.28154372E-05 -4.99760568E-06  8.47236652E-05  7.65716244E-05 -2.73241174E-04
 -2.43065081E-05  6.82597823E-06 -1.46788758E-05 -3.63263686E-03  1.50618172E-02
 -7.49118017E-03 -1.79819738E-04  4.62938836E-05 -2.00705765E-04  6.21372954E-03
 -1.84271021E-03  7.98950100E-03 -3.79176119E-03  1.60449355E-03 -6.95668480E-03
  1.02347528E-04  2.05108068E-04 -8.77120109E-05  1.82797717E-04 -4.73121257E-05
  2.77095782E-03  5.06696091E-03 -1.54416055E-03  1.53948654E-03 -1.16864272E-03
  8.16984124E-05  5.79178349E-04 -2.16902573E-04  3.76670435E-04 -2.48948249E-04
  8.67035172E-05 -1.15020248E-04  3.84601873E-04 -1.63707583E-03 -4.67790858E-05
  4.94730927E-04  3.61597839E-05 -1.56787378E-04  4.35096237E-01  6.39512149E-01
  3.76796345E-02 -3.43103992E-02  1.67083613E-02 -1.70986806E-03  5.05477235E-04
 -2.19160768E-03  6.86104996E-03 -2.05116767E-03  8.89331606E-03 -2.60527876E-03
  6.99906307E-04 -3.03463927E-03  1.80312713E-04  3.46045270E-04 -9.78369914E-05
  8.93150405E-05 -7.98119320E-05 -1.70550236E-03 -3.35238459E-03  9.91336622E-04
 -1.11549657E-03  7.73200215E-04 -1.22276316E-05  5.29996574E-04 -1.47121298E-04
  3.57484379E-04 -2.30327699E-04  8.77864184E-05 -1.07090751E-04  5.68033273E-05
  1.66420491E-03  4.50446579E-04  4.15836038E-04 -3.48019574E-05  1.50988919E-04
  9.47009614E-05  1.71103640E-03 -2.42012153E-03  2.60873230E-04  5.05427336E-05
 -2.19028394E-04  4.20835352E-06  1.70880226E-05 -1.91963981E-04  6.87345939E-03
 -5.74450473E-03  3.11771312E-04  4.59783852E-06 -1.99599112E-05  5.65304970E-03
 -1.59855101E-05  6.87960512E-05 -1.81565662E-03  4.10296504E-05 -1.77562105E-04
  2.74269793E-05 -5.26755659E-05 -8.29476878E-06 -1.34439323E-05  1.21518159E-05
 -1.00556209E-03 -1.58410322E-05  3.53933677E-05  1.59639026E-03  3.56629368E-06
  9.91277261E-05  3.93076104E-04 -9.24254313E-06 -1.28194312E-04 -8.65157430E-05
 -2.17435701E-04  3.62306121E-05  4.48340758E-01  6.26824851E-01  3.62681664E-02
 -2.70640992E-02  1.32134954E-02 -3.92127037E-04 -6.32648703E-05  2.74465528E-04
  5.41647109E-03 -3.45303005E-04  1.49673938E-03 -1.77885923E-04  1.81565520E-04
 -7.87198051E-04  1.33102062E-04  4.12977597E-04 -2.00709684E-04  5.93399124E-04
 -9.52641810E-05  1.03947598E-03 -3.34344307E-05 -7.10870834E-05 -1.50858975E-03
  7.76183781E-06 -2.25242537E-05  3.24066770E-04 -5.63256271E-05  1.63765751E-04
 -1.56611057E-04  1.06563147E-04 -4.86727420E-05  5.17786363E-05  3.28681980E-04
 -2.29734514E-03  1.95130847E-04  8.07096484E-05 -3.49947832E-04 -2.36140251E-05
 -8.91567406E-05  9.04126406E-04 -1.04099427E-03 -1.29508762E-03 -2.56378670E-04
  6.76547762E-05 -2.93332183E-04  1.02277090E-03 -2.36538510E-04  1.02555787E-03
 -1.25294424E-04 -2.31384774E-05  1.00331089E-04  1.85820196E-05  8.37574409E-05
 -1.00218756E-05  8.95328419E-06 -1.93174018E-05 -4.65545915E-04 -1.24680216E-03
  2.92063373E-04 -3.92584532E-04  2.87562433E-04 -8.88567599E-06  6.40562259E-04
 -1.69293632E-04  4.03541640E-04 -2.72745364E-04  8.72258870E-05 -1.21000830E-04
  2.30351420E-04 -1.16365874E-04  7.49827913E-04 -1.91963997E-04 -1.24116454E-05
  5.38541380E-05  1.80134253E-04  1.03399173E-04  6.88457730E-04 -1.45135568E-04
  1.83238558E-05 -7.94213781E-05  4.66753184E-01  6.08461522E-01  3.53097961E-02
 -3.96760279E-03  1.07894009E-02  1.72937742E-03  1.79327407E-06 -8.23741769E-06
  9.62800432E-03 -1.22606297E-04  5.30130247E-04 -6.56324737E-04 -3.05609381E-04
  1.32476904E-03 -5.60595261E-06  5.84654803E-05 -4.59682004E-04  1.89694140E-03
 -1.35010086E-05 -1.67127381E-03  4.98203591E-04 -2.93129525E-04  4.09804519E-03
 -1.15022654E-04 -1.95243588E-04 -2.02248657E-03  4.49374826E-05  1.90671589E-04
  4.77620828E-04  1.00998838E-03 -5.28607838E-05 -8.41367884E-05 -1.58851893E-04
  2.60502691E-03 -1.22554871E-02 -4.92329764E-03 -8.81341046E-04  2.77001345E-05
 -1.20045394E-04  1.19894040E-02 -3.86289154E-04  1.67397769E-03 -8.03402757E-05
  4.27534653E-04 -1.85361912E-03 -6.07215392E-06  1.56854508E-05  4.30465550E-05
 -1.66205798E-04 -3.60840634E-06  3.80695192E-03  4.99948979E-04 -5.88330235E-04
 -4.17857199E-03 -1.15152690E-04 -1.20236866E-05 -5.28694645E-04 -4.79461112E-05
  1.28681879E-04 -6.38343215E-05  8.96488729E-04 -3.84220794E-05 -3.10660160E-04
 -5.26207823E-04 -2.67156813E-04  5.32027081E-04 -1.72475150E-05  7.47493780E-05
  5.47726871E-06 -6.33432806E-05  9.12180250E-04 -3.36096260E-03  2.76151835E-03
 -1.29881317E-04  1.70387115E-05 -7.38715979E-05  1.59652859E-03 -2.63616349E-04
  1.14292854E-03 -3.00482906E-04  2.25246260E-04 -9.76713501E-04 -5.29946490E-05
  6.16170425E-05  1.91760975E-05  1.30579301E-05 -1.42118679E-05  2.12438884E-04
 -7.70175289E-04 -6.65794298E-06 -3.40551206E-04  1.77639741E-04 -4.91206998E-05
  6.88152252E-05  7.09607864E-06  5.77164705E-05 -2.67073797E-05  6.72982667E-07
 -1.62020656E-05 -7.08442408E-04 -1.05667891E-03 -1.70630315E-03 -8.38410799E-04
  4.57524336E-04 -1.98420643E-03 -6.62874817E-04 -1.10461797E-03 -3.31224035E-03
 -1.03147077E-03 -4.25870419E-04  1.84629908E-03 -2.17320803E-02 -4.50136543E-02
  6.99878726E-02  4.06043937E-02  9.85645850E-03  5.20300674E-02 -1.47459843E-03
  6.38854106E-03  2.16052327E-02 -1.02848376E-03  4.45739276E-03  2.66271928E-03
 -3.01184793E-04  1.30541515E-03 -2.64129368E-03  1.29768904E-03 -3.65288400E-04
  6.07439282E-03 -2.99501048E-04 -2.41206643E-03  2.18707455E-03  2.40931618E-04
  3.18832603E-03 -5.04599906E-04 -3.09153587E-04 -6.01836560E-04 -2.79581799E-05
  5.30523506E-04 -2.84793821E-04  1.73153857E-03 -1.52309150E-04 -7.67559859E-02
 -1.72657703E-01  2.70597160E-01  2.72636093E-01  3.48442801E-02  4.24233286E-02
 -1.67157125E-02  7.24776048E-02  1.60643425E-02 -7.66390317E-03  3.32306954E-02
  1.52186267E-03  5.49342457E-04 -2.38204379E-03  4.42973410E-03  7.46646543E-03
 -3.38186622E-03  6.21057272E-03 -1.72219388E-03  1.92768512E-03  4.38588959E-03
 -2.82221145E-03  8.24678922E-03 -1.01179580E-03 -2.89655872E-04  5.89403623E-03
 -7.03286659E-04  2.05747599E-03 -2.08007880E-03 -6.37125568E-04 -6.11219062E-04
  4.00670038E-02  3.01977467E-02 -4.86111457E-04 -2.25255776E-03 -1.78404294E-03
  7.73543740E-03 -6.78719817E-02 -1.59009172E-01  2.27467365E-01  2.96542127E-01
  9.25577819E-02 -6.91943202E-02  2.05976887E-02 -8.93057150E-02 -5.72418959E-02
  1.68864314E-02 -7.32147598E-02 -7.33951453E-03  2.23464597E-03 -9.68861792E-03
  3.29677508E-03  6.77567078E-03 -1.92000109E-03  2.17155676E-03 -1.56275359E-03
  8.77676779E-03  1.83443980E-02 -5.13541576E-03  5.87933747E-03 -4.23100575E-03
 -4.78651607E-05 -3.85427604E-03  1.11450369E-03 -2.49622536E-03  1.66698139E-03
 -6.11496643E-04  7.50870356E-04  6.09422890E-03  7.36072046E-03 -1.01802532E-03
  1.73078552E-03 -3.04758592E-04  1.32170846E-03  7.52050143E-03  8.63683379E-03
 -2.10294276E-03  1.98872164E-03  3.13331591E-04 -1.35826986E-03  6.19455342E-02
  1.30820040E-01 -2.09953882E-01 -1.71392068E-01 -2.34837290E-02 -1.08493039E-01
 -3.81401964E-03  1.65536697E-02 -4.83340435E-02 -2.24433003E-03  9.73979559E-03
 -4.04781239E-03 -1.63489541E-03  7.08976423E-03  4.97458037E-03  1.48961401E-03
  1.32253412E-03 -1.40461781E-02 -3.43111203E-04  2.44870375E-03  3.75803453E-03
  1.00763026E-03 -8.37858162E-03 -8.66519196E-04 -6.26906592E-05  5.39053895E-03
 -1.60789465E-04  4.65584035E-04 -8.83380670E-04 -3.99816873E-03 -1.38094301E-04
  4.79309887E-02  1.08273334E-01 -1.65428038E-01 -2.19937291E-01 -5.92596589E-02
  1.81397588E-01 -3.07657337E-02  1.33384035E-01  1.13725268E-01 -1.82753259E-02
  7.92315757E-02  2.56213483E-02 -3.94417326E-03  1.71008865E-02  4.76720051E-03
  7.18121925E-03 -8.88446963E-04 -4.60993148E-03 -1.65602412E-03  1.25023287E-03
 -1.43934833E-03  1.42447442E-03 -8.01296936E-03  3.32214422E-04  2.27842430E-04
 -1.30193599E-03 -8.51263224E-04  1.61827038E-03 -2.57170106E-04  2.54262647E-03
 -4.91420544E-04 -5.54464333E-02 -5.47760332E-02 -3.31583817E-03  9.76456832E-03
  1.46744802E-03 -6.36303434E-03 -5.77022903E-02 -1.36048655E-01  1.98463796E-01
  2.78964869E-01  1.22891413E-01 -1.51444212E-02  7.81876371E-03 -3.39011446E-02
 -2.17781878E-02  9.03987630E-03 -3.91951839E-02 -3.88395549E-03  1.51461627E-03
 -6.56767443E-03  1.73642008E-03  2.37619827E-03 -7.86369858E-04  2.20591084E-04
 -5.48035078E-04  6.22048090E-03  1.00224248E-02 -3.21787207E-03  2.43555558E-03
 -2.31156214E-03 -2.62552332E-04 -2.30963026E-03  6.96380918E-04 -1.20891392E-03
  9.46433887E-04 -1.90553206E-04  3.69163062E-04 -3.70617076E-02 -3.79456510E-02
  1.12746532E-03 -5.68036869E-03  1.03447771E-03 -4.48609351E-03 -2.64436034E-02
 -2.51421268E-02 -5.12392822E-03 -3.68967038E-03 -6.89704023E-04  2.99040679E-03
 -5.94811887E-02 -1.26765993E-01  2.03081543E-01  2.35043909E-01  6.19198373E-02
 -2.17978047E-02 -1.36663863E-02  5.92378233E-02 -5.19127920E-03 -8.64732212E-03
  3.74809046E-02 -5.19921202E-03 -2.06582580E-03  8.95391684E-03  3.39986733E-03
  4.37810825E-03 -2.67436583E-03  5.08964444E-03 -1.00971438E-03  5.77501122E-05
  7.67345678E-03 -1.80921783E-03  7.32666424E-03 -1.76979488E-03 -1.89401551E-03
 -4.38515788E-03 -6.00063824E-05  2.99391544E-03  1.10973184E-03  1.94096055E-03
 -8.55774321E-04  3.21571668E-02  7.33864588E-02 -1.17347661E-01 -1.70240386E-01
 -7.67741800E-02 -1.81110477E-01 -4.49740544E-02  1.95006558E-01 -1.25930032E-01
 -3.17948353E-02  1.37860368E-01 -2.66751000E-02 -9.37882266E-03  4.06663030E-02
 -3.93630603E-03  4.21316932E-03  1.33883900E-03  1.32178440E-03 -9.71749754E-04
 -2.38838969E-03  1.72987550E-04  1.04887469E-03 -1.68972122E-04 -3.98081266E-05
  1.26497542E-03 -1.60026345E-03 -1.27829955E-03  1.03849533E-03  1.09243387E-03
 -1.59601154E-03 -3.41079586E-04 -1.39656706E-01 -1.69107864E-01 -2.98822974E-02
  9.43377319E-03  4.87388971E-03 -2.11328259E-02 -2.29077891E-02 -5.42716878E-02
  8.11434710E-02  1.16737236E-01  7.39340893E-02 -3.94085163E-02 -1.48104324E-02
  6.42171825E-02 -3.73990971E-02 -1.02963522E-02  4.46447806E-02 -1.15511380E-02
 -3.89530387E-03  1.68898922E-02 -3.46412923E-03  3.46996489E-04  1.05834306E-03