0002_q000_m01_k00_opt_uwb97xd_def2svpd/0002_q000_m01_k00_force_uhf_def2s
Force     UHF                                                         Gen                 
Number of atoms                            I                6
Info1-9                                    I   N=           9
          13           9           0           0           0         100
           5           1           2
Full Title                                 C   N=           8
0002_q000_m01_k00_opt_uwb97xd_def2svpd/0002_q000_m01_k00_for
ce_uhf_def2svp stable-force         
Route                                      C   N=          15
#p uhf/chkbasis force guess=read geom=check scf=(maxcycle=90
0,verytightlineq,xqc) integral=grid=ultrafine symmetry=None 
density=current pop=(cm5,hlygat,mbs,npa) output=wfx         
Charge                                     I                0
Multiplicity                               I                1
Number of electrons                        I               24
Number of alpha electrons                  I               12
Number of beta electrons                   I               12
Number of basis functions                  I               57
Number of independent functions            I               57
Number of point charges in /Mol/           I                0
Number of translation vectors              I                0
Atomic numbers                             I   N=           6
           6           7           1           8           1           1
Nuclear charges                            R   N=           6
  6.00000000E+00  7.00000000E+00  1.00000000E+00  8.00000000E+00  1.00000000E+00
  1.00000000E+00
Current cartesian coordinates              R   N=          18
  1.76526120E+00 -9.56393551E-02  1.00895621E-01  4.21476231E+00 -1.14759850E-01
  1.83592472E-01  5.12197023E+00  2.73169593E-01 -1.49843980E+00  5.62552287E+00
 -5.41213095E-01  2.03257921E+00  8.69741593E-01  3.19707205E-01 -1.70041362E+00
  7.24411360E-01 -4.93862518E-01  1.82729168E+00
Number of symbols in /Mol/                 I                0
Int Atom Types                             I   N=           6
           0           0           0           0           0           0
Force Field                                I                0
Atom Types                                 C   N=           6
                                                            
            
MM charges                                 R   N=           6
  0.00000000E+00  0.00000000E+00  0.00000000E+00  0.00000000E+00  0.00000000E+00
  0.00000000E+00
Integer atomic weights                     I   N=           6
          12          14           1          16           1           1
Real atomic weights                        R   N=           6
  1.20000000E+01  1.40030740E+01  1.00782504E+00  1.59949146E+01  1.00782504E+00
  1.00782504E+00
Atom fragment info                         I   N=           6
           0           0           0           0           0           0
Atom residue num                           I   N=           6
           0           0           0           0           0           0
Nuclear spins                              I   N=           6
           0           2           1           0           1           1
Nuclear ZEff                               R   N=           6
 -3.60000000E+00 -4.55000000E+00 -1.00000000E+00 -5.60000000E+00 -1.00000000E+00
 -1.00000000E+00
Nuclear ZNuc                               R   N=           6
  6.00000000E+00  7.00000000E+00  1.00000000E+00  8.00000000E+00  1.00000000E+00
  1.00000000E+00
Nuclear QMom                               R   N=           6
  0.00000000E+00  2.04400000E+00  0.00000000E+00  0.00000000E+00  0.00000000E+00
  0.00000000E+00
Nuclear GFac                               R   N=           6
  0.00000000E+00  4.03761000E-01  2.79284600E+00  0.00000000E+00  2.79284600E+00
  2.79284600E+00
MicOpt                                     I   N=           6
          -1          -1          -1          -1          -1          -1
Number of residues                         I                0
Number of secondary structures             I                0
Number of contracted shells                I               27
Number of primitive shells                 I               51
Pure/Cartesian d shells                    I                0
Pure/Cartesian f shells                    I                0
Highest angular momentum                   I                2
Largest degree of contraction              I                5
Shell types                                I   N=          27
           0           0           0           1           1          -2
           0           0           0           1           1          -2
           0           0           1           0           0           0
           1           1          -2           0           0           1
           0           0           1
Number of primitives per shell             I   N=          27
           5           1           1           3           1           1
           5           1           1           3           1           1
           3           1           1           5           1           1
           3           1           1           3           1           1
           3           1           1
Shell to atom map                          I   N=          27
           1           1           1           1           1           1
           2           2           2           2           2           2
           3           3           3           4           4           4
           4           4           4           5           5           5
           6           6           6
Primitive exponents                        R   N=          51
  1.23840169E+03  1.86290050E+02  4.22511763E+01  1.16765579E+01  3.59305065E+00
  4.02451474E-01  1.30901827E-01  9.46809706E+00  2.01035451E+00  5.47710047E-01
  1.52686138E-01  8.00000000E-01  1.71284159E+03  2.57648127E+02  5.84582459E+01
  1.61983679E+01  5.00526008E+00  5.87318566E-01  1.87645923E-01  1.35714702E+01
  2.92573729E+00  7.99277508E-01  2.19543480E-01  1.00000000E+00  1.30107010E+01
  1.96225720E+00  4.44537960E-01  1.21949620E-01  8.00000000E-01  2.26617678E+03
  3.40870102E+02  7.73631352E+01  2.14796449E+01  6.65894331E+00  8.09759757E-01
  2.55307722E-01  1.77215043E+01  3.86355054E+00  1.04809209E+00  2.76415444E-01
  1.20000000E+00  1.30107010E+01  1.96225720E+00  4.44537960E-01  1.21949620E-01
  8.00000000E-01  1.30107010E+01  1.96225720E+00  4.44537960E-01  1.21949620E-01
  8.00000000E-01
Contraction coefficients                   R   N=          51
  5.51736505E-03  4.10888286E-02  1.82253821E-01  4.68284594E-01  4.45758173E-01
  1.00000000E+00  1.00000000E+00  5.68883320E-02  3.12940593E-01  7.60650165E-01
  1.00000000E+00  1.00000000E+00 -5.44779958E-03 -4.06271746E-02 -1.81119623E-01
 -4.68439756E-01 -4.46168463E-01  1.00000000E+00  1.00000000E+00 -5.88481170E-02
 -3.20246248E-01 -7.53282265E-01  1.00000000E+00  1.00000000E+00  3.34854848E-02
  2.34721871E-01  8.13770285E-01  1.00000000E+00  1.00000000E+00 -5.38935039E-03
 -4.02347214E-02 -1.80081842E-01 -4.68288577E-01 -4.46926172E-01  1.00000000E+00
  1.00000000E+00  6.26302488E-02  3.33311385E-01  7.41486383E-01  1.00000000E+00
  1.00000000E+00  3.34854848E-02  2.34721871E-01  8.13770285E-01  1.00000000E+00
  1.00000000E+00  3.34854848E-02  2.34721871E-01  8.13770285E-01  1.00000000E+00
  1.00000000E+00
Coordinates of each shell                  R   N=          81
  1.76526120E+00 -9.56393551E-02  1.00895621E-01  1.76526120E+00 -9.56393551E-02
  1.00895621E-01  1.76526120E+00 -9.56393551E-02  1.00895621E-01  1.76526120E+00
 -9.56393551E-02  1.00895621E-01  1.76526120E+00 -9.56393551E-02  1.00895621E-01
  1.76526120E+00 -9.56393551E-02  1.00895621E-01  4.21476231E+00 -1.14759850E-01
  1.83592472E-01  4.21476231E+00 -1.14759850E-01  1.83592472E-01  4.21476231E+00
 -1.14759850E-01  1.83592472E-01  4.21476231E+00 -1.14759850E-01  1.83592472E-01
  4.21476231E+00 -1.14759850E-01  1.83592472E-01  4.21476231E+00 -1.14759850E-01
  1.83592472E-01  5.12197023E+00  2.73169593E-01 -1.49843980E+00  5.12197023E+00
  2.73169593E-01 -1.49843980E+00  5.12197023E+00  2.73169593E-01 -1.49843980E+00
  5.62552287E+00 -5.41213095E-01  2.03257921E+00  5.62552287E+00 -5.41213095E-01
  2.03257921E+00  5.62552287E+00 -5.41213095E-01  2.03257921E+00  5.62552287E+00
 -5.41213095E-01  2.03257921E+00  5.62552287E+00 -5.41213095E-01  2.03257921E+00
  5.62552287E+00 -5.41213095E-01  2.03257921E+00  8.69741593E-01  3.19707205E-01
 -1.70041362E+00  8.69741593E-01  3.19707205E-01 -1.70041362E+00  8.69741593E-01
  3.19707205E-01 -1.70041362E+00  7.24411360E-01 -4.93862518E-01  1.82729168E+00
  7.24411360E-01 -4.93862518E-01  1.82729168E+00  7.24411360E-01 -4.93862518E-01
  1.82729168E+00
Num ILSW                                   I              100
ILSW                                       I   N=         100
           1           0           0           0           2           0
           0           0           0           0           0          -1
           5           0           0           0           2           0
           0           0           0           0           1           0
           1           1           0           0           0           0
           0           0      100000           0          -1           0
           0           0           0           0           0           0
           0           0           0           1           0           0
           0 -2000000000           1           0           0           0
           0           0           4          52           0           0
           0           0           0           0           0           0
           0           0           0           6           0           1
           0           0           0           0           0           0
           0           0           0           0           0           0
           0           0           0           0           0           0
           0           0           0           0           0           0
           0           0           0           0
Num RLSW                                   I               52
RLSW                                       R   N=          52
  1.00000000E+00  1.00000000E+00  1.00000000E+00  1.00000000E+00  1.00000000E+00
  0.00000000E+00  0.00000000E+00  1.00000000E+00  0.00000000E+00  0.00000000E+00
  0.00000000E+00  0.00000000E+00  1.00000000E+00  0.00000000E+00  0.00000000E+00
  0.00000000E+00  0.00000000E+00  1.00000000E+00  0.00000000E+00  0.00000000E+00
  0.00000000E+00  0.00000000E+00  1.00000000E+00  0.00000000E+00  0.00000000E+00
  0.00000000E+00  0.00000000E+00  1.00000000E+00  0.00000000E+00  0.00000000E+00
  0.00000000E+00  0.00000000E+00  1.00000000E+00  0.00000000E+00  0.00000000E+00
  0.00000000E+00  0.00000000E+00  0.00000000E+00  1.00000000E+00  1.00000000E+00
  0.00000000E+00  1.00000000E+00  0.00000000E+00  0.00000000E+00  0.00000000E+00
  0.00000000E+00  0.00000000E+00  0.00000000E+00  0.00000000E+00  0.00000000E+00
  0.00000000E+00  0.00000000E+00
MxBond                                     I                3
NBond                                      I   N=           6
           3           3           1           1           1           1
IBond                                      I   N=          18
           2           5           6           1           3           4
           2           0           0           2           0           0
           1           0           0           1           0           0
RBond                                      R   N=          18
  2.00000000E+00  1.00000000E+00  1.00000000E+00  2.00000000E+00  1.00000000E+00
  2.00000000E+00  1.00000000E+00  0.00000000E+00  0.00000000E+00  2.00000000E+00
  0.00000000E+00  0.00000000E+00  1.00000000E+00  0.00000000E+00  0.00000000E+00
  1.00000000E+00  0.00000000E+00  0.00000000E+00
Virial Ratio                               R      2.002633620210965E+00
SCF Energy                                 R     -1.686898008481873E+02
Total Energy                               R     -1.686898008481873E+02
S**2                                       R      5.197156572609316E-01
S**2 after annihilation                    R      3.396432194884634E-02
RMS Force                                  R      1.879559964981765E-02
RMS Density                                R      1.380350951245160E-09
Job Status                                 I                1
Nuclear derivative order                   I                1
External E-field                           R   N=          35
  0.00000000E+00  0.00000000E+00  0.00000000E+00  0.00000000E+00  0.00000000E+00
  0.00000000E+00  0.00000000E+00  0.00000000E+00  0.00000000E+00  0.00000000E+00
  0.00000000E+00  0.00000000E+00  0.00000000E+00  0.00000000E+00  0.00000000E+00
  0.00000000E+00  0.00000000E+00  0.00000000E+00  0.00000000E+00  0.00000000E+00
  0.00000000E+00  0.00000000E+00  0.00000000E+00  0.00000000E+00  0.00000000E+00
  0.00000000E+00  0.00000000E+00  0.00000000E+00  0.00000000E+00  0.00000000E+00
  0.00000000E+00  0.00000000E+00  0.00000000E+00  0.00000000E+00  0.00000000E+00
IOpCl                                      I                1
IROHF                                      I                0
Alpha Orbital Energies                     R   N=          57
 -2.05271507E+01 -1.56937631E+01 -1.12861265E+01 -1.42792602E+00 -1.13023210E+00
 -8.80631401E-01 -7.43866194E-01 -6.63309018E-01 -5.87784169E-01 -5.83547318E-01
 -4.36653935E-01 -3.38108335E-01  1.63902810E-01  1.65640144E-01  2.09256421E-01
  2.51017275E-01  3.74377239E-01  4.85945542E-01  5.85918295E-01  6.47969325E-01
  7.19659433E-01  7.88490357E-01  8.33825224E-01  8.71558611E-01  9.19196465E-01
  9.93732241E-01  1.02473086E+00  1.21095131E+00  1.22233155E+00  1.33993295E+00
  1.35356696E+00  1.40162381E+00  1.48825415E+00  1.53273737E+00  1.59895545E+00
  1.77873221E+00  1.78655100E+00  1.90576797E+00  2.09812417E+00  2.15448012E+00
  2.20015201E+00  2.22112097E+00  2.37583432E+00  2.40496588E+00  2.62982816E+00
  2.65960876E+00  2.85269179E+00  2.86947122E+00  3.00499801E+00  3.10273871E+00
  3.16192376E+00  3.20164154E+00  3.35540132E+00  3.60816350E+00  3.61436454E+00
  3.90119250E+00  4.18152052E+00
Beta Orbital Energies                      R   N=          57
 -2.05496850E+01 -1.57068702E+01 -1.12665338E+01 -1.46496252E+00 -1.15010739E+00
 -8.71297485E-01 -7.38883497E-01 -6.75190416E-01 -6.74542979E-01 -5.81877769E-01
 -4.57738219E-01 -4.10286068E-01  1.51910071E-01  1.63469907E-01  2.18918045E-01
  2.53574392E-01  3.83689983E-01  4.69334706E-01  6.02645103E-01  7.16107778E-01
  7.43381063E-01  8.01524813E-01  8.49449958E-01  8.81908362E-01  9.18732297E-01
  9.84044827E-01  9.90845022E-01  1.20337552E+00  1.21114044E+00  1.25540159E+00
  1.34499683E+00  1.43023632E+00  1.48467110E+00  1.54118191E+00  1.59089805E+00
  1.77750903E+00  1.78709551E+00  1.91342835E+00  2.10552367E+00  2.16434242E+00
  2.20362954E+00  2.24361813E+00  2.37406433E+00  2.41628185E+00  2.63538084E+00
  2.65991608E+00  2.83706558E+00  2.86067015E+00  2.96475498E+00  3.09249845E+00
  3.12065241E+00  3.20261190E+00  3.35507724E+00  3.56297897E+00  3.60343324E+00
  3.89320710E+00  4.16970904E+00
Alpha MO coefficients                      R   N=        3249
  1.70031833E-05 -3.08460029E-04  8.09507798E-05  4.25751620E-05 -5.81257040E-05
  2.52045764E-04 -9.56103705E-04 -2.01202830E-04  8.72384029E-04 -8.21680109E-05
  6.00753124E-04  7.48405055E-05 -1.64918489E-04 -1.38541358E-04  2.58497046E-04
  6.27206260E-04 -8.66768451E-03 -3.96257428E-04  1.26730999E-04 -5.49468866E-04
 -4.46904181E-03  1.28070315E-03 -5.55274829E-03  4.09968484E-04  1.00711143E-03
 -2.21739202E-04  2.00145682E-04 -2.32278120E-04  3.02433515E-04 -1.07659434E-04
  5.31861710E-04 -5.13040879E-05  2.22428039E-04  9.90733738E-01 -3.25142068E-02
  2.01320383E-02  1.57114963E-03 -4.63524338E-04  2.00971402E-03 -3.85891146E-03
  1.16712927E-03 -5.06036756E-03 -1.44206802E-04  1.03085212E-04  1.44516647E-04
 -3.43505960E-04 -2.37690681E-05 -1.15059718E-04 -5.77301034E-05 -5.49818305E-05
  4.02416571E-05 -1.74484242E-04  2.70270223E-04 -9.81994239E-04  1.56563370E-04
  2.20983993E-05 -9.58049430E-05 -2.99446678E-04  6.65071374E-04 -1.00844713E-02
  1.03818954E-03 -1.68227997E-05  7.28209115E-05 -4.58071903E-03  1.61912218E-04
 -7.01345433E-04 -6.28590532E-04  2.56952631E-05  1.83716914E-05  1.01333467E-03
 -5.96593519E-06  9.90553873E-01 -3.51603542E-02  1.98286869E-02 -2.08322673E-04
  5.57578860E-05 -2.41593150E-04 -5.36673673E-03  7.13064260E-05 -3.08797458E-04
 -7.31337284E-04 -7.84526090E-05  6.07642963E-04 -1.22778406E-03  1.81302922E-05
  2.05725777E-03 -2.13060508E-03 -7.13938643E-04 -4.69791977E-04  2.03695675E-03
  2.20711392E-07  2.12420933E-04  8.03722142E-04 -3.99561283E-04  1.29502484E-04
 -5.61492715E-04 -6.17239754E-04  4.07625591E-04 -1.76739223E-03  7.44084908E-04
  9.76070310E-04 -4.06679516E-04  3.80686649E-04 -2.25123390E-04  8.00355898E-05
  6.81136031E-04  7.99562597E-05  2.47083437E-05 -1.07215479E-04  3.45904607E-04
  8.65681197E-04  8.54945971E-05 -3.37913683E-05  1.46458923E-04  9.90278007E-01
  3.83934596E-02 -1.28120626E-02  1.10871165E-03  2.59093333E-05 -1.13189793E-04
  4.87934906E-03  2.69227507E-04 -1.16688287E-03  6.89451172E-04 -1.10384383E-04
 -5.55854338E-04  1.08792179E-03  2.54735988E-05  2.47437045E-04 -2.27164430E-04
 -4.20740998E-03 -3.45033374E-04  2.00044169E-05 -8.67014967E-05  7.95181120E-03
 -4.94087011E-04  2.14144825E-03 -6.83986149E-05  8.00588768E-05  1.62636796E-04
 -5.49196466E-04 -1.84302325E-05  2.44506182E-04 -3.43758270E-06 -1.14666553E-03
  5.54082060E-05 -2.40117381E-04  2.90817751E-05  3.23530062E-04 -3.16599023E-03
  7.85511923E-05  2.77023263E-05 -1.20134152E-04 -4.53463515E-04 -4.47583197E-04
  1.94085240E-03 -3.07562644E-04  1.23724123E-04  8.12290930E-05  1.99219838E-04
 -2.85428420E-05 -2.96393701E-03  4.28809708E-03 -8.99788951E-04  2.75263879E-04
 -1.19392885E-03 -2.41874662E-03  5.36025517E-03 -9.48660681E-04 -2.54214488E-04
  1.10199967E-03 -6.26721571E-02  1.19042612E-01  1.48948685E-02  7.42959243E-02
 -2.09959811E-03  9.09811036E-03  6.88336243E-03  4.46790485E-03 -1.93725295E-02
 -7.17241787E-03  2.10144543E-03  1.01629118E-03  8.25068992E-03 -4.85091760E-04
  2.05878358E-01  4.16729664E-01  1.18426065E-01 -5.43100033E-02  2.38160807E-02
 -1.03264188E-01  6.65575405E-03 -7.88762984E-03  3.41992203E-02  8.82851707E-03
  1.79842041E-02 -7.18980062E-03  1.42237949E-02 -4.14814779E-03  8.40791736E-02
  9.63274934E-05 -7.14836058E-03 -2.70826195E-03  1.17429280E-02  1.93925678E-01
  3.79769460E-01  2.17651493E-01 -8.32107659E-02  2.47370769E-02 -1.07252979E-01
 -2.88849198E-02  9.46111059E-03 -4.10204670E-02  9.47343586E-03  1.49857133E-02
 -6.26072234E-03  9.29247752E-03 -3.45643296E-03  1.18055753E-02 -8.02688217E-03
  2.26078595E-03 -6.93054696E-04  3.00508890E-03  2.07112296E-02  9.61497691E-03
  2.74921950E-03  7.58626618E-04 -3.28874754E-03 -1.80821527E-01  3.55614374E-01
  8.39629726E-02  1.40311629E-01  4.24463439E-03 -1.84185161E-02  9.15746521E-03
  2.54807315E-03 -1.10468368E-02 -1.14962449E-02 -3.50928707E-03  1.47667951E-03
  1.38501393E-02  8.08537632E-04  1.16069155E-01  2.34184830E-01  1.16887909E-01
  2.42981207E-01 -3.49520506E-02  1.51531323E-01 -7.97960378E-02  9.15534127E-03
 -3.96931690E-02 -1.04186632E-02 -1.13994027E-02  1.38200998E-03  1.23724790E-02
  2.62863825E-03  9.76576074E-02  2.29428727E-03 -1.19028567E-02 -2.30074327E-03
  9.97627655E-03 -1.57719540E-01 -3.17190823E-01 -2.29870581E-01  6.10417659E-03
 -8.17297109E-03  3.54377270E-02  5.16667848E-03 -2.86281367E-03  1.24135171E-02
 -6.00516922E-03 -3.29024017E-03  3.55067267E-03 -4.17512669E-03  7.58889255E-04
  8.64278267E-02  2.17307847E-03  6.55017826E-03 -2.71946148E-03  1.17930131E-02
  6.89135099E-02  4.71095959E-03  5.97889028E-03  2.15517847E-03 -9.34415581E-03
 -1.48465481E-01  3.02817729E-01  1.42781530E-01 -6.79580415E-02 -1.61518195E-02
  7.00214059E-02 -2.90198905E-02 -5.97712586E-03  2.59154392E-02  3.47669762E-03
  6.84052295E-03 -4.48959908E-04 -4.18053077E-03 -1.57762300E-03 -1.05916943E-01
 -2.25215811E-01 -1.28904250E-01  1.90082880E-01  5.40512780E-02 -2.34364473E-01
 -6.82848005E-02 -2.09351622E-02  9.07730769E-02 -5.94221347E-03  4.74677224E-03
  2.24839771E-03  1.06231791E-03 -1.09482451E-03 -2.97981362E-01 -3.41658766E-02
  1.61035074E-02  6.43821973E-03 -2.79155480E-02  8.04023970E-02  1.64647644E-01
  1.47609102E-01 -4.40220066E-02 -2.38823850E-02  1.03552044E-01 -2.23618844E-02
 -1.30200645E-02  5.64538791E-02 -8.85493698E-03 -5.02494510E-04  2.00601576E-03
  7.10214892E-03  1.15764709E-04  1.03842430E-01  1.25813710E-02  4.13598096E-03
 -2.60959050E-03  1.13164518E-02  1.67315010E-01  1.39331721E-02  8.05726546E-03
  3.67126595E-03 -1.59168250E-02  7.78518757E-02 -1.49369762E-01 -1.77385442E-01
  2.99381924E-01 -3.68429429E-02  1.59760779E-01  6.51947027E-02 -1.12983428E-02
  4.89957036E-02 -1.82769480E-02  5.06990985E-03  3.27288535E-03  1.82168519E-02
 -1.17018585E-03  6.35827152E-02  1.46184831E-01  1.25069632E-01  2.25712916E-01
  4.65968362E-02 -2.02068226E-01 -1.03723304E-01 -2.39632417E-02  1.03917907E-01
  1.84641491E-03 -5.70110898E-04 -1.18643666E-03  1.67351907E-03  1.31120884E-04
 -1.56630509E-01 -3.41274345E-02  6.01555793E-03  3.17745205E-03 -1.37765498E-02
 -5.85799050E-02 -1.15293856E-01 -1.61620009E-01 -1.85779625E-01 -1.57122639E-04
  6.96732928E-04 -9.92766239E-02 -2.91083702E-03  1.26295129E-02 -7.99142494E-03
  9.76523188E-03  1.79253453E-03  6.48154949E-03 -2.25247425E-03 -2.68070936E-01
 -5.16342612E-02 -7.76355004E-03  4.52551342E-03 -1.96259835E-02 -8.71444537E-02
 -8.49271997E-03  1.42503327E-04 -2.33949852E-03  1.01434734E-02  1.80420798E-02
 -3.40278784E-02 -7.54711618E-02  2.26771804E-01  4.71536749E-02 -2.04445909E-01
  8.41450549E-02  1.46006133E-02 -6.32981827E-02 -1.10134627E-02  1.45858425E-03
  1.34670520E-03  1.35506328E-02 -3.36941920E-04 -3.44547879E-02 -8.98823972E-02
 -5.62812417E-02  2.77043992E-01 -3.88913902E-02  1.68594367E-01 -1.23245455E-01
  1.96113872E-02 -8.50157884E-02 -6.85116140E-03 -3.47142336E-03  3.30334856E-03
 -1.69385904E-03  8.00455195E-04 -2.39496771E-02 -5.07364031E-04 -7.01501284E-03
  7.06159927E-04 -3.06083404E-03  1.15914658E-01  2.27072884E-01  3.42340297E-01
  1.59075682E-01 -6.73837609E-02  2.92170530E-01  8.11358061E-02 -3.65331353E-02
  1.58406102E-01 -1.04959624E-02 -1.65239730E-02  4.37629167E-03  2.13564227E-04
  3.81084310E-03  4.55840199E-02  2.86214475E-02  4.63971134E-03 -5.32148984E-05
  2.32055841E-04 -2.37124815E-01 -4.43626530E-02 -7.65502785E-03 -3.42009110E-03
  1.48273275E-02  6.04817539E-06 -1.44640126E-05 -1.38005031E-05  2.57049316E-06
 -3.12371581E-01 -7.21298793E-02  3.38367060E-06 -1.73237226E-01 -3.99915689E-02
  1.11584979E-04 -5.33681984E-03  2.62508517E-04  6.31709575E-05 -2.31639763E-02
  5.99572600E-06  1.65844016E-05  2.93411342E-06  1.01428507E-06  4.02558791E-01
  9.27877275E-02 -6.63288431E-06 -2.84041781E-01 -6.54879088E-02 -6.34304159E-03
  1.59081134E-04 -1.50386594E-02 -3.66269461E-03  6.64848467E-04 -3.88822895E-05
 -1.55563046E-05  1.89092502E-06 -1.10006203E-02 -2.53978040E-03 -1.15652003E-05
 -2.28080477E-05 -3.20314378E-05 -5.51119044E-05 -2.36938399E-01 -5.46826082E-02
 -3.60738966E-05 -1.61259240E-01 -3.72145415E-02  7.96615397E-03  3.44706444E-03
  1.88805463E-02  4.60068189E-03  1.49284633E-02  6.96512952E-05  2.52793979E-05
  2.87265335E-06 -8.61311754E-03 -1.98281682E-03 -6.20236830E-05 -1.89215624E-05
 -2.32155406E-06 -7.76158683E-03 -1.78724673E-03 -4.44844338E-03  1.11918486E-02
  7.49443175E-04  3.18570464E-03 -8.10433538E-02  3.51067705E-01 -6.20764168E-03
 -3.68752599E-02  1.59702208E-01 -3.18281125E-03 -2.19741755E-02  6.95874717E-04
  2.65004420E-03  5.06197304E-03 -1.74812295E-02 -5.32803262E-02  2.49243835E-03
  4.46689621E-02 -5.27829135E-02  2.29297058E-01 -4.01345562E-03  2.14071427E-02
 -9.31299841E-02 -5.88104280E-03 -2.48300358E-02  2.57228409E-03 -3.91523920E-04
  5.72670505E-03  1.63367442E-01  6.68008399E-02 -8.81906969E-03 -2.35001323E-03
  1.01775486E-02  4.97495035E-02  9.71386642E-02  1.45390161E-01  2.11757047E-01
 -3.92106440E-02  1.69742976E-01  1.36892712E-01 -2.40974848E-02  1.04299195E-01
 -1.65970519E-03 -1.56200316E-02  1.78888295E-03 -4.44536531E-03  3.60638182E-03
 -2.79743872E-01 -9.62843768E-02 -1.09236416E-02  2.89089398E-03 -1.25473255E-02
  2.63958690E-01  8.33183380E-02  1.04503640E-02  2.80967801E-03 -1.21889256E-02
 -3.80330584E-02  1.12434200E-01  6.41084485E-02  1.50960482E-01 -3.13327764E-03
  1.35751299E-02  2.11366577E-02  4.36693172E-03 -1.89447908E-02 -6.56708726E-03
  4.23146668E-03  2.15947348E-03  2.50892128E-03 -9.76372986E-04  2.25864874E-03
  9.42399306E-03  3.96274778E-02  1.07165250E-01  1.91439608E-02 -8.29967889E-02
 -1.12167097E-02 -1.34305658E-02  5.82225093E-02 -3.45910113E-02  1.73626368E-02
  8.97961348E-03  2.30484275E-02 -4.00515108E-03 -2.12419678E-01 -9.68229056E-02
  5.66239524E-03  1.92983442E-03 -8.36804859E-03  6.80290599E-04  5.88788101E-03
 -3.68744789E-02  4.72836451E-01  8.48830090E-02 -3.68074330E-01  3.92125578E-01
  6.43198371E-02 -2.78909459E-01  1.49421826E-02 -4.88678700E-03 -3.89395197E-03
 -9.89378149E-03  1.12741128E-03 -3.80735337E-02 -5.20119405E-02  1.39767613E-03
  8.38437609E-04 -3.63672724E-03 -3.02317933E-02 -5.84250839E-02 -1.34109192E-03
 -3.73144119E-04  1.61778441E-03 -6.25138652E-06  1.57684403E-05  2.71802620E-05
 -1.62859671E-06  4.78471194E-01  1.10346379E-01  6.54379749E-08  4.42383034E-01
  1.02017399E-01 -1.20497368E-03  8.75463964E-04 -2.85445642E-03 -6.96237539E-04
  3.79684853E-03 -1.33785653E-06 -3.37788704E-06 -1.60879496E-06 -2.94749429E-06
  1.19669006E-01  2.75996184E-02  2.15695391E-06 -1.78130502E-01 -4.10792306E-02
 -9.01737323E-03 -8.70193124E-03 -2.13727066E-02 -5.20741745E-03 -3.77311366E-02
 -7.52224943E-08 -1.36512190E-07 -1.52107293E-07 -1.92293528E-03 -4.43529553E-04
  1.02080589E-07  6.24191183E-07 -3.22944623E-06 -6.78708256E-06 -3.43047460E-01
 -7.91179692E-02 -4.98874743E-06 -3.08882585E-01 -7.12369172E-02  7.52046546E-03
  3.03255263E-03  1.78247259E-02  4.34221027E-03  1.31478426E-02 -1.18122687E-05
 -1.14789755E-05 -6.84677964E-07  1.61356123E-02  3.72032491E-03 -9.16194939E-06
 -1.16107096E-06 -3.09078354E-07  1.42719888E-02  3.29224472E-03  3.80157226E-02
 -5.45425472E-02 -7.95491347E-01  1.00272896E-01 -2.72951842E-02  1.17900730E-01
  3.35976189E-01 -1.06159443E-01  4.59381783E-01  3.68317112E-03  7.71257372E-03
 -1.17201367E-03 -1.57474443E-03 -1.75873319E-03 -6.18404358E-02 -7.21405646E-02
 -1.02903391E+00  9.70000659E-02  4.17924523E-02 -1.82239213E-01 -2.30280711E-01
 -7.96156443E-02  3.46694589E-01 -4.39843612E-03 -7.22499776E-03  2.69635795E-03
 -3.50290794E-03  1.66149312E-03  6.26362895E-02  1.37486608E+00 -3.44213655E-03
 -1.68674881E-03  7.38235310E-03 -9.42532028E-03 -2.33728743E-02  4.56309206E-03
  3.43184536E-02  1.10436234E-02 -4.88356908E-02  4.54844839E-02  2.06679206E-02
 -9.08915711E-02 -2.75617624E-03 -2.63786401E-04  4.14363012E-04  3.07147613E-03
  6.11567625E-05  2.61656004E-02  1.16580923E+00  6.75871385E-03 -1.64750225E-04
  6.81587941E-04 -1.20312142E-02 -3.07325649E-03  3.60456071E-05 -9.03352065E-04
  3.88207624E-03 -1.19793116E-05  1.86681319E-05  2.69312798E-04 -4.23287023E-05
 -1.91295836E-01 -4.41865242E-02 -1.47625903E-04 -4.22306275E-01 -9.76799214E-02
 -7.61941079E-04  8.17020910E-03 -1.80353367E-03 -4.35995797E-04  3.54449129E-02
  3.56317730E-05  4.26961065E-05  5.86216888E-04 -5.55780277E-05 -4.20373176E-01
 -9.68446802E-02  1.34003363E-04  6.21199129E-01  1.43069254E-01 -8.30857805E-03
 -1.82503725E-03 -1.97005432E-02 -4.79654478E-03 -7.93114720E-03 -3.45192787E-05
 -7.78813073E-04  1.73716298E-06  2.82338096E-02  6.50713519E-03  5.01990556E-06
  1.27419815E-05 -6.68447508E-06 -2.01969647E-05 -3.85454844E-01 -8.88728664E-02
 -2.62873403E-05 -5.20748760E-01 -1.20049862E-01 -2.54550688E-04  1.74177712E-04
 -6.07277462E-04 -1.49575102E-04  7.55323718E-04  2.50271851E-07 -5.58898398E-04
 -4.32629542E-06 -1.35763876E-02 -3.13104848E-03  2.17591107E-05  1.22344704E-04
  2.83404320E-07 -1.38174877E-02 -3.18973873E-03 -1.10560471E-01  1.74154769E-01
  2.27743121E+00 -1.33176265E-01 -7.45047405E-03  3.21951609E-02 -4.76837001E-01
 -3.80559268E-02  1.64618667E-01  5.70406596E-04  3.82788708E-03  2.13381271E-03
 -9.74958143E-03 -8.80364425E-04 -4.37088994E-02 -6.20984045E-02 -6.32480199E-01
 -1.14016470E-02  1.78192704E-02 -7.73842083E-02 -1.16486582E-02 -4.30128931E-02
  1.86736051E-01 -5.06130534E-03 -4.66395299E-03  2.24835808E-03 -4.69355074E-04
  1.07601798E-03  6.45835496E-02  7.42598950E-01  4.96655921E-03 -1.92065151E-03
  8.33602728E-03  2.50732573E-03  7.40196317E-03 -4.59568599E-03 -3.70940234E-02
 -4.61949544E-03  1.99251876E-02 -3.33626199E-02 -9.74729938E-04  4.07127276E-03
 -8.62846573E-04  1.38459292E-03  1.84711333E-04  7.35369647E-04 -3.19317473E-04
 -1.56247571E-02 -1.33366163E+00 -1.11969810E-03  5.54447778E-04 -2.40903489E-03
 -5.87055979E-02 -1.76679474E+00 -1.94767314E-03 -1.41947274E-03  6.14918712E-03
  6.40203892E-03 -6.97389056E-03 -3.17290171E-01 -5.23245922E-02 -5.95974302E-02
  2.58429069E-01 -3.32892227E-01 -3.36819618E-01  1.46049271E+00 -4.80218509E-03
  7.44664720E-03  1.11657752E-03  3.73166487E-03 -1.71709194E-03  5.23882061E-02
  8.04839815E-02  8.04190777E-01 -3.79588628E-02 -1.14667206E-02  4.97048235E-02
 -2.02397733E-02  1.10473919E-01 -4.78987914E-01  1.19432846E-03 -2.87164817E-02
 -5.83221665E-04  3.29045299E-04  6.62251025E-03  6.72720144E-03 -7.72065861E-01
  1.67966623E-02  1.72723999E-03 -7.49183302E-03 -9.59359413E-03 -3.37854973E-02
  1.23988740E-01  4.82506031E-02 -1.97404376E-02  8.55703892E-02  2.82478135E-03
 -9.70922919E-03  4.20743230E-02  1.27429841E-03  4.30731566E-03 -7.68406982E-04