0002_q000_m01_k00_opt_uwb97xd_def2svpd/0002_q000_m01_k00_force_ub3lyp_de
Force     UB3LYP                                                      Gen                 
Number of atoms                            I                6
Info1-9                                    I   N=           9
          13           9           0           0           0         100
           5          18        -502
Full Title                                 C   N=           8
0002_q000_m01_k00_opt_uwb97xd_def2svpd/0002_q000_m01_k00_for
ce_ub3lyp_def2svp stable-force      
Route                                      C   N=          15
#p ub3lyp/chkbasis force guess=read geom=check scf=(maxcycle
=900,verytightlineq,xqc) integral=grid=ultrafine symmetry=No
ne density=current pop=(cm5,hlygat,mbs,npa) output=wfx      
Charge                                     I                0
Multiplicity                               I                1
Number of electrons                        I               24
Number of alpha electrons                  I               12
Number of beta electrons                   I               12
Number of basis functions                  I               57
Number of independent functions            I               57
Number of point charges in /Mol/           I                0
Number of translation vectors              I                0
Atomic numbers                             I   N=           6
           6           7           1           8           1           1
Nuclear charges                            R   N=           6
  6.00000000E+00  7.00000000E+00  1.00000000E+00  8.00000000E+00  1.00000000E+00
  1.00000000E+00
Current cartesian coordinates              R   N=          18
  1.76526120E+00 -9.56393551E-02  1.00895621E-01  4.21476231E+00 -1.14759850E-01
  1.83592472E-01  5.12197023E+00  2.73169593E-01 -1.49843980E+00  5.62552287E+00
 -5.41213095E-01  2.03257921E+00  8.69741593E-01  3.19707205E-01 -1.70041362E+00
  7.24411360E-01 -4.93862518E-01  1.82729168E+00
Number of symbols in /Mol/                 I                0
Int Atom Types                             I   N=           6
           0           0           0           0           0           0
Force Field                                I                0
Atom Types                                 C   N=           6
                                                            
            
MM charges                                 R   N=           6
  0.00000000E+00  0.00000000E+00  0.00000000E+00  0.00000000E+00  0.00000000E+00
  0.00000000E+00
Integer atomic weights                     I   N=           6
          12          14           1          16           1           1
Real atomic weights                        R   N=           6
  1.20000000E+01  1.40030740E+01  1.00782504E+00  1.59949146E+01  1.00782504E+00
  1.00782504E+00
Atom fragment info                         I   N=           6
           0           0           0           0           0           0
Atom residue num                           I   N=           6
           0           0           0           0           0           0
Nuclear spins                              I   N=           6
           0           2           1           0           1           1
Nuclear ZEff                               R   N=           6
 -3.60000000E+00 -4.55000000E+00 -1.00000000E+00 -5.60000000E+00 -1.00000000E+00
 -1.00000000E+00
Nuclear ZNuc                               R   N=           6
  6.00000000E+00  7.00000000E+00  1.00000000E+00  8.00000000E+00  1.00000000E+00
  1.00000000E+00
Nuclear QMom                               R   N=           6
  0.00000000E+00  2.04400000E+00  0.00000000E+00  0.00000000E+00  0.00000000E+00
  0.00000000E+00
Nuclear GFac                               R   N=           6
  0.00000000E+00  4.03761000E-01  2.79284600E+00  0.00000000E+00  2.79284600E+00
  2.79284600E+00
MicOpt                                     I   N=           6
          -1          -1          -1          -1          -1          -1
Number of residues                         I                0
Number of secondary structures             I                0
Number of contracted shells                I               27
Number of primitive shells                 I               51
Pure/Cartesian d shells                    I                0
Pure/Cartesian f shells                    I                0
Highest angular momentum                   I                2
Largest degree of contraction              I                5
Shell types                                I   N=          27
           0           0           0           1           1          -2
           0           0           0           1           1          -2
           0           0           1           0           0           0
           1           1          -2           0           0           1
           0           0           1
Number of primitives per shell             I   N=          27
           5           1           1           3           1           1
           5           1           1           3           1           1
           3           1           1           5           1           1
           3           1           1           3           1           1
           3           1           1
Shell to atom map                          I   N=          27
           1           1           1           1           1           1
           2           2           2           2           2           2
           3           3           3           4           4           4
           4           4           4           5           5           5
           6           6           6
Primitive exponents                        R   N=          51
  1.23840169E+03  1.86290050E+02  4.22511763E+01  1.16765579E+01  3.59305065E+00
  4.02451474E-01  1.30901827E-01  9.46809706E+00  2.01035451E+00  5.47710047E-01
  1.52686138E-01  8.00000000E-01  1.71284159E+03  2.57648127E+02  5.84582459E+01
  1.61983679E+01  5.00526008E+00  5.87318566E-01  1.87645923E-01  1.35714702E+01
  2.92573729E+00  7.99277508E-01  2.19543480E-01  1.00000000E+00  1.30107010E+01
  1.96225720E+00  4.44537960E-01  1.21949620E-01  8.00000000E-01  2.26617678E+03
  3.40870102E+02  7.73631352E+01  2.14796449E+01  6.65894331E+00  8.09759757E-01
  2.55307722E-01  1.77215043E+01  3.86355054E+00  1.04809209E+00  2.76415444E-01
  1.20000000E+00  1.30107010E+01  1.96225720E+00  4.44537960E-01  1.21949620E-01
  8.00000000E-01  1.30107010E+01  1.96225720E+00  4.44537960E-01  1.21949620E-01
  8.00000000E-01
Contraction coefficients                   R   N=          51
  5.51736505E-03  4.10888286E-02  1.82253821E-01  4.68284594E-01  4.45758173E-01
  1.00000000E+00  1.00000000E+00  5.68883320E-02  3.12940593E-01  7.60650165E-01
  1.00000000E+00  1.00000000E+00 -5.44779958E-03 -4.06271746E-02 -1.81119623E-01
 -4.68439756E-01 -4.46168463E-01  1.00000000E+00  1.00000000E+00 -5.88481170E-02
 -3.20246248E-01 -7.53282265E-01  1.00000000E+00  1.00000000E+00  3.34854848E-02
  2.34721871E-01  8.13770285E-01  1.00000000E+00  1.00000000E+00 -5.38935039E-03
 -4.02347214E-02 -1.80081842E-01 -4.68288577E-01 -4.46926172E-01  1.00000000E+00
  1.00000000E+00  6.26302488E-02  3.33311385E-01  7.41486383E-01  1.00000000E+00
  1.00000000E+00  3.34854848E-02  2.34721871E-01  8.13770285E-01  1.00000000E+00
  1.00000000E+00  3.34854848E-02  2.34721871E-01  8.13770285E-01  1.00000000E+00
  1.00000000E+00
Coordinates of each shell                  R   N=          81
  1.76526120E+00 -9.56393551E-02  1.00895621E-01  1.76526120E+00 -9.56393551E-02
  1.00895621E-01  1.76526120E+00 -9.56393551E-02  1.00895621E-01  1.76526120E+00
 -9.56393551E-02  1.00895621E-01  1.76526120E+00 -9.56393551E-02  1.00895621E-01
  1.76526120E+00 -9.56393551E-02  1.00895621E-01  4.21476231E+00 -1.14759850E-01
  1.83592472E-01  4.21476231E+00 -1.14759850E-01  1.83592472E-01  4.21476231E+00
 -1.14759850E-01  1.83592472E-01  4.21476231E+00 -1.14759850E-01  1.83592472E-01
  4.21476231E+00 -1.14759850E-01  1.83592472E-01  4.21476231E+00 -1.14759850E-01
  1.83592472E-01  5.12197023E+00  2.73169593E-01 -1.49843980E+00  5.12197023E+00
  2.73169593E-01 -1.49843980E+00  5.12197023E+00  2.73169593E-01 -1.49843980E+00
  5.62552287E+00 -5.41213095E-01  2.03257921E+00  5.62552287E+00 -5.41213095E-01
  2.03257921E+00  5.62552287E+00 -5.41213095E-01  2.03257921E+00  5.62552287E+00
 -5.41213095E-01  2.03257921E+00  5.62552287E+00 -5.41213095E-01  2.03257921E+00
  5.62552287E+00 -5.41213095E-01  2.03257921E+00  8.69741593E-01  3.19707205E-01
 -1.70041362E+00  8.69741593E-01  3.19707205E-01 -1.70041362E+00  8.69741593E-01
  3.19707205E-01 -1.70041362E+00  7.24411360E-01 -4.93862518E-01  1.82729168E+00
  7.24411360E-01 -4.93862518E-01  1.82729168E+00  7.24411360E-01 -4.93862518E-01
  1.82729168E+00
Num ILSW                                   I              100
ILSW                                       I   N=         100
           1           0           0           0           2           0
           0           0           0           0         402          -1
           5           0           0           0           2           0
           0           0           0           0           1           0
           1           1           0           0           0           0
           0           0      100000           0          -1           0
           0           0           0           0           0           0
           0           0           0           1           0           0
           0 -2000000000           1           0           0           0
           0           0           4          52           0           0
           0           0           5           0           0           0
           0           0           0           6           0           1
           0           0           0           0           0           0
           0           0           0           0           0           0
           0           0           0           0           0           0
           0           0           0           0           0           0
           0           0           0           0
Num RLSW                                   I               52
RLSW                                       R   N=          52
  8.00000000E-01  7.20000000E-01  1.00000000E+00  8.10000000E-01  2.00000000E-01
  0.00000000E+00  0.00000000E+00  1.00000000E+00  0.00000000E+00  0.00000000E+00
  0.00000000E+00  0.00000000E+00  1.00000000E+00  0.00000000E+00  0.00000000E+00
  0.00000000E+00  0.00000000E+00  1.00000000E+00  0.00000000E+00  0.00000000E+00
  0.00000000E+00  0.00000000E+00  1.00000000E+00  0.00000000E+00  0.00000000E+00
  0.00000000E+00  0.00000000E+00  1.00000000E+00  0.00000000E+00  0.00000000E+00
  0.00000000E+00  0.00000000E+00  1.00000000E+00  0.00000000E+00  0.00000000E+00
  0.00000000E+00  0.00000000E+00  0.00000000E+00  1.00000000E+00  1.00000000E+00
  0.00000000E+00  1.00000000E+00  0.00000000E+00  0.00000000E+00  0.00000000E+00
  0.00000000E+00  0.00000000E+00  0.00000000E+00  0.00000000E+00  0.00000000E+00
  0.00000000E+00  0.00000000E+00
MxBond                                     I                3
NBond                                      I   N=           6
           3           3           1           1           1           1
IBond                                      I   N=          18
           2           5           6           1           3           4
           2           0           0           2           0           0
           1           0           0           1           0           0
RBond                                      R   N=          18
  2.00000000E+00  1.00000000E+00  1.00000000E+00  2.00000000E+00  1.00000000E+00
  2.00000000E+00  1.00000000E+00  0.00000000E+00  0.00000000E+00  2.00000000E+00
  0.00000000E+00  0.00000000E+00  1.00000000E+00  0.00000000E+00  0.00000000E+00
  1.00000000E+00  0.00000000E+00  0.00000000E+00
Virial Ratio                               R      2.008055719290728E+00
SCF Energy                                 R     -1.696698180908434E+02
Total Energy                               R     -1.696698180908434E+02
S**2                                       R     -1.421085471520200E-14
S**2 after annihilation                    R     -4.298783551348599E-13
RMS Force                                  R      5.162795444233204E-03
RMS Density                                R      2.033194519278607E-09
Job Status                                 I                1
Nuclear derivative order                   I                1
External E-field                           R   N=          35
  0.00000000E+00  0.00000000E+00  0.00000000E+00  0.00000000E+00  0.00000000E+00
  0.00000000E+00  0.00000000E+00  0.00000000E+00  0.00000000E+00  0.00000000E+00
  0.00000000E+00  0.00000000E+00  0.00000000E+00  0.00000000E+00  0.00000000E+00
  0.00000000E+00  0.00000000E+00  0.00000000E+00  0.00000000E+00  0.00000000E+00
  0.00000000E+00  0.00000000E+00  0.00000000E+00  0.00000000E+00  0.00000000E+00
  0.00000000E+00  0.00000000E+00  0.00000000E+00  0.00000000E+00  0.00000000E+00
  0.00000000E+00  0.00000000E+00  0.00000000E+00  0.00000000E+00  0.00000000E+00
IOpCl                                      I                1
IROHF                                      I                0
Alpha Orbital Energies                     R   N=          57
 -1.91099488E+01 -1.44747025E+01 -1.02287839E+01 -1.10665343E+00 -8.55881629E-01
 -6.60259236E-01 -5.47192102E-01 -4.78793307E-01 -4.58450367E-01 -4.20132902E-01
 -2.54946994E-01 -2.32838880E-01 -2.95835844E-02  3.38205387E-02  8.93847879E-02
  1.25560040E-01  2.29254652E-01  2.72706192E-01  4.13052027E-01  4.75075418E-01
  4.92506612E-01  5.52607997E-01  6.03239359E-01  6.35686106E-01  6.48346299E-01
  7.35278608E-01  7.60887239E-01  9.38989368E-01  9.61836708E-01  1.00420857E+00
  1.07751290E+00  1.16439982E+00  1.22576295E+00  1.27650828E+00  1.31624829E+00
  1.50989739E+00  1.51916351E+00  1.63193750E+00  1.81190381E+00  1.85694585E+00
  1.92121938E+00  1.92960655E+00  2.04965397E+00  2.10410668E+00  2.30700060E+00
  2.32933033E+00  2.50064910E+00  2.50190874E+00  2.63015944E+00  2.72867216E+00
  2.77632352E+00  2.84505080E+00  2.98973635E+00  3.18924600E+00  3.22247218E+00
  3.48931863E+00  3.75364722E+00
Beta Orbital Energies                      R   N=          57
 -1.91099488E+01 -1.44747025E+01 -1.02287839E+01 -1.10665343E+00 -8.55881629E-01
 -6.60259236E-01 -5.47192102E-01 -4.78793307E-01 -4.58450367E-01 -4.20132902E-01
 -2.54946994E-01 -2.32838880E-01 -2.95835844E-02  3.38205387E-02  8.93847879E-02
  1.25560040E-01  2.29254652E-01  2.72706192E-01  4.13052027E-01  4.75075418E-01
  4.92506612E-01  5.52607997E-01  6.03239359E-01  6.35686106E-01  6.48346299E-01
  7.35278608E-01  7.60887239E-01  9.38989368E-01  9.61836708E-01  1.00420857E+00
  1.07751290E+00  1.16439982E+00  1.22576295E+00  1.27650828E+00  1.31624829E+00
  1.50989739E+00  1.51916351E+00  1.63193750E+00  1.81190381E+00  1.85694585E+00
  1.92121938E+00  1.92960655E+00  2.04965397E+00  2.10410668E+00  2.30700060E+00
  2.32933033E+00  2.50064910E+00  2.50190874E+00  2.63015944E+00  2.72867216E+00
  2.77632352E+00  2.84505080E+00  2.98973635E+00  3.18924600E+00  3.22247218E+00
  3.48931863E+00  3.75364722E+00
Alpha MO coefficients                      R   N=        3249
  2.59836444E-05 -4.74431542E-04  1.13271934E-04  4.84713756E-05 -7.98105894E-05
  3.46076153E-04 -1.34660037E-03 -3.24265848E-04  1.40597479E-03 -1.13234221E-04
  8.55836593E-04  9.92529723E-05 -2.11334692E-04 -1.97367822E-04  3.11277784E-04
  9.82032055E-04 -1.22101936E-02 -5.98929887E-04  1.96314928E-04 -8.51166447E-04
 -6.37129105E-03  1.84128149E-03 -7.98325490E-03  5.24339620E-04  1.35853546E-03
 -2.70952991E-04  2.04061565E-04 -3.13328412E-04  3.79358332E-04 -1.34754863E-04
  7.68637117E-04 -8.03057298E-05  3.48167733E-04  9.88933729E-01 -3.99368700E-02
  2.81968757E-02  1.66731156E-03 -4.93509193E-04  2.13972254E-03 -5.30655739E-03
  1.60910992E-03 -6.97668347E-03 -2.40160984E-06 -1.27948718E-05  2.82351994E-06
 -7.43107095E-06  2.95061272E-06 -1.27888002E-04 -9.61322612E-06 -7.81412193E-05
  5.73060384E-05 -2.48470920E-04  3.42063742E-04 -1.45176312E-03  2.16389415E-04
  3.10392431E-05 -1.34570967E-04 -4.30769183E-04  1.05427930E-03 -1.46775880E-02
  1.79921009E-03 -2.69200160E-05  1.16540156E-04 -6.66975271E-03  2.60546758E-04
 -1.12868509E-03 -1.17529337E-03  7.10115614E-05  8.49761519E-05  1.68681719E-03
 -1.64470028E-05  9.88332137E-01 -4.49152651E-02  2.79004956E-02 -3.73419400E-04
  1.32388927E-04 -5.73830802E-04 -7.93425615E-03  5.13422497E-05 -2.22086282E-04
 -9.74579596E-04  5.38485546E-06  7.73710409E-04 -1.48821431E-03 -1.19632908E-06
  3.43834484E-03 -2.83198606E-03 -1.20939690E-03 -7.52897439E-04  3.26446934E-03
  2.41604268E-04  3.70828843E-04  1.31503198E-03 -7.41352907E-04  2.33391147E-04
 -1.01192891E-03 -9.27361340E-04  6.12400650E-04 -2.65525474E-03  1.14983413E-03
  1.62287009E-03 -6.23219139E-04  5.66829890E-04 -3.74301560E-04  1.86046595E-04
  9.19533480E-04  2.15733172E-04  2.67388723E-05 -1.16054395E-04  6.03310420E-04
  1.31062333E-03  2.27953286E-04 -4.05102145E-05  1.75571204E-04  9.88055582E-01
  4.95225069E-02 -1.63316634E-02  9.94914061E-04  1.57159048E-05 -6.95361412E-05
  7.00403435E-03  3.62438300E-04 -1.57106253E-03  1.67378448E-03 -1.71860407E-04
 -1.29577693E-03  2.42075965E-03  3.96902670E-05 -9.38546046E-05 -7.38283013E-04
 -6.85791836E-03 -1.21243492E-03  2.57464627E-05 -1.11533299E-04  1.15967898E-02
 -6.44075131E-04  2.79142115E-03  2.81487073E-04  5.46252632E-05  2.16528657E-04
 -1.37645574E-03 -1.25230726E-05  2.96823254E-04 -5.31118304E-05 -1.57039674E-03
  8.11944027E-05 -3.51875063E-04  4.58566633E-05  3.78107619E-04 -4.13417385E-03
  1.15093047E-04  4.01142591E-05 -1.73969965E-04 -8.16085710E-04 -6.02461698E-04
  2.61247023E-03 -3.76748729E-04  1.74665199E-04  9.46371983E-05  2.64005038E-04
 -4.02939789E-05 -5.25396574E-03  5.67960438E-03 -1.69830385E-03  5.86524151E-04
 -2.54388705E-03 -4.56051024E-03  7.13098754E-03 -1.85704885E-03 -5.60027751E-04
  2.42773305E-03 -5.78096322E-02  1.06375558E-01  1.88662743E-02  7.35703032E-02
 -2.05915066E-03  8.92150926E-03  1.24038860E-02  3.91009867E-03 -1.69547550E-02
 -5.21039286E-03  1.51052087E-03  8.31724754E-05  8.68322784E-03 -3.48752695E-04
  2.15062350E-01  4.44307466E-01  1.15082561E-01 -6.04979541E-02  2.39257101E-02
 -1.03739347E-01  1.45316088E-02 -8.33666502E-03  3.61456889E-02  6.98819571E-03
  1.49199835E-02 -5.45410157E-03  1.02860093E-02 -3.44134035E-03  8.49037788E-02
  2.52284478E-03 -6.91124222E-03 -2.61086751E-03  1.13206684E-02  1.90456089E-01
  3.79266447E-01  1.84723951E-01 -9.72899819E-02  2.90367895E-02 -1.25895342E-01
 -2.53431420E-02  8.27824797E-03 -3.58918733E-02  6.84813040E-03  1.41261377E-02
 -3.95398591E-03  4.37001385E-03 -3.25809942E-03  1.01354168E-02 -6.78647309E-03
  2.00417111E-03 -6.49925814E-04  2.81823998E-03  1.75177190E-02  9.58531573E-03
  2.46643198E-03  6.24214421E-04 -2.70596642E-03  1.62644988E-01 -3.14778708E-01
 -5.87790155E-02 -1.50861670E-01 -5.62000242E-03  2.43890755E-02 -1.75699867E-02
 -3.69471051E-03  1.60206807E-02  7.71095376E-03  4.83661413E-03  5.88395020E-04
 -1.57723548E-02 -1.11478473E-03 -1.28269026E-01 -2.66227383E-01 -1.12772567E-01
 -2.54298320E-01  4.31714459E-02 -1.87168763E-01  7.57347457E-02 -1.10879263E-02
  4.80730134E-02  8.94764716E-03  1.01632454E-02 -2.34353747E-03 -5.87725605E-03
 -2.34370413E-03 -1.14938161E-01 -6.24311261E-03  1.43202017E-02  2.16971266E-03
 -9.40834258E-03  1.62287246E-01  3.33475736E-01  2.09398134E-01 -2.82756151E-02
  1.31812843E-02 -5.71519819E-02 -6.29245805E-03  3.38128703E-03 -1.46615039E-02
  3.66937147E-03  4.12965126E-03 -1.43651576E-03 -4.58318829E-04 -9.52412820E-04
 -7.39892189E-02 -4.72351776E-03 -5.81893481E-03  2.16617139E-03 -9.39386776E-03
 -5.64160248E-02 -1.10476255E-02 -4.97483822E-03 -1.75463073E-03  7.60725142E-03
  1.50569043E-01 -3.06634130E-01 -8.66928734E-02  1.51850054E-02  1.94231425E-02
 -8.41936521E-02  1.92755651E-02  7.85602928E-03 -3.40614787E-02 -2.59242976E-03
 -9.49779708E-03  1.67712564E-03 -2.39293331E-03  2.19057232E-03  8.43820104E-02
  1.87470235E-01  7.45279455E-02 -2.51481457E-01 -6.39213838E-02  2.77161951E-01
  8.83336025E-02  2.09363474E-02 -9.07787951E-02  3.38384495E-03 -3.44609553E-03
 -4.68460358E-04 -3.93819800E-03  7.94885395E-04  3.07175780E-01  4.80933381E-02
 -1.14454913E-02 -5.48009412E-03  2.37610983E-02 -6.17756803E-02 -1.27396743E-01
 -1.05035879E-01  6.32436051E-02  1.80583981E-02 -7.83008074E-02  3.25723788E-02
  9.68136443E-03 -4.19783125E-02  1.08713825E-02 -2.38995935E-03 -3.16785905E-03
 -5.82495857E-03  5.51313985E-04 -8.92007564E-02 -2.45795740E-02 -2.66052300E-03
  2.23837263E-03 -9.70663072E-03 -1.57246327E-01 -2.20630828E-02 -7.37508227E-03
 -2.90707953E-03  1.26035519E-02  1.02176386E-01 -1.99996064E-01 -1.07645299E-01
  3.16723009E-01 -3.37270433E-02  1.46273890E-01  8.55827077E-02 -8.47015236E-03
  3.67341829E-02 -1.60115163E-02  5.52375991E-03  3.90104616E-03  1.17142338E-02
 -1.27467883E-03  7.27903209E-02  1.76364215E-01  9.17344216E-02  2.23318751E-01
  4.02597313E-02 -1.74617411E-01 -6.09452875E-02 -1.99035470E-02  8.63269367E-02
  1.61322014E-03 -3.50464712E-03 -3.56348579E-05 -2.64687830E-03  8.07880357E-04
 -1.23163587E-01 -4.32277735E-02  9.74881862E-04  1.94080408E-03 -8.41365368E-03
 -6.29334916E-02 -1.24641155E-01 -1.63727924E-01 -1.37867863E-01  2.58783494E-03
 -1.11966478E-02 -6.72913482E-02 -2.12438266E-03  9.22233464E-03 -6.58267314E-03
  7.03703794E-03  1.03503618E-03  7.15073604E-03 -1.62337300E-03 -2.92988332E-01
 -8.19958705E-02 -6.11028701E-03  3.89213315E-03 -1.68791333E-02 -1.30332610E-01
 -3.20676324E-02  6.71938605E-04 -2.92131791E-03  1.26664513E-02  1.76653552E-02
 -3.40331293E-02 -2.38332335E-02  2.07409668E-01  5.39979465E-02 -2.34105463E-01
  8.70514835E-02  1.16674060E-02 -5.05759594E-02 -7.35700568E-03  2.86842083E-04
  1.06737067E-03  8.36496405E-03 -6.61870122E-05 -4.14775301E-02 -1.02773321E-01
 -1.10637415E-01  2.69715455E-01 -3.63719668E-02  1.57622737E-01 -1.01453097E-01
  2.14865454E-02 -9.31194090E-02 -2.67301368E-03  4.67184916E-03  1.66534452E-03
 -2.20588173E-03 -1.07763541E-03 -4.13378955E-02 -4.50040895E-03 -9.26601225E-03
  1.19087827E-03 -5.16087541E-03  1.32051052E-01  2.57079296E-01  3.73251203E-01
  1.61371764E-01 -6.24222516E-02  2.70684755E-01  6.83850591E-02 -2.88517334E-02
  1.25114598E-01 -9.95061432E-03 -1.04882378E-02  4.97187547E-03 -3.17781307E-03
  2.41857635E-03  7.22157881E-02  4.15325845E-02  6.45104726E-03  2.47191925E-04
 -1.06976275E-03 -2.53883763E-01 -7.30128694E-02 -6.24880631E-03 -2.34664975E-03
  1.01731712E-02  5.63687418E-06 -1.19177610E-05 -6.51044190E-06  1.07437484E-05
 -2.00857374E-01 -4.63346614E-02  5.73589808E-06 -9.26075367E-02 -2.13595014E-02
 -1.21566138E-04 -5.06637466E-03 -2.86517750E-04 -7.04596831E-05 -2.19692343E-02
  2.02405648E-06  4.94969441E-06 -1.83314448E-07  1.82523314E-05  4.86567664E-01
  1.12216969E-01 -8.10955227E-06 -3.02417266E-01 -6.97487696E-02 -4.22613327E-03
 -8.40477526E-05 -1.00171223E-02 -2.44000754E-03 -3.65529105E-04 -5.84729568E-06
 -2.40757074E-06 -3.28993562E-07 -1.44409108E-02 -3.33104473E-03  1.16698999E-06
  2.21084538E-06  4.66146490E-06 -5.43761586E-06 -2.89315733E-01 -6.67205509E-02
 -3.67933415E-06 -1.61467777E-01 -3.72374142E-02  7.17789985E-03  3.17983235E-03
  1.70139430E-02  4.14487538E-03  1.37862148E-02  2.94775137E-06  2.31907299E-06
  3.87539201E-07 -4.94322850E-03 -1.14005820E-03 -1.44105129E-05 -5.22600015E-06
 -2.63127672E-07 -4.81209737E-03 -1.10928954E-03 -4.59682877E-03  1.33967567E-02
  7.56416526E-03  4.76922823E-03 -7.80480517E-02  3.38406146E-01  3.97328049E-03
 -1.83898209E-02  7.97310897E-02 -2.28242379E-03 -1.94045016E-02  4.10826617E-04
  2.26082329E-03  4.47475457E-03 -2.43118770E-02 -7.09696957E-02 -9.72089495E-03
  5.49729427E-02 -5.52342502E-02  2.39528788E-01  5.01208491E-03  1.03312354E-02
 -4.48228716E-02 -3.21571388E-03 -2.09057014E-02  1.48287534E-03 -5.18618542E-04
  4.82137718E-03  1.66301368E-01  7.73153761E-02 -7.05468757E-03 -1.56957425E-03
  6.80430395E-03  6.64612619E-02  1.25288879E-01  1.60182982E-01  2.08601917E-01
 -4.84193926E-02  2.09899669E-01  1.24044656E-01 -2.85622503E-02  1.23817760E-01
 -2.76624266E-03 -1.30027051E-02  2.51173371E-03 -5.51749863E-03  2.99929147E-03
 -2.84716389E-01 -1.41093851E-01 -9.22169513E-03  1.43445508E-03 -6.22342363E-03
  2.70563605E-01  1.31143529E-01  8.93288335E-03  1.39900734E-03 -6.06360287E-03
 -4.53043119E-02  1.38110813E-01  1.18737248E-01  1.37283866E-01 -4.90215269E-03
  2.12779105E-02  1.16112714E-03  5.50296729E-03 -2.38498965E-02 -4.16739042E-03
  1.28639486E-03  1.64324648E-03  4.71696278E-04 -2.96679840E-04  4.27255747E-03
  1.27934427E-02  6.51290181E-02  8.20645035E-02  1.19937632E-02 -5.20097702E-02
  3.58639738E-02 -7.37900765E-03  3.19942784E-02 -3.38827406E-02  1.63149163E-02
  8.88478264E-03  2.22096574E-02 -3.76403127E-03 -2.11523157E-01 -1.27636203E-01
  4.41958576E-03  3.77396522E-04 -1.63613179E-03  1.32437253E-03  6.77921891E-03
 -4.08363402E-02  4.93765826E-01  8.57351004E-02 -3.71803812E-01  3.82788128E-01
  5.97572572E-02 -2.59151806E-01  1.57452672E-02 -5.97169045E-03 -4.05941525E-03
 -1.06049799E-02  1.37769951E-03 -4.29549356E-02 -9.01737728E-02  2.04703483E-03
  5.71769989E-04 -2.47920085E-03 -1.07300220E-02 -7.89549328E-02 -4.10159874E-04
 -7.79347780E-05  3.39012112E-04  5.17304957E-06 -1.14070490E-05 -1.03694590E-05
  3.89023386E-06 -3.94356515E-01 -9.09466071E-02  3.26287099E-06 -3.21977677E-01
 -7.42485246E-02  1.15206294E-03 -3.22971299E-03  2.73147157E-03  6.64684365E-04
 -1.40042182E-02  1.58283079E-06  4.40445066E-06 -1.13225411E-06  6.71223526E-06
  1.08552233E-01  2.50355907E-02 -4.48697649E-07 -4.75011187E-02 -1.09586420E-02
  8.69470029E-03  7.78551355E-03  2.06092709E-02  5.02154620E-03  3.37563017E-02
 -3.66576257E-06 -3.18080975E-06  1.09289763E-07 -7.35304994E-03 -1.69593794E-03
 -2.32938622E-08 -2.90709830E-07  1.73293127E-06  1.59563823E-05  4.79741742E-01
  1.10638738E-01  1.17421094E-05  3.76990524E-01  8.69415004E-02 -4.96205965E-03
 -1.90873640E-03 -1.17614717E-02 -2.86530262E-03 -8.27496101E-03  4.50610459E-06
  5.02734886E-06  4.71869798E-07 -1.39399791E-02 -3.21443973E-03  4.29997227E-06
 -4.71627840E-06 -2.28790522E-09 -1.19317791E-02 -2.75217099E-03 -7.39499614E-06
  1.40243289E-05  5.50768271E-05 -7.67120121E-06  3.87671035E-01  8.94050346E-02
 -1.53270510E-05  5.17904982E-01  1.19444244E-01  2.85022467E-04 -5.00140729E-03
  6.76525646E-04  1.63887312E-04 -2.16848475E-02 -5.17727312E-07 -2.55016558E-06
  8.23107349E-06  2.06775659E-06  4.52298055E-01  1.04316301E-01 -7.89603408E-06
 -4.89343367E-01 -1.12862944E-01  6.09363671E-03 -1.83661384E-03  1.44431921E-02
  3.51776592E-03 -7.96528231E-03 -2.98410865E-06 -3.11069935E-06 -1.37610094E-07
 -2.51829593E-02 -5.80802309E-03  1.57077014E-07  2.48432019E-07  2.38277214E-06
  1.33958375E-06  3.20145883E-01  7.38373050E-02  1.09089752E-06  3.24627522E-01
  7.48700671E-02  1.56777202E-03  2.07193385E-04  3.71585809E-03  9.05123657E-04
  8.97912418E-04 -1.47606391E-05 -2.58139395E-05  2.38528344E-07  2.03651671E-02
  4.69635026E-03 -1.25236759E-05 -2.84270031E-05 -1.64873031E-07  1.99470916E-02
  4.60072773E-03  2.68472518E-02 -4.79688663E-02 -4.28965872E-01  1.12939047E-01
 -3.09357936E-02  1.34164753E-01  2.87038745E-01 -8.16187202E-02  3.53980447E-01
  6.36541314E-03  1.40303851E-02 -1.74035197E-03 -3.88208457E-03 -3.23611820E-03
 -8.33469731E-02 -1.55883814E-01 -1.01268186E+00  1.24947888E-01  5.70378444E-02
 -2.47292883E-01 -1.76413852E-01 -8.01944721E-02  3.47670312E-01 -7.08626167E-04
 -1.31032362E-02  1.61129517E-04  5.68517430E-04  3.02165628E-03  1.55741663E-01
  1.33823869E+00  6.12468437E-03  2.35174791E-03 -1.01987655E-02 -1.08820586E-02
 -2.90059501E-02 -1.01007447E-02  5.13944435E-02  1.58480830E-02 -6.87082611E-02
  5.38854233E-02  2.06802486E-02 -8.96545036E-02 -3.36637793E-03 -7.92158648E-04
  5.11057113E-04  3.73313326E-03  1.82584416E-04  5.28349379E-02  8.22244303E-01
  4.92576229E-03  2.08963247E-03 -9.06094650E-03 -2.83211323E-02 -1.01659862E-01
  4.29429748E-03 -1.11082812E-03  4.81689728E-03 -1.37876387E-01  2.88867444E-01
  2.06180941E+00 -1.81708769E-01 -3.41704645E-03  1.47185268E-02 -5.10965643E-01
 -1.43111564E-02  6.17714780E-02 -4.10831816E-03  5.35035807E-03  3.26069340E-03
 -6.27122712E-03 -1.23348107E-03 -4.16674849E-02 -8.87706820E-02 -3.74586059E-01
 -1.48821449E-02  1.75388472E-02 -7.60874438E-02 -6.75063060E-03 -3.42343672E-02
  1.48531807E-01 -2.32233948E-03 -6.06589658E-03  4.88286912E-04  2.01641024E-03
  1.40004146E-03  9.48450395E-02  5.36793638E-01  1.17746367E-02 -2.98594658E-04
  1.29754624E-03  3.49501816E-03  1.22032236E-02 -2.44126967E-02 -4.83697942E-02
 -7.19718849E-03  3.11825204E-02 -2.80327778E-02 -4.53186053E-03  1.96152818E-02
 -1.13183449E-03  1.04583793E-03  3.51900565E-04  5.14926905E-04 -2.41228202E-04
 -5.80257157E-02 -1.39483952E+00  1.54562433E-03 -2.55418319E-03  1.10734883E-02
 -1.12376686E-01 -1.56606937E+00  4.54891533E-03  2.21734579E-03 -9.61646135E-03
  1.34321222E-02 -2.28225688E-02 -3.16217272E-01 -7.94363264E-02 -7.70072905E-02
  3.33921654E-01 -3.54213012E-01 -2.78319956E-01  1.20684230E+00 -6.41320055E-03
  2.03629768E-02  1.80021442E-03  3.71776596E-03 -4.69603250E-03  7.35233583E-02
  1.51340546E-01  9.00128897E-01 -5.70458459E-02 -4.50818885E-03  1.95409714E-02
  3.67272450E-02  4.80859334E-02 -2.08495236E-01 -3.85572045E-03 -3.35990447E-02
  2.47597363E-03 -3.48127556E-03  7.74875636E-03  1.05419214E-03 -5.99987024E-01
  1.24879911E-02 -9.53362288E-04  4.12971997E-03 -2.48058536E-02 -6.20743539E-02
 -9.77276373E-02  9.49938235E-02 -3.39588378E-02  1.47223920E-01  9.68201037E-02
 -3.38564967E-02  1.46784469E-01  1.00764169E-03  2.71279303E-03 -5.68471444E-04