0002_q000_m01_k00_opt_uwb97xd_def2svpd/0002_q000_m01_k00_force_uhf_def2t
Force     UHF                                                         Gen                 
Number of atoms                            I                6
Info1-9                                    I   N=           9
          13           9           0           0           0         100
           5           1           2
Full Title                                 C   N=           8
0002_q000_m01_k00_opt_uwb97xd_def2svpd/0002_q000_m01_k00_for
ce_uhf_def2tzvp stable-force        
Route                                      C   N=          15
#p uhf/chkbasis force guess=read geom=check scf=(maxcycle=90
0,verytightlineq,xqc) integral=grid=ultrafine symmetry=None 
density=current pop=(cm5,hlygat,mbs,npa) output=wfx         
Charge                                     I                0
Multiplicity                               I                1
Number of electrons                        I               24
Number of alpha electrons                  I               12
Number of beta electrons                   I               12
Number of basis functions                  I              111
Number of independent functions            I              111
Number of point charges in /Mol/           I                0
Number of translation vectors              I                0
Atomic numbers                             I   N=           6
           6           7           1           8           1           1
Nuclear charges                            R   N=           6
  6.00000000E+00  7.00000000E+00  1.00000000E+00  8.00000000E+00  1.00000000E+00
  1.00000000E+00
Current cartesian coordinates              R   N=          18
  1.76526120E+00 -9.56393551E-02  1.00895621E-01  4.21476231E+00 -1.14759850E-01
  1.83592472E-01  5.12197023E+00  2.73169593E-01 -1.49843980E+00  5.62552287E+00
 -5.41213095E-01  2.03257921E+00  8.69741593E-01  3.19707205E-01 -1.70041362E+00
  7.24411360E-01 -4.93862518E-01  1.82729168E+00
Number of symbols in /Mol/                 I                0
Int Atom Types                             I   N=           6
           0           0           0           0           0           0
Force Field                                I                0
Atom Types                                 C   N=           6
                                                            
            
MM charges                                 R   N=           6
  0.00000000E+00  0.00000000E+00  0.00000000E+00  0.00000000E+00  0.00000000E+00
  0.00000000E+00
Integer atomic weights                     I   N=           6
          12          14           1          16           1           1
Real atomic weights                        R   N=           6
  1.20000000E+01  1.40030740E+01  1.00782504E+00  1.59949146E+01  1.00782504E+00
  1.00782504E+00
Atom fragment info                         I   N=           6
           0           0           0           0           0           0
Atom residue num                           I   N=           6
           0           0           0           0           0           0
Nuclear spins                              I   N=           6
           0           2           1           0           1           1
Nuclear ZEff                               R   N=           6
 -3.60000000E+00 -4.55000000E+00 -1.00000000E+00 -5.60000000E+00 -1.00000000E+00
 -1.00000000E+00
Nuclear ZNuc                               R   N=           6
  6.00000000E+00  7.00000000E+00  1.00000000E+00  8.00000000E+00  1.00000000E+00
  1.00000000E+00
Nuclear QMom                               R   N=           6
  0.00000000E+00  2.04400000E+00  0.00000000E+00  0.00000000E+00  0.00000000E+00
  0.00000000E+00
Nuclear GFac                               R   N=           6
  0.00000000E+00  4.03761000E-01  2.79284600E+00  0.00000000E+00  2.79284600E+00
  2.79284600E+00
MicOpt                                     I   N=           6
          -1          -1          -1          -1          -1          -1
Number of residues                         I                0
Number of secondary structures             I                0
Number of contracted shells                I               45
Number of primitive shells                 I               78
Pure/Cartesian d shells                    I                0
Pure/Cartesian f shells                    I                0
Highest angular momentum                   I                3
Largest degree of contraction              I                6
Shell types                                I   N=          45
           0           0           0           0           0           1
           1           1          -2          -2          -3           0
           0           0           0           0           1           1
           1          -2          -2          -3           0           0
           0           1           0           0           0           0
           0           1           1           1          -2          -2
          -3           0           0           0           1           0
           0           0           1
Number of primitives per shell             I   N=          45
           6           2           1           1           1           4
           1           1           1           1           1           6
           2           1           1           1           4           1
           1           1           1           1           3           1
           1           1           6           2           1           1
           1           4           1           1           1           1
           1           3           1           1           1           3
           1           1           1
Shell to atom map                          I   N=          45
           1           1           1           1           1           1
           1           1           1           1           1           2
           2           2           2           2           2           2
           2           2           2           2           3           3
           3           3           4           4           4           4
           4           4           4           4           4           4
           4           5           5           5           5           6
           6           6           6
Primitive exponents                        R   N=          78
  1.35753497E+04  2.03523337E+03  4.63225624E+02  1.31200196E+02  4.28530159E+01
  1.55841858E+01  6.20671385E+00  2.57648965E+00  5.76963394E-01  2.29728314E-01
  9.51644400E-02  3.46972322E+01  7.95826228E+00  2.37808269E+00  8.14332082E-01
  2.88875473E-01  1.00568237E-01  1.09700000E+00  3.18000000E-01  7.61000000E-01
  1.97308006E+04  2.95789587E+03  6.73221336E+02  1.90682495E+02  6.22954419E+01
  2.26541612E+01  8.97914774E+00  3.68630024E+00  8.46600768E-01  3.36471338E-01
  1.36476537E-01  4.92003805E+01  1.13467905E+01  3.42739724E+00  1.17855251E+00
  4.16422050E-01  1.42608260E-01  1.65400000E+00  4.69000000E-01  1.09300000E+00
  3.40613410E+01  5.12357460E+00  1.16466260E+00  3.27230410E-01  1.03072410E-01
  8.00000000E-01  2.70323826E+04  4.05238714E+03  9.22327227E+02  2.61240710E+02
  8.53546414E+01  3.10350352E+01  1.22608607E+01  4.99870760E+00  1.17031082E+00
  4.64747410E-01  1.85045364E-01  6.32749548E+01  1.46270494E+01  4.45012235E+00
  1.52757996E+00  5.29351179E-01  1.74784213E-01  2.31400000E+00  6.45000000E-01
  1.42800000E+00  3.40613410E+01  5.12357460E+00  1.16466260E+00  3.27230410E-01
  1.03072410E-01  8.00000000E-01  3.40613410E+01  5.12357460E+00  1.16466260E+00
  3.27230410E-01  1.03072410E-01  8.00000000E-01
Contraction coefficients                   R   N=          78
  6.06455036E-04  4.69790889E-03  2.43324776E-02  9.73999683E-02  3.01955843E-01
  6.62336091E-01  6.55953085E-01  3.75856333E-01  1.00000000E+00  1.00000000E+00
  1.00000000E+00  1.13272200E-02  7.61696592E-02  3.01922522E-01  7.27850273E-01
  1.00000000E+00  1.00000000E+00  1.00000000E+00  1.00000000E+00  1.00000000E+00
  5.86264026E-04  4.54288206E-03  2.35584135E-02  9.47091933E-02  2.97197849E-01
  6.69162469E-01  6.45966836E-01  3.87005744E-01  1.00000000E+00  1.00000000E+00
  1.00000000E+00  1.14488251E-02  7.84223380E-02  3.08180947E-01  7.20271964E-01
  1.00000000E+00  1.00000000E+00  1.00000000E+00  1.00000000E+00  1.00000000E+00
  2.54393072E-02  1.90085949E-01  8.52441130E-01  1.00000000E+00  1.00000000E+00
  1.00000000E+00  5.72273352E-04  4.43532335E-03  2.30201077E-02  9.28224907E-02
  2.93785000E-01  6.74016045E-01  6.38399370E-01  3.95345871E-01  1.00000000E+00
  1.00000000E+00  1.00000000E+00  1.20183322E-02  8.30054218E-02  3.19917439E-01
  7.07155429E-01  1.00000000E+00  1.00000000E+00  1.00000000E+00  1.00000000E+00
  1.00000000E+00  2.54393072E-02  1.90085949E-01  8.52441130E-01  1.00000000E+00
  1.00000000E+00  1.00000000E+00  2.54393072E-02  1.90085949E-01  8.52441130E-01
  1.00000000E+00  1.00000000E+00  1.00000000E+00
Coordinates of each shell                  R   N=         135
  1.76526120E+00 -9.56393551E-02  1.00895621E-01  1.76526120E+00 -9.56393551E-02
  1.00895621E-01  1.76526120E+00 -9.56393551E-02  1.00895621E-01  1.76526120E+00
 -9.56393551E-02  1.00895621E-01  1.76526120E+00 -9.56393551E-02  1.00895621E-01
  1.76526120E+00 -9.56393551E-02  1.00895621E-01  1.76526120E+00 -9.56393551E-02
  1.00895621E-01  1.76526120E+00 -9.56393551E-02  1.00895621E-01  1.76526120E+00
 -9.56393551E-02  1.00895621E-01  1.76526120E+00 -9.56393551E-02  1.00895621E-01
  1.76526120E+00 -9.56393551E-02  1.00895621E-01  4.21476231E+00 -1.14759850E-01
  1.83592472E-01  4.21476231E+00 -1.14759850E-01  1.83592472E-01  4.21476231E+00
 -1.14759850E-01  1.83592472E-01  4.21476231E+00 -1.14759850E-01  1.83592472E-01
  4.21476231E+00 -1.14759850E-01  1.83592472E-01  4.21476231E+00 -1.14759850E-01
  1.83592472E-01  4.21476231E+00 -1.14759850E-01  1.83592472E-01  4.21476231E+00
 -1.14759850E-01  1.83592472E-01  4.21476231E+00 -1.14759850E-01  1.83592472E-01
  4.21476231E+00 -1.14759850E-01  1.83592472E-01  4.21476231E+00 -1.14759850E-01
  1.83592472E-01  5.12197023E+00  2.73169593E-01 -1.49843980E+00  5.12197023E+00
  2.73169593E-01 -1.49843980E+00  5.12197023E+00  2.73169593E-01 -1.49843980E+00
  5.12197023E+00  2.73169593E-01 -1.49843980E+00  5.62552287E+00 -5.41213095E-01
  2.03257921E+00  5.62552287E+00 -5.41213095E-01  2.03257921E+00  5.62552287E+00
 -5.41213095E-01  2.03257921E+00  5.62552287E+00 -5.41213095E-01  2.03257921E+00
  5.62552287E+00 -5.41213095E-01  2.03257921E+00  5.62552287E+00 -5.41213095E-01
  2.03257921E+00  5.62552287E+00 -5.41213095E-01  2.03257921E+00  5.62552287E+00
 -5.41213095E-01  2.03257921E+00  5.62552287E+00 -5.41213095E-01  2.03257921E+00
  5.62552287E+00 -5.41213095E-01  2.03257921E+00  5.62552287E+00 -5.41213095E-01
  2.03257921E+00  8.69741593E-01  3.19707205E-01 -1.70041362E+00  8.69741593E-01
  3.19707205E-01 -1.70041362E+00  8.69741593E-01  3.19707205E-01 -1.70041362E+00
  8.69741593E-01  3.19707205E-01 -1.70041362E+00  7.24411360E-01 -4.93862518E-01
  1.82729168E+00  7.24411360E-01 -4.93862518E-01  1.82729168E+00  7.24411360E-01
 -4.93862518E-01  1.82729168E+00  7.24411360E-01 -4.93862518E-01  1.82729168E+00
Num ILSW                                   I              100
ILSW                                       I   N=         100
           1           0           0           0           2           0
           0           0           0           0           0          -1
           5           0           0           0           2           0
           0           0           0           0           1           0
           1           1           0           0           0           0
           0           0      100000           0          -1           0
           0           0           0           0           0           0
           0           0           0           1           0           0
           0 -2000000000           1           0           0           0
           0           0           4          52           0           0
           0           0           0           0           0           0
           0           0           0           6           0           1
           0           0           0           0           0           0
           0           0           0           0           0           0
           0           0           0           0           0           0
           0           0           0           0           0           0
           0           0           0           0
Num RLSW                                   I               52
RLSW                                       R   N=          52
  1.00000000E+00  1.00000000E+00  1.00000000E+00  1.00000000E+00  1.00000000E+00
  0.00000000E+00  0.00000000E+00  1.00000000E+00  0.00000000E+00  0.00000000E+00
  0.00000000E+00  0.00000000E+00  1.00000000E+00  0.00000000E+00  0.00000000E+00
  0.00000000E+00  0.00000000E+00  1.00000000E+00  0.00000000E+00  0.00000000E+00
  0.00000000E+00  0.00000000E+00  1.00000000E+00  0.00000000E+00  0.00000000E+00
  0.00000000E+00  0.00000000E+00  1.00000000E+00  0.00000000E+00  0.00000000E+00
  0.00000000E+00  0.00000000E+00  1.00000000E+00  0.00000000E+00  0.00000000E+00
  0.00000000E+00  0.00000000E+00  0.00000000E+00  1.00000000E+00  1.00000000E+00
  0.00000000E+00  1.00000000E+00  0.00000000E+00  0.00000000E+00  0.00000000E+00
  0.00000000E+00  0.00000000E+00  0.00000000E+00  0.00000000E+00  0.00000000E+00
  0.00000000E+00  0.00000000E+00
MxBond                                     I                3
NBond                                      I   N=           6
           3           3           1           1           1           1
IBond                                      I   N=          18
           2           5           6           1           3           4
           2           0           0           2           0           0
           1           0           0           1           0           0
RBond                                      R   N=          18
  2.00000000E+00  1.00000000E+00  1.00000000E+00  2.00000000E+00  1.00000000E+00
  2.00000000E+00  1.00000000E+00  0.00000000E+00  0.00000000E+00  2.00000000E+00
  0.00000000E+00  0.00000000E+00  1.00000000E+00  0.00000000E+00  0.00000000E+00
  1.00000000E+00  0.00000000E+00  0.00000000E+00
Virial Ratio                               R      2.000567082438013E+00
SCF Energy                                 R     -1.688938362597140E+02
Total Energy                               R     -1.688938362597140E+02
S**2                                       R      4.756117190863716E-01
S**2 after annihilation                    R      3.626620191360993E-02
RMS Force                                  R      1.523927906424763E-02
RMS Density                                R      1.103230453764396E-09
Job Status                                 I                1
Nuclear derivative order                   I                1
External E-field                           R   N=          35
  0.00000000E+00  0.00000000E+00  0.00000000E+00  0.00000000E+00  0.00000000E+00
  0.00000000E+00  0.00000000E+00  0.00000000E+00  0.00000000E+00  0.00000000E+00
  0.00000000E+00  0.00000000E+00  0.00000000E+00  0.00000000E+00  0.00000000E+00
  0.00000000E+00  0.00000000E+00  0.00000000E+00  0.00000000E+00  0.00000000E+00
  0.00000000E+00  0.00000000E+00  0.00000000E+00  0.00000000E+00  0.00000000E+00
  0.00000000E+00  0.00000000E+00  0.00000000E+00  0.00000000E+00  0.00000000E+00
  0.00000000E+00  0.00000000E+00  0.00000000E+00  0.00000000E+00  0.00000000E+00
IOpCl                                      I                1
IROHF                                      I                0
Alpha Orbital Energies                     R   N=         111
 -2.05335613E+01 -1.56994909E+01 -1.12848253E+01 -1.44350441E+00 -1.14436097E+00
 -8.89856764E-01 -7.47575987E-01 -6.68394973E-01 -5.86136835E-01 -5.86039285E-01
 -4.36773552E-01 -3.45249096E-01  1.27309212E-01  1.44660632E-01  1.75850503E-01
  2.08225357E-01  2.51392467E-01  2.86487355E-01  3.26391349E-01  3.49920602E-01
  4.47995732E-01  5.31256071E-01  5.38286258E-01  5.80177382E-01  5.85659497E-01
  6.37162657E-01  6.54232866E-01  6.84529535E-01  6.99648234E-01  7.19681239E-01
  7.62242185E-01  7.89026120E-01  8.61493655E-01  9.44081734E-01  9.55982130E-01
  1.10704207E+00  1.18184768E+00  1.26010574E+00  1.28635691E+00  1.43985952E+00
  1.57339567E+00  1.59119671E+00  1.68023829E+00  1.68846912E+00  1.77817783E+00
  1.81235883E+00  1.84082808E+00  1.86315656E+00  2.01567960E+00  2.02206667E+00
  2.05737155E+00  2.08611708E+00  2.12405026E+00  2.25393943E+00  2.31198188E+00
  2.35335365E+00  2.46079896E+00  2.48651577E+00  2.55024295E+00  2.58400104E+00
  2.72492299E+00  2.78857545E+00  2.83689396E+00  2.91732685E+00  2.95105185E+00
  3.12082612E+00  3.16133980E+00  3.17821688E+00  3.20994219E+00  3.23976526E+00
  3.34547296E+00  3.37430582E+00  3.39151768E+00  3.41327252E+00  3.54300098E+00
  3.59992881E+00  3.64265096E+00  3.78365959E+00  3.94164904E+00  4.00876022E+00
  4.12412165E+00  4.27941114E+00  4.51149906E+00  4.51307301E+00  4.62272081E+00
  4.80717582E+00  5.02745362E+00  5.11866526E+00  5.17011911E+00  5.20216724E+00
  5.30757585E+00  5.33513003E+00  5.48320946E+00  5.59620546E+00  5.66225946E+00
  5.71697329E+00  5.82547254E+00  5.84609081E+00  6.04895857E+00  6.24389111E+00
  6.77877924E+00  6.86021062E+00  6.89354427E+00  7.03134647E+00  7.36345782E+00
  7.49498435E+00  7.62532895E+00  7.88166060E+00  2.34757961E+01  3.33668029E+01
  4.54619772E+01
Beta Orbital Energies                      R   N=         111
 -2.05535400E+01 -1.57132946E+01 -1.12671296E+01 -1.48002958E+00 -1.16477387E+00
 -8.80126611E-01 -7.44605596E-01 -6.78604284E-01 -6.73809840E-01 -5.84672667E-01
 -4.56186545E-01 -4.09913860E-01  1.22981942E-01  1.26419747E-01  1.83064936E-01
  2.10528075E-01  2.53801233E-01  2.92597339E-01  3.50357963E-01  3.89642494E-01
  4.45822379E-01  5.23569879E-01  5.29669309E-01  5.82786141E-01  6.02975627E-01
  6.32655242E-01  6.52744600E-01  6.54041930E-01  7.07873449E-01  7.19253889E-01
  7.55768619E-01  8.05398340E-01  8.63822809E-01  9.55846306E-01  9.68394486E-01
  1.11716186E+00  1.18515450E+00  1.26849683E+00  1.27054418E+00  1.44531860E+00
  1.57324107E+00  1.58886525E+00  1.68565820E+00  1.74207395E+00  1.77442919E+00
  1.80842332E+00  1.82050849E+00  1.86890887E+00  2.01068372E+00  2.02839656E+00
  2.05675091E+00  2.08186815E+00  2.12309489E+00  2.23145285E+00  2.31185029E+00
  2.34874565E+00  2.44442952E+00  2.48066430E+00  2.51410956E+00  2.59051179E+00
  2.72669569E+00  2.79143913E+00  2.83469770E+00  2.92112102E+00  2.94959173E+00
  3.10721087E+00  3.11694992E+00  3.19449900E+00  3.24170275E+00  3.27997297E+00
  3.34035266E+00  3.37396463E+00  3.38060527E+00  3.43584812E+00  3.55387326E+00
  3.61642485E+00  3.65174646E+00  3.79501291E+00  3.94632952E+00  4.00738315E+00
  4.12716171E+00  4.28673657E+00  4.49581698E+00  4.50740904E+00  4.61218141E+00
  4.80530411E+00  5.00029621E+00  5.10116261E+00  5.16738177E+00  5.17738404E+00
  5.29313425E+00  5.33221537E+00  5.47291237E+00  5.58513640E+00  5.63863921E+00
  5.70196226E+00  5.81924791E+00  5.83902542E+00  6.03447769E+00  6.23109718E+00
  6.74642083E+00  6.81409449E+00  6.84912641E+00  7.02427057E+00  7.33521597E+00
  7.49002530E+00  7.60883929E+00  7.87404126E+00  2.34877065E+01  3.33582090E+01
  4.54503547E+01
Alpha MO coefficients                      R   N=       12321
  7.35463970E-06 -3.04210384E-05  5.85843352E-04 -1.53249093E-03  5.97147408E-05
  9.01293356E-05 -6.42164265E-06  2.78295317E-05 -2.32702852E-04 -6.57594479E-05
  2.85251877E-04 -2.63876766E-04 -1.47751517E-04  6.40653211E-04  1.63742872E-05
  3.07194488E-05 -7.66420622E-06  3.11188829E-06 -7.08507533E-06 -3.44696524E-04
  2.76540935E-04  2.11417663E-04 -2.70981030E-04 -6.37737261E-05 -8.42298130E-06
 -3.69690902E-05 -3.90228113E-06  2.17259141E-05  4.46380608E-05 -1.01910352E-04
 -6.32365186E-06  1.43727105E-05 -1.97506538E-05 -1.30978150E-03  6.34658132E-03
 -2.03967949E-03  2.64877537E-05 -1.09823295E-05  4.76201468E-05  2.69830030E-03
 -8.11195456E-04  3.51713284E-03 -1.04549980E-03  4.16129946E-04 -1.80423868E-03
  5.19388618E-05  1.20679818E-04 -3.71104643E-05  6.23807898E-05 -2.78352717E-05
  1.12240813E-03  1.98786474E-03 -6.26911728E-04  6.29470691E-04 -4.58481510E-04
  3.11213445E-05  1.94110649E-04 -7.56187513E-05  1.27340364E-04 -8.21622606E-05
  2.47932583E-05 -3.89653045E-05  1.22650398E-04 -5.41091505E-04  3.40949398E-05
  1.34210066E-04  2.03888977E-05 -8.84033153E-05  4.35850111E-01  6.42479066E-01
  2.23746767E-02 -1.31543242E-02  4.79133518E-03 -1.47614174E-03  4.30597060E-04
 -1.86694406E-03  3.26721149E-03 -9.63346186E-04  4.17680268E-03 -7.88801463E-04
  2.08301377E-04 -9.03142981E-04  2.52693180E-04  1.06021574E-04 -2.05111994E-04
  4.04347778E-04 -2.44594937E-05 -7.58772527E-04 -1.56464301E-03  4.39249137E-04
 -4.88914917E-04  3.60871897E-04  3.10855380E-06  1.79397691E-04 -6.09562096E-05
  1.35788789E-04 -8.16162229E-05  4.19573683E-05 -4.08570200E-05  1.20476347E-05
  4.48185001E-04  1.10812058E-04  1.18320319E-04 -4.19989536E-06  1.82329720E-05
  1.37115200E-05  4.89130204E-04 -5.79819779E-04  7.97271361E-05  1.08306480E-05
 -4.69318415E-05  1.96373787E-06  4.82515193E-05  1.15788306E-04  1.86985491E-04
 -2.23719498E-03  1.10087463E-04  3.39717675E-07 -1.48088004E-06  8.41754451E-05
 -1.32617869E-05  5.74723902E-05 -7.19860999E-04  1.63492354E-05 -7.07666716E-05
  6.94300045E-05 -1.97466695E-05  3.56433080E-07 -1.21718105E-04  4.55966738E-06
  4.43227649E-06  4.43748693E-05  1.85872817E-06 -1.53086331E-05 -1.02317307E-05
  2.32149877E-05  7.12311963E-05 -3.70126652E-06 -2.64891033E-05  2.61102048E-07
 -9.28314753E-05  7.42615245E-06  4.49114124E-01  6.30293173E-01  1.93056210E-02
 -6.20318784E-03  5.24611769E-03  1.20518275E-04 -4.96664726E-05  2.15472730E-04
  6.50980243E-04 -1.18950922E-04  5.15652021E-04 -5.93160596E-04  3.95228451E-05
 -1.71290215E-04  2.06592532E-04  1.33490612E-04 -2.11281333E-04  5.09524194E-04
 -3.08020783E-05  2.74589373E-04  2.90677429E-04 -1.57430623E-04  1.70668829E-04
 -6.70421342E-05 -4.86200563E-05  4.69329652E-04  8.62687442E-07  7.13160612E-05
 -1.44731392E-04 -1.20783417E-04 -2.02927743E-05  7.86744548E-05 -1.07551904E-04
 -5.72125288E-04  1.55144264E-04  4.75184940E-05 -2.06036074E-04 -8.35370015E-05
 -1.55685168E-04  4.86748466E-04 -8.32374032E-04 -5.67992042E-04 -1.76541597E-04
  5.00997801E-05 -2.17220825E-04  4.99916838E-04 -1.39218702E-04  6.03620388E-04
  5.20951287E-05 -8.53189408E-06  3.69844447E-05 -9.80373292E-06  1.51385139E-06
  6.80870376E-06 -1.09705429E-05 -3.48742728E-07 -1.96789249E-04 -4.33453790E-04
  1.24617021E-04 -1.70717732E-04  9.99714390E-05 -5.28116415E-06  1.45948126E-04
 -4.03603040E-05  1.00975651E-04 -6.39838270E-05  2.60432759E-05 -3.02066114E-05
  1.26410856E-05 -1.10392459E-04  2.60521201E-04 -2.95294198E-05  3.55062830E-06
 -1.53928600E-05  2.77115960E-06 -6.91409600E-05  2.72608539E-04 -5.74666498E-05
 -3.36976025E-07  1.46713748E-06  4.67217110E-01  6.12289560E-01  2.06300366E-02
 -5.28409105E-03  3.88129945E-03  9.02772121E-04  1.84512991E-05 -8.02405681E-05
  1.67596640E-03 -3.75528207E-05  1.62722882E-04 -3.72197121E-04 -9.71419747E-05
  4.21049500E-04 -1.81886701E-04  9.47128260E-06  4.17055696E-05  1.43818432E-04
 -2.19909203E-06 -4.28369207E-04  1.50638046E-04 -3.03092482E-05  8.66346297E-04
 -3.47623364E-05 -7.41628184E-05 -7.89985809E-04  1.39641106E-05  7.95773056E-05
  2.03390532E-04  3.38082554E-04 -2.22252222E-05 -1.69287897E-04 -2.87838621E-04
  4.30241351E-04 -1.55558277E-03 -5.33867347E-04 -4.28644402E-04  8.32732997E-06
 -3.60857271E-05  2.53651753E-03 -1.40042672E-04  6.06992647E-04 -6.74286687E-04
  1.26989100E-04 -5.50533419E-04 -5.91658988E-05  7.20457504E-06  1.97587245E-05
  2.13617994E-05 -1.66085984E-06  9.55927780E-04  2.88316306E-04 -2.29683686E-04
 -7.12804670E-04 -6.64652808E-05  8.32574834E-06  6.19343808E-05 -2.19559626E-05
  3.80518516E-05 -3.35734928E-05  3.25725068E-05 -1.16203120E-05 -1.33632298E-04
 -2.50032164E-04 -6.65468715E-05  1.70281295E-04  4.86032083E-06 -2.10795051E-05
  5.34929523E-06 -1.01746965E-05  3.30664922E-04 -1.30729459E-03  7.09956996E-04
 -1.68563076E-05  5.97204115E-06 -2.58890758E-05  6.06844508E-04 -1.26486293E-04
  5.48401384E-04  4.83429929E-05  7.12551260E-05 -3.08973304E-04 -1.91222058E-05
  1.14382096E-05  9.42148763E-06 -5.55923776E-06 -2.63788234E-06  3.17635167E-05
 -3.10980464E-04  1.24303803E-05 -1.06020735E-04  7.17248340E-05 -3.08404467E-05
  4.26314574E-05  7.20622486E-06  2.98958437E-05 -1.52579442E-05 -3.89647950E-06
 -8.26720125E-06 -8.69203818E-05  2.97510612E-04 -7.45183181E-04 -9.07615146E-05
  8.43676965E-05 -3.65898487E-04 -7.06675275E-05  2.70674052E-04 -1.25979411E-03
 -1.28433648E-04 -7.14185151E-05  3.09621046E-04 -2.29274738E-02 -5.00304233E-02
  7.82843107E-02  4.64083950E-02  1.38039657E-02  5.09986259E-02 -1.42845433E-03
  6.18935544E-03  2.21023118E-02 -1.01888848E-03  4.41689503E-03  2.74351808E-03
  4.97889877E-04 -2.15933082E-03 -3.44505023E-03  1.44028435E-03  3.10446784E-05
  5.83932508E-03 -3.32415254E-04 -4.31811907E-03  1.46363783E-03  1.49774777E-03
  1.33014518E-03 -3.37731280E-04 -4.15677351E-04 -1.03661857E-03  1.32695516E-05
  5.96181133E-04 -8.25744535E-05  1.61497135E-03 -1.69590217E-04 -7.14361188E-02
 -1.66389476E-01  2.47396901E-01  2.75514938E-01  2.65087676E-02  3.64832328E-02
 -1.58267913E-02  6.86234270E-02  1.13290381E-02 -8.32061402E-03  3.60785916E-02
  2.64357214E-03 -2.25064640E-05  9.69861619E-05  5.40837309E-03  8.01048103E-03
 -4.35191475E-03  8.49777005E-03 -1.84772090E-03  2.03430438E-03  6.35972317E-03
 -3.71364858E-03  1.17217002E-02 -1.46711732E-03 -6.45863903E-04  6.79907899E-03
 -3.32391896E-04  1.73984556E-03 -2.06772688E-03 -1.84690325E-03 -5.07558368E-04
  3.85888028E-02  3.35718774E-02 -1.23646600E-03 -2.93801142E-03 -1.81514077E-03
  7.87029637E-03 -6.73258538E-02 -1.62309139E-01  2.21359134E-01  3.18937603E-01
  1.00340972E-01 -5.60724011E-02  1.66778417E-02 -7.23103949E-02 -5.59506462E-02
  1.64378089E-02 -7.12696517E-02 -6.35063383E-03  1.89493404E-03 -8.21578219E-03
  4.15896587E-03  6.33640403E-03 -2.77850406E-03  4.20255557E-03 -1.46148093E-03
  1.10311157E-02  2.02553593E-02 -6.97540731E-03  9.52824138E-03 -4.67178452E-03
  1.38529560E-04 -4.88868515E-03  1.19086140E-03 -2.95326143E-03  2.05453511E-03
 -5.75103365E-04  8.83837893E-04  7.19577439E-03  1.05447420E-02 -4.41241481E-03
  1.84567413E-03 -4.09234762E-04  1.77484549E-03  8.52948118E-03  1.16202184E-02
 -1.22177843E-03  2.23020952E-03  4.01708267E-04 -1.74143809E-03  6.62997519E-02
  1.46925792E-01 -2.29186093E-01 -2.01841958E-01 -3.71856840E-02 -9.49139495E-02
 -2.83665455E-03  1.23105834E-02 -3.21898345E-02 -2.52748153E-03  1.09631365E-02
 -3.04138065E-03 -2.90798984E-03  1.26097703E-02  5.89161965E-03  8.38736348E-04
  3.86198960E-04 -1.17902554E-02 -1.93013603E-04  1.01011843E-03  3.63641957E-03
 -6.17526381E-04  7.84735013E-04 -8.38689987E-04  1.06968375E-04  6.39460413E-03
 -1.46536827E-04  1.77080279E-04 -1.33785969E-03 -3.77089020E-03 -5.53076026E-05
  4.21035818E-02  9.83487332E-02 -1.39596410E-01 -2.21446712E-01 -4.75914525E-02
  1.68289496E-01 -2.45527626E-02  1.06446517E-01  1.36478432E-01 -1.72912229E-02
  7.49633429E-02  1.61830540E-02 -3.46910282E-04  1.50348274E-03  4.70939603E-03
  7.19253712E-03 -2.04292355E-04 -7.31840397E-03 -1.65856467E-03  8.09587058E-03
  3.88907457E-03  1.14127352E-03 -1.87076539E-02 -8.96346534E-04  4.70919268E-04
 -1.78875063E-03 -1.35078339E-03  2.40295201E-03 -6.42402705E-04  4.46226500E-03
 -7.32803227E-04 -4.54564340E-02 -5.10785923E-02 -2.14554057E-03  8.91805435E-03
  1.32474031E-03 -5.74418372E-03 -5.46394139E-02 -1.32672107E-01  1.87725688E-01
  2.71380064E-01  1.38200231E-01  3.24927711E-04  4.11255037E-03 -1.78322581E-02
 -7.58973934E-03  6.05350146E-03 -2.62475187E-02 -4.05561708E-03  1.62210276E-03
 -7.03357274E-03  2.38407458E-03  1.64695262E-03 -1.42069226E-03  1.70288642E-03
 -3.79866660E-04  7.59960162E-03  6.68585751E-03 -4.64824847E-03  5.91909753E-03
 -1.54208988E-03 -3.42946808E-04 -2.21718980E-03  6.74098036E-04 -1.03634212E-03
  8.85687134E-04 -1.06293224E-04  3.19184939E-04 -4.10810632E-02 -4.43546345E-02
  7.33489985E-03 -5.47649972E-03  1.39563642E-03 -6.05221938E-03 -3.21459295E-02
 -3.40618299E-02 -5.15110681E-03 -4.24010155E-03 -1.02701095E-03  4.45287563E-03
 -5.61296972E-02 -1.25632565E-01  1.92589074E-01  2.60174959E-01  7.67049638E-02
 -5.83433853E-02 -1.07928257E-02  4.67873898E-02 -4.35321698E-02 -7.87721603E-03
  3.41478835E-02 -3.64236702E-03 -2.02016717E-03  8.75671682E-03  5.06153515E-03
  2.92065029E-03 -2.14766617E-03  4.93638700E-05 -6.73457882E-04  5.85089660E-03
  2.77483290E-03 -1.74980187E-03 -2.95171651E-03 -6.39705083E-04 -1.68675217E-03
 -4.40444015E-03  6.05042480E-05  2.40333366E-03  1.22578246E-03  1.57691977E-03
 -6.83122198E-04  3.85393106E-02  9.11548577E-02 -1.38303505E-01 -1.99405667E-01
 -9.69745502E-02 -1.33169159E-01 -3.73642855E-02  1.62010200E-01 -1.13431083E-01
 -3.03843435E-02  1.31745070E-01 -6.50056538E-03 -6.23997991E-03  2.70560471E-02
 -5.10745521E-03  5.09430587E-03  2.34571725E-03 -7.83255742E-04 -1.17491271E-03
 -9.07508643E-03  4.07486207E-03  4.25444329E-03 -1.74676153E-03 -9.39751867E-04
  2.23363643E-03 -2.44076763E-03 -2.18324461E-03  1.66333768E-03  1.41975635E-03
 -1.60811240E-03 -5.51099096E-04 -1.28778226E-01 -1.68473533E-01 -2.66010326E-02
  1.06365834E-02  4.79271490E-03 -2.07807940E-02 -2.82882248E-02 -6.90320259E-02
  1.00476319E-01  1.53235610E-01  9.75702696E-02 -2.28573831E-02 -1.83145938E-02
  7.94100953E-02 -2.67669149E-02 -1.42069456E-02  6.16001609E-02 -9.37464185E-03
 -5.16599851E-03  2.23989674E-02 -2.98529762E-03 -6.61708588E-04  7.53686602E-04