0002_q000_m01_k00_opt_uwb97xd_def2svpd/0002_q000_m01_k00_force_uhf_def2t
Force     UHF                                                         Gen                 
Number of atoms                            I                6
Info1-9                                    I   N=           9
          13           9           0           0           0         100
           5           1           2
Full Title                                 C   N=           8
0002_q000_m01_k00_opt_uwb97xd_def2svpd/0002_q000_m01_k00_for
ce_uhf_def2tzvpd stable-force       
Route                                      C   N=          15
#p uhf/chkbasis force guess=read geom=check scf=(maxcycle=90
0,verytightlineq,xqc) integral=grid=ultrafine symmetry=None 
density=current pop=(cm5,hlygat,mbs,npa) output=wfx         
Charge                                     I                0
Multiplicity                               I                1
Number of electrons                        I               24
Number of alpha electrons                  I               12
Number of beta electrons                   I               12
Number of basis functions                  I              141
Number of independent functions            I              141
Number of point charges in /Mol/           I                0
Number of translation vectors              I                0
Atomic numbers                             I   N=           6
           6           7           1           8           1           1
Nuclear charges                            R   N=           6
  6.00000000E+00  7.00000000E+00  1.00000000E+00  8.00000000E+00  1.00000000E+00
  1.00000000E+00
Current cartesian coordinates              R   N=          18
  1.76526120E+00 -9.56393551E-02  1.00895621E-01  4.21476231E+00 -1.14759850E-01
  1.83592472E-01  5.12197023E+00  2.73169593E-01 -1.49843980E+00  5.62552287E+00
 -5.41213095E-01  2.03257921E+00  8.69741593E-01  3.19707205E-01 -1.70041362E+00
  7.24411360E-01 -4.93862518E-01  1.82729168E+00
Number of symbols in /Mol/                 I                0
Int Atom Types                             I   N=           6
           0           0           0           0           0           0
Force Field                                I                0
Atom Types                                 C   N=           6
                                                            
            
MM charges                                 R   N=           6
  0.00000000E+00  0.00000000E+00  0.00000000E+00  0.00000000E+00  0.00000000E+00
  0.00000000E+00
Integer atomic weights                     I   N=           6
          12          14           1          16           1           1
Real atomic weights                        R   N=           6
  1.20000000E+01  1.40030740E+01  1.00782504E+00  1.59949146E+01  1.00782504E+00
  1.00782504E+00
Atom fragment info                         I   N=           6
           0           0           0           0           0           0
Atom residue num                           I   N=           6
           0           0           0           0           0           0
Nuclear spins                              I   N=           6
           0           2           1           0           1           1
Nuclear ZEff                               R   N=           6
 -3.60000000E+00 -4.55000000E+00 -1.00000000E+00 -5.60000000E+00 -1.00000000E+00
 -1.00000000E+00
Nuclear ZNuc                               R   N=           6
  6.00000000E+00  7.00000000E+00  1.00000000E+00  8.00000000E+00  1.00000000E+00
  1.00000000E+00
Nuclear QMom                               R   N=           6
  0.00000000E+00  2.04400000E+00  0.00000000E+00  0.00000000E+00  0.00000000E+00
  0.00000000E+00
Nuclear GFac                               R   N=           6
  0.00000000E+00  4.03761000E-01  2.79284600E+00  0.00000000E+00  2.79284600E+00
  2.79284600E+00
MicOpt                                     I   N=           6
          -1          -1          -1          -1          -1          -1
Number of residues                         I                0
Number of secondary structures             I                0
Number of contracted shells                I               55
Number of primitive shells                 I               88
Pure/Cartesian d shells                    I                0
Pure/Cartesian f shells                    I                0
Highest angular momentum                   I                3
Largest degree of contraction              I                6
Shell types                                I   N=          55
           0           0           0           0           0           0
           1           1           1          -2          -2          -2
          -3           0           0           0           0           0
           0           1           1           1          -2          -2
          -2          -3           0           0           0           1
           1           0           0           0           0           0
           0           1           1           1           1          -2
          -2          -2          -3           0           0           0
           1           1           0           0           0           1
           1
Number of primitives per shell             I   N=          55
           6           2           1           1           1           1
           4           1           1           1           1           1
           1           6           2           1           1           1
           1           4           1           1           1           1
           1           1           3           1           1           1
           1           6           2           1           1           1
           1           4           1           1           1           1
           1           1           1           3           1           1
           1           1           3           1           1           1
           1
Shell to atom map                          I   N=          55
           1           1           1           1           1           1
           1           1           1           1           1           1
           1           2           2           2           2           2
           2           2           2           2           2           2
           2           2           3           3           3           3
           3           4           4           4           4           4
           4           4           4           4           4           4
           4           4           4           5           5           5
           5           5           6           6           6           6
           6
Primitive exponents                        R   N=          88
  1.35753497E+04  2.03523337E+03  4.63225624E+02  1.31200196E+02  4.28530159E+01
  1.55841858E+01  6.20671385E+00  2.57648965E+00  5.76963394E-01  2.29728314E-01
  9.51644400E-02  4.84754014E-02  3.46972322E+01  7.95826228E+00  2.37808269E+00
  8.14332082E-01  2.88875473E-01  1.00568237E-01  1.09700000E+00  3.18000000E-01
  9.09853364E-02  7.61000000E-01  1.97308006E+04  2.95789587E+03  6.73221336E+02
  1.90682495E+02  6.22954419E+01  2.26541612E+01  8.97914774E+00  3.68630024E+00
  8.46600768E-01  3.36471338E-01  1.36476537E-01  6.84416058E-02  4.92003805E+01
  1.13467905E+01  3.42739724E+00  1.17855251E+00  4.16422050E-01  1.42608260E-01
  1.65400000E+00  4.69000000E-01  1.28296421E-01  1.09300000E+00  3.40613410E+01
  5.12357460E+00  1.16466260E+00  3.27230410E-01  1.03072410E-01  8.00000000E-01
  9.57741296E-02  2.70323826E+04  4.05238714E+03  9.22327227E+02  2.61240710E+02
  8.53546414E+01  3.10350352E+01  1.22608607E+01  4.99870760E+00  1.17031082E+00
  4.64747410E-01  1.85045364E-01  7.02880263E-02  6.32749548E+01  1.46270494E+01
  4.45012235E+00  1.52757996E+00  5.29351179E-01  1.74784213E-01  5.11127457E-02
  2.31400000E+00  6.45000000E-01  1.46964774E-01  1.42800000E+00  3.40613410E+01
  5.12357460E+00  1.16466260E+00  3.27230410E-01  1.03072410E-01  8.00000000E-01
  9.57741296E-02  3.40613410E+01  5.12357460E+00  1.16466260E+00  3.27230410E-01
  1.03072410E-01  8.00000000E-01  9.57741296E-02
Contraction coefficients                   R   N=          88
  6.06455036E-04  4.69790889E-03  2.43324776E-02  9.73999683E-02  3.01955843E-01
  6.62336091E-01  6.55953085E-01  3.75856333E-01  1.00000000E+00  1.00000000E+00
  1.00000000E+00  1.00000000E+00  1.13272200E-02  7.61696592E-02  3.01922522E-01
  7.27850273E-01  1.00000000E+00  1.00000000E+00  1.00000000E+00  1.00000000E+00
  1.00000000E+00  1.00000000E+00  5.86264026E-04  4.54288206E-03  2.35584135E-02
  9.47091933E-02  2.97197849E-01  6.69162469E-01  6.45966836E-01  3.87005744E-01
  1.00000000E+00  1.00000000E+00  1.00000000E+00  1.00000000E+00  1.14488251E-02
  7.84223380E-02  3.08180947E-01  7.20271964E-01  1.00000000E+00  1.00000000E+00
  1.00000000E+00  1.00000000E+00  1.00000000E+00  1.00000000E+00  2.54393072E-02
  1.90085949E-01  8.52441130E-01  1.00000000E+00  1.00000000E+00  1.00000000E+00
  1.00000000E+00  5.72273352E-04  4.43532335E-03  2.30201077E-02  9.28224907E-02
  2.93785000E-01  6.74016045E-01  6.38399370E-01  3.95345871E-01  1.00000000E+00
  1.00000000E+00  1.00000000E+00  1.00000000E+00  1.20183322E-02  8.30054218E-02
  3.19917439E-01  7.07155429E-01  1.00000000E+00  1.00000000E+00  1.00000000E+00
  1.00000000E+00  1.00000000E+00  1.00000000E+00  1.00000000E+00  2.54393072E-02
  1.90085949E-01  8.52441130E-01  1.00000000E+00  1.00000000E+00  1.00000000E+00
  1.00000000E+00  2.54393072E-02  1.90085949E-01  8.52441130E-01  1.00000000E+00
  1.00000000E+00  1.00000000E+00  1.00000000E+00
Coordinates of each shell                  R   N=         165
  1.76526120E+00 -9.56393551E-02  1.00895621E-01  1.76526120E+00 -9.56393551E-02
  1.00895621E-01  1.76526120E+00 -9.56393551E-02  1.00895621E-01  1.76526120E+00
 -9.56393551E-02  1.00895621E-01  1.76526120E+00 -9.56393551E-02  1.00895621E-01
  1.76526120E+00 -9.56393551E-02  1.00895621E-01  1.76526120E+00 -9.56393551E-02
  1.00895621E-01  1.76526120E+00 -9.56393551E-02  1.00895621E-01  1.76526120E+00
 -9.56393551E-02  1.00895621E-01  1.76526120E+00 -9.56393551E-02  1.00895621E-01
  1.76526120E+00 -9.56393551E-02  1.00895621E-01  1.76526120E+00 -9.56393551E-02
  1.00895621E-01  1.76526120E+00 -9.56393551E-02  1.00895621E-01  4.21476231E+00
 -1.14759850E-01  1.83592472E-01  4.21476231E+00 -1.14759850E-01  1.83592472E-01
  4.21476231E+00 -1.14759850E-01  1.83592472E-01  4.21476231E+00 -1.14759850E-01
  1.83592472E-01  4.21476231E+00 -1.14759850E-01  1.83592472E-01  4.21476231E+00
 -1.14759850E-01  1.83592472E-01  4.21476231E+00 -1.14759850E-01  1.83592472E-01
  4.21476231E+00 -1.14759850E-01  1.83592472E-01  4.21476231E+00 -1.14759850E-01
  1.83592472E-01  4.21476231E+00 -1.14759850E-01  1.83592472E-01  4.21476231E+00
 -1.14759850E-01  1.83592472E-01  4.21476231E+00 -1.14759850E-01  1.83592472E-01
  4.21476231E+00 -1.14759850E-01  1.83592472E-01  5.12197023E+00  2.73169593E-01
 -1.49843980E+00  5.12197023E+00  2.73169593E-01 -1.49843980E+00  5.12197023E+00
  2.73169593E-01 -1.49843980E+00  5.12197023E+00  2.73169593E-01 -1.49843980E+00
  5.12197023E+00  2.73169593E-01 -1.49843980E+00  5.62552287E+00 -5.41213095E-01
  2.03257921E+00  5.62552287E+00 -5.41213095E-01  2.03257921E+00  5.62552287E+00
 -5.41213095E-01  2.03257921E+00  5.62552287E+00 -5.41213095E-01  2.03257921E+00
  5.62552287E+00 -5.41213095E-01  2.03257921E+00  5.62552287E+00 -5.41213095E-01
  2.03257921E+00  5.62552287E+00 -5.41213095E-01  2.03257921E+00  5.62552287E+00
 -5.41213095E-01  2.03257921E+00  5.62552287E+00 -5.41213095E-01  2.03257921E+00
  5.62552287E+00 -5.41213095E-01  2.03257921E+00  5.62552287E+00 -5.41213095E-01
  2.03257921E+00  5.62552287E+00 -5.41213095E-01  2.03257921E+00  5.62552287E+00
 -5.41213095E-01  2.03257921E+00  5.62552287E+00 -5.41213095E-01  2.03257921E+00
  8.69741593E-01  3.19707205E-01 -1.70041362E+00  8.69741593E-01  3.19707205E-01
 -1.70041362E+00  8.69741593E-01  3.19707205E-01 -1.70041362E+00  8.69741593E-01
  3.19707205E-01 -1.70041362E+00  8.69741593E-01  3.19707205E-01 -1.70041362E+00
  7.24411360E-01 -4.93862518E-01  1.82729168E+00  7.24411360E-01 -4.93862518E-01
  1.82729168E+00  7.24411360E-01 -4.93862518E-01  1.82729168E+00  7.24411360E-01
 -4.93862518E-01  1.82729168E+00  7.24411360E-01 -4.93862518E-01  1.82729168E+00
Num ILSW                                   I              100
ILSW                                       I   N=         100
           1           0           0           0           2           0
           0           0           0           0           0          -1
           5           0           0           0           2           0
           0           0           0           0           1           0
           1           1           0           0           0           0
           0           0      100000           0          -1           0
           0           0           0           0           0           0
           0           0           0           1           0           0
           0 -2000000000           1           0           0           0
           0           0           4          52           0           0
           0           0           0           0           0           0
           0           0           0           6           0           1
           0           0           0           0           0           0
           0           0           0           0           0           0
           0           0           0           0           0           0
           0           0           0           0           0           0
           0           0           0           0
Num RLSW                                   I               52
RLSW                                       R   N=          52
  1.00000000E+00  1.00000000E+00  1.00000000E+00  1.00000000E+00  1.00000000E+00
  0.00000000E+00  0.00000000E+00  1.00000000E+00  0.00000000E+00  0.00000000E+00
  0.00000000E+00  0.00000000E+00  1.00000000E+00  0.00000000E+00  0.00000000E+00
  0.00000000E+00  0.00000000E+00  1.00000000E+00  0.00000000E+00  0.00000000E+00
  0.00000000E+00  0.00000000E+00  1.00000000E+00  0.00000000E+00  0.00000000E+00
  0.00000000E+00  0.00000000E+00  1.00000000E+00  0.00000000E+00  0.00000000E+00
  0.00000000E+00  0.00000000E+00  1.00000000E+00  0.00000000E+00  0.00000000E+00
  0.00000000E+00  0.00000000E+00  0.00000000E+00  1.00000000E+00  1.00000000E+00
  0.00000000E+00  1.00000000E+00  0.00000000E+00  0.00000000E+00  0.00000000E+00
  0.00000000E+00  0.00000000E+00  0.00000000E+00  0.00000000E+00  0.00000000E+00
  0.00000000E+00  0.00000000E+00
MxBond                                     I                3
NBond                                      I   N=           6
           3           3           1           1           1           1
IBond                                      I   N=          18
           2           5           6           1           3           4
           2           0           0           2           0           0
           1           0           0           1           0           0
RBond                                      R   N=          18
  2.00000000E+00  1.00000000E+00  1.00000000E+00  2.00000000E+00  1.00000000E+00
  2.00000000E+00  1.00000000E+00  0.00000000E+00  0.00000000E+00  2.00000000E+00
  0.00000000E+00  0.00000000E+00  1.00000000E+00  0.00000000E+00  0.00000000E+00
  1.00000000E+00  0.00000000E+00  0.00000000E+00
Virial Ratio                               R      2.000699642739502E+00
SCF Energy                                 R     -1.688955718114629E+02
Total Energy                               R     -1.688955718114629E+02
S**2                                       R      4.684777365354815E-01
S**2 after annihilation                    R      3.730871704869895E-02
RMS Force                                  R      1.474189647331072E-02
RMS Density                                R      1.878151438622410E-09
Job Status                                 I                1
Nuclear derivative order                   I                1
External E-field                           R   N=          35
  0.00000000E+00  0.00000000E+00  0.00000000E+00  0.00000000E+00  0.00000000E+00
  0.00000000E+00  0.00000000E+00  0.00000000E+00  0.00000000E+00  0.00000000E+00
  0.00000000E+00  0.00000000E+00  0.00000000E+00  0.00000000E+00  0.00000000E+00
  0.00000000E+00  0.00000000E+00  0.00000000E+00  0.00000000E+00  0.00000000E+00
  0.00000000E+00  0.00000000E+00  0.00000000E+00  0.00000000E+00  0.00000000E+00
  0.00000000E+00  0.00000000E+00  0.00000000E+00  0.00000000E+00  0.00000000E+00
  0.00000000E+00  0.00000000E+00  0.00000000E+00  0.00000000E+00  0.00000000E+00
IOpCl                                      I                1
IROHF                                      I                0
Alpha Orbital Energies                     R   N=         141
 -2.05368898E+01 -1.57018486E+01 -1.12868332E+01 -1.44547706E+00 -1.14619552E+00
 -8.91104174E-01 -7.49063392E-01 -6.70262382E-01 -5.87684403E-01 -5.87238615E-01
 -4.38141030E-01 -3.47364528E-01  6.41032510E-02  9.22097073E-02  1.17053079E-01
  1.18328041E-01  1.43226261E-01  1.54457032E-01  1.54557319E-01  1.75273461E-01
  2.11201841E-01  2.26098540E-01  2.31744863E-01  2.76999120E-01  2.89464799E-01
  2.97844311E-01  3.12231508E-01  3.26079425E-01  3.42988468E-01  3.46410322E-01
  3.76104840E-01  3.96050518E-01  4.02865017E-01  4.36193805E-01  4.38851847E-01
  4.45026221E-01  4.60271549E-01  4.82412156E-01  5.02882611E-01  5.38167589E-01
  5.57602620E-01  5.70190841E-01  5.91168319E-01  5.96941257E-01  6.01274051E-01
  6.29308844E-01  6.48601646E-01  6.73275194E-01  7.14619146E-01  7.27334542E-01
  7.45742420E-01  8.36837236E-01  8.47712085E-01  8.70154441E-01  8.89942251E-01
  9.16422181E-01  9.27560722E-01  9.74034607E-01  9.85557098E-01  1.04635240E+00
  1.10288706E+00  1.12539957E+00  1.17441381E+00  1.23633610E+00  1.27088501E+00
  1.34924944E+00  1.37122400E+00  1.51471164E+00  1.55025429E+00  1.66336615E+00
  1.67537916E+00  1.82301677E+00  1.83361894E+00  1.91791641E+00  1.99125654E+00
  2.00011194E+00  2.10273311E+00  2.10522253E+00  2.13806342E+00  2.15926267E+00
  2.21456227E+00  2.24862554E+00  2.30900506E+00  2.38729227E+00  2.44962062E+00
  2.55983565E+00  2.64053065E+00  2.69178258E+00  2.71293525E+00  2.71648571E+00
  2.91552475E+00  2.95866506E+00  3.01178872E+00  3.04319188E+00  3.15293326E+00
  3.23412979E+00  3.26859833E+00  3.32210348E+00  3.36412309E+00  3.41619869E+00
  3.46079940E+00  3.46208869E+00  3.59763793E+00  3.60916824E+00  3.62441559E+00
  3.70135177E+00  3.84284845E+00  3.90024705E+00  4.02540846E+00  4.15344185E+00
  4.23232529E+00  4.43638266E+00  4.55640615E+00  4.60333611E+00  4.69326038E+00
  4.93510425E+00  5.14736678E+00  5.18198668E+00  5.23711872E+00  5.24019028E+00
  5.36841147E+00  5.37610529E+00  5.57492626E+00  5.66319269E+00  5.68288922E+00
  5.77435166E+00  5.90103374E+00  5.91733301E+00  6.05597359E+00  6.29103161E+00
  6.81798122E+00  7.00314560E+00  7.03008285E+00  7.08487280E+00  7.38919879E+00
  7.54831568E+00  7.69766490E+00  8.14803858E+00  2.36827178E+01  3.36721081E+01
  4.58898819E+01
Beta Orbital Energies                      R   N=         141
 -2.05566264E+01 -1.57157920E+01 -1.12692996E+01 -1.48197049E+00 -1.16639440E+00
 -8.81749620E-01 -7.46191467E-01 -6.80417421E-01 -6.75273742E-01 -5.86190263E-01
 -4.57588523E-01 -4.11179592E-01  6.54253148E-02  9.25961796E-02  1.06212364E-01
  1.17007761E-01  1.44088350E-01  1.51309740E-01  1.54386711E-01  1.79366629E-01
  2.08235339E-01  2.26682080E-01  2.31460004E-01  2.90430610E-01  2.96478345E-01
  3.02593098E-01  3.14017371E-01  3.26109835E-01  3.46469780E-01  3.54613691E-01
  3.76529465E-01  3.97824863E-01  4.12855198E-01  4.38030956E-01  4.42763810E-01
  4.61491419E-01  4.64057369E-01  4.83080832E-01  5.00587558E-01  5.31518101E-01
  5.52929464E-01  5.71496220E-01  5.91765789E-01  5.97151593E-01  6.01321941E-01
  6.23218644E-01  6.53168341E-01  6.71757949E-01  7.23106931E-01  7.32496580E-01
  7.42067050E-01  8.34634009E-01  8.48875142E-01  8.65160857E-01  8.90308949E-01
  9.13214379E-01  9.29886932E-01  9.76253939E-01  1.01427067E+00  1.04705246E+00
  1.10385417E+00  1.12769066E+00  1.17404333E+00  1.23312413E+00  1.27842257E+00
  1.35275150E+00  1.38299730E+00  1.50843897E+00  1.52855984E+00  1.65546875E+00
  1.67307717E+00  1.83512746E+00  1.87257799E+00  1.90994420E+00  1.98521207E+00
  2.00102697E+00  2.10485033E+00  2.12301809E+00  2.13127191E+00  2.14897322E+00
  2.21911698E+00  2.24496807E+00  2.28747234E+00  2.38553110E+00  2.45225753E+00
  2.54888503E+00  2.63191103E+00  2.67700944E+00  2.69489447E+00  2.72195650E+00
  2.91552585E+00  2.95776385E+00  3.01253264E+00  3.04701898E+00  3.15645662E+00
  3.23125657E+00  3.28309457E+00  3.31530646E+00  3.38894964E+00  3.44133631E+00
  3.46283023E+00  3.47835705E+00  3.58991717E+00  3.59586678E+00  3.64293465E+00
  3.70442789E+00  3.83495120E+00  3.90968980E+00  4.02635112E+00  4.15337301E+00
  4.23210184E+00  4.44274796E+00  4.53956869E+00  4.59572557E+00  4.68439589E+00
  4.93640601E+00  5.11911431E+00  5.16744954E+00  5.21218577E+00  5.23800674E+00
  5.35792112E+00  5.36435335E+00  5.55767771E+00  5.64025021E+00  5.67712043E+00
  5.76305424E+00  5.89538755E+00  5.90999005E+00  6.04177332E+00  6.27995738E+00
  6.78732083E+00  6.95867874E+00  6.99153219E+00  7.07326438E+00  7.36062629E+00
  7.54316632E+00  7.68132211E+00  8.14055598E+00  2.36942085E+01  3.36635969E+01
  4.58786099E+01
Alpha MO coefficients                      R   N=       19881
  7.70312149E-06 -3.18764490E-05  4.92520324E-04 -1.45406694E-03 -1.78672049E-03
  6.05470792E-04  8.91026279E-05 -5.80018330E-06  2.51359953E-05 -1.92148061E-04
 -7.87461967E-05  3.41520533E-04 -2.85112589E-04 -1.29700456E-04  5.62573218E-04
  3.22877417E-06  3.65902285E-05 -1.33669722E-06 -1.08941718E-07 -8.43875790E-06
 -2.09962109E-04  1.69837825E-04  1.22887606E-04 -1.40862617E-04 -3.91658970E-05
  3.03143666E-04  1.18918085E-03 -1.47212458E-04  7.90361231E-05 -2.74253332E-04
 -3.41237843E-06 -5.71824504E-05 -2.87608640E-06  1.17968747E-05  4.79183919E-05
 -8.68061388E-05 -3.45885376E-06  1.55092925E-05 -2.74212682E-05 -1.02284848E-03
  5.29585977E-03 -1.02768678E-02 -2.35895295E-03  5.08245222E-05 -1.82551166E-05
  7.91496475E-05  2.29388831E-03 -6.99556824E-04  3.03310918E-03 -4.22052991E-03
  1.38541860E-03 -6.00696865E-03  5.75255346E-05  1.21798104E-04 -3.91967886E-05
  6.12683583E-05 -2.80930836E-05  9.08846616E-04  1.69257209E-03 -5.01667873E-04
  4.85229438E-04 -3.90373112E-04 -1.30944495E-03 -1.12786884E-03  5.98190349E-04
 -1.87707814E-04  2.60120151E-04  3.22579515E-05  1.43330952E-04 -6.72646036E-05
  1.06374151E-04 -6.21517977E-05  2.32794746E-05 -3.26944899E-05  1.18768930E-04
 -2.21607044E-04  1.36535833E-03  7.25850915E-05  8.31836429E-06 -3.60694615E-05
 -4.03491675E-04 -3.20216225E-05  1.38865732E-04  4.35856920E-01  6.42438557E-01
  2.26623722E-02 -1.44702906E-02  1.43661817E-02  2.24968858E-03 -1.45539072E-03
  4.20539687E-04 -1.82333155E-03  3.00767620E-03 -8.72231345E-04  3.78172799E-03
 -3.31269001E-03  8.28603090E-04 -3.59246659E-03 -2.77558227E-04  8.88362358E-05
 -3.85176455E-04  2.35554496E-04  8.09685474E-05 -1.95054469E-04  3.92745866E-04
 -1.86809586E-05 -6.25313272E-04 -1.30288398E-03  3.62381869E-04 -4.04525858E-04
  3.00498536E-04  1.57200569E-04  6.00022670E-04 -1.31765580E-04  2.68584722E-04
 -1.38394307E-04  4.36584373E-06  1.46739014E-04 -5.11775279E-05  1.11357187E-04
 -6.70435997E-05  3.52751684E-05 -3.35479167E-05  6.14299179E-06  3.00797981E-04
 -2.48623539E-04  9.64259278E-05 -7.45933584E-07  3.24364284E-06  7.70643108E-04
 -1.31778214E-05  5.68431604E-05 -4.63427982E-06  1.89531578E-04  9.27207815E-04
  5.39333826E-05  1.03778594E-06 -4.49383164E-06 -3.32739814E-04  9.03654257E-05
 -3.91603678E-04  3.90972335E-06  3.79084892E-05  4.70111574E-04 -2.07449272E-03
 -7.33359527E-03 -3.79065158E-04  1.40436712E-04 -9.27135672E-07  4.00657223E-06
 -8.92697963E-04 -3.13369271E-06  1.36909009E-05 -4.07810997E-03  2.63560775E-04
 -1.14249296E-03  8.75114042E-05 -1.58731133E-05 -4.87424650E-07 -1.49573264E-04
  3.66695462E-06  3.41792916E-05 -3.37460359E-05  6.10130394E-05 -3.09682681E-04
  7.79437548E-06  5.11363517E-04 -4.40231442E-04 -2.58386215E-05 -7.79494546E-04
  1.01548267E-04  2.70608922E-05  1.15401214E-04 -5.61869735E-06 -2.78618551E-05
 -5.66114177E-06 -1.30000197E-04  7.75273494E-06  4.49125266E-01  6.30240916E-01
  1.98599233E-02 -8.38804316E-03  1.55326059E-02  4.20366683E-03  1.91224579E-04
 -5.50109038E-05  2.38647571E-04 -2.17286448E-04 -4.34657173E-05  1.88390527E-04
 -2.09490018E-03  1.26317279E-04 -5.47319470E-04  1.98514921E-04  1.14473961E-04
 -2.03945034E-04  4.93397999E-04 -2.64155620E-05  1.08692731E-04  1.52549928E-04
 -1.32528694E-04  3.55789866E-04 -3.51927877E-05  1.82030514E-04 -3.68717288E-04
 -2.24344063E-04  6.05739105E-04  8.50179692E-05 -4.88252474E-05  4.45545008E-04
  1.09807993E-05  4.83075681E-05 -1.27783441E-04 -1.46883753E-04 -1.33760366E-05
  1.28593243E-04 -4.82375605E-04 -4.91719966E-03  1.44337168E-04  4.63103069E-05
 -2.00797217E-04  3.68079231E-04  2.52705621E-04 -1.09568684E-03 -8.37525805E-05
 -1.53036621E-04  3.90865163E-04 -4.95500733E-04 -9.62531835E-04 -2.70246868E-04
 -1.68857985E-04  4.77983261E-05 -2.07242682E-04  3.21481666E-04 -8.71948211E-05
  3.78061755E-04  6.32999659E-05  3.42382534E-05 -1.48499184E-04 -9.97913624E-05
  1.41126286E-05 -6.11756990E-05 -1.09720704E-05 -8.46874923E-06  5.95587706E-06
 -5.44556128E-06  1.95333187E-06 -1.29862787E-04 -2.71446960E-04  9.07474446E-05
 -1.47602547E-04  6.26070967E-05  1.51519527E-04  2.30947354E-04 -7.00202074E-05
  2.50114968E-05 -5.32628918E-05 -4.48906885E-06  1.08469300E-04 -3.26327850E-05
  8.19735264E-05 -4.88733545E-05  2.37809024E-05 -2.45174472E-05  2.18312983E-05
  1.11555265E-04 -6.11077864E-04  1.05733764E-06 -4.99570312E-06  2.16779327E-05
 -3.03127509E-04 -5.45355021E-06  2.36925678E-05  1.36709179E-05  6.44060936E-05
  7.64477745E-05 -2.07128089E-05  3.62074845E-06 -1.56862364E-05  1.11706934E-04
  1.48859340E-05 -6.46297746E-05  4.67231213E-01  6.12202692E-01  2.22922964E-02
 -1.50889523E-02  2.11270860E-02 -4.53485557E-04  9.02854968E-04  1.87472821E-05
 -8.14871676E-05 -6.70709564E-04 -5.52278004E-05  2.39532622E-04 -6.78252212E-03
  2.83236996E-04 -1.22893020E-03 -1.74956884E-04  4.75566768E-06  8.07479436E-05
 -2.84802972E-05 -1.10992086E-06  2.28787973E-05  3.12755372E-06 -9.71668352E-05
  3.59242525E-04 -7.15467494E-07  3.45896115E-03  9.71081831E-04 -1.31351741E-03
 -5.98774552E-04 -2.23995324E-04 -4.86481489E-05 -6.24809218E-04  1.86804773E-06
  6.89834989E-05  1.72610110E-04  2.28023260E-04 -1.96237239E-05 -1.69165647E-04
 -2.93115801E-04  2.46193471E-04 -3.33604063E-04  3.24927783E-03  1.95462853E-03
 -3.44863174E-04  8.00101623E-06 -3.46702215E-05  1.03196870E-03 -1.17586085E-04
  5.09701481E-04 -5.74927175E-03  5.34095935E-04 -2.31490678E-03 -4.68630137E-05
  1.79764779E-06  1.58186351E-05  1.62280072E-05 -4.13028572E-07  5.31740126E-04
  2.65812136E-04 -1.78667807E-04 -1.87524660E-04 -6.12963065E-05 -2.26489894E-03
 -6.39816262E-04  5.64991067E-04  1.60365965E-03  1.47510101E-04  1.11975454E-05
  9.34097604E-05 -1.98296491E-05  2.88175157E-05 -2.93480615E-05 -2.22234427E-05
 -8.90988166E-06 -1.04983349E-04 -1.03091609E-04  1.59837355E-03  1.14770950E-04
  9.16320502E-06 -3.97411952E-05 -9.13545685E-04 -1.19211103E-05  5.17886500E-05
  5.63171653E-06 -1.39524323E-05  3.57250968E-04 -1.48531979E-03  4.19227185E-03
  2.29952741E-04 -2.66834291E-05  1.11594894E-06 -4.84042293E-06  5.78819783E-04
 -8.91222983E-05  3.86433564E-04 -1.14590670E-03  1.09070198E-04 -4.73090530E-04
 -1.34432364E-04  1.72159403E-05 -7.46190024E-05 -9.19347152E-06  7.54762108E-06
  5.70987976E-06 -7.52207523E-06 -1.74059615E-06 -4.32036307E-06 -2.47915692E-04
  1.98213123E-05 -7.38575461E-05  5.71791911E-05 -6.09050448E-05  2.92334941E-04
  7.45678311E-05 -2.00631282E-04 -6.73967537E-05 -2.03277750E-05  2.84316110E-05
  2.60980681E-06  2.46374681E-05 -1.03520597E-05 -2.00781771E-06 -6.93070382E-06
 -2.44922685E-05  5.75978390E-04 -1.48738868E-02 -3.05217010E-05  5.28001525E-05
 -2.29003940E-04 -1.55721606E-03  3.15894512E-04 -1.37101238E-03 -1.68318894E-05
  2.08445780E-04 -1.04407138E-02 -9.43855721E-05 -5.25433086E-05  2.27780392E-04
 -2.14131122E-03 -1.50475425E-04  6.51928625E-04 -2.28921422E-02 -4.98317407E-02
  7.36956252E-02  6.96092753E-02  3.79426477E-02  1.58830205E-02  5.05163021E-02
 -1.40132696E-03  6.07187913E-03  2.96183734E-02 -1.37680263E-03  5.96702160E-03
  4.36180806E-03 -4.80345969E-03  2.08301103E-02 -3.73599363E-03  1.33585796E-03
  1.04529413E-04  6.04162428E-03 -3.08333754E-04 -2.59750499E-03  3.56193009E-03
  1.85947258E-04  3.73515746E-03 -8.21695063E-04  1.06111044E-02  1.21321690E-03
 -4.23703339E-03 -9.87983159E-04 -2.80067011E-04 -5.43294923E-04 -1.57161781E-03
  5.52613285E-05  6.91730733E-04  3.56327353E-05  1.90935388E-03 -1.95372509E-04
 -7.13586480E-02 -1.66064434E-01  2.45339562E-01  2.84385340E-01 -7.63969746E-03
 -4.87173347E-02  3.61294392E-02 -1.57868045E-02  6.84500632E-02  1.69124077E-02
 -9.52889847E-03  4.13170813E-02  8.70859266E-03  6.90451391E-04 -2.99461863E-03
  5.45203642E-03  8.02462971E-03 -4.35405747E-03  8.43094595E-03 -1.85097862E-03
  2.64926958E-03  8.97318108E-03 -3.82484600E-03  1.11128916E-02 -2.06984921E-03
 -8.33634352E-03  8.38327770E-03  6.44987951E-03 -1.20393528E-02 -1.93300802E-03
 -5.49625448E-04  6.73643790E-03 -4.84307473E-04  1.94482795E-03 -2.11671383E-03
 -1.60184783E-03 -5.71357131E-04  3.79711576E-02  4.40283321E-02  3.40293159E-02
 -3.32094259E-03 -2.07763515E-03  9.00840861E-03  1.45841364E-03 -1.02803936E-03
  4.45691123E-03 -6.74294876E-02 -1.62612951E-01  2.22882934E-01  3.15210383E-01