0003_q000_m01_k00_opt_uwb97xd_def2svpd/0003_q000_m01_k00_force_ub3lyp_de
Force     UB3LYP                                                      Gen                 
Number of atoms                            I                7
Info1-9                                    I   N=           9
          13           9           0           0           0         100
           5          18        -502
Full Title                                 C   N=           8
0003_q000_m01_k00_opt_uwb97xd_def2svpd/0003_q000_m01_k00_for
ce_ub3lyp_def2svpd stable-force     
Route                                      C   N=          15
#p ub3lyp/chkbasis force guess=read geom=check scf=(maxcycle
=900,verytightlineq,xqc) integral=grid=ultrafine symmetry=No
ne density=current pop=(cm5,hlygat,mbs,npa) output=wfx      
Charge                                     I                0
Multiplicity                               I                1
Number of electrons                        I               32
Number of alpha electrons                  I               16
Number of beta electrons                   I               16
Number of basis functions                  I               99
Number of independent functions            I               99
Number of point charges in /Mol/           I                0
Number of translation vectors              I                0
Atomic numbers                             I   N=           7
           6          16           6           1           1           1
           1
Nuclear charges                            R   N=           7
  6.00000000E+00  1.60000000E+01  6.00000000E+00  1.00000000E+00  1.00000000E+00
  1.00000000E+00  1.00000000E+00
Current cartesian coordinates              R   N=          21
  1.85917402E+00 -6.15268432E-02  9.23282726E-02  4.92676194E+00  1.87460277E-01
  3.55239128E-02  6.09875638E+00  1.39121255E+00 -2.54358053E+00  1.07793953E+00
 -8.64605860E-01  1.81365494E+00  6.49701559E-01  5.25765681E-01 -1.46546666E+00
  4.94204756E+00  1.99646575E+00 -4.13423228E+00  8.14558359E+00  1.55646016E+00
 -2.58103217E+00
Number of symbols in /Mol/                 I                0
Int Atom Types                             I   N=           7
           0           0           0           0           0           0
           0
Force Field                                I                0
Atom Types                                 C   N=           7
                                                            
                        
MM charges                                 R   N=           7
  0.00000000E+00  0.00000000E+00  0.00000000E+00  0.00000000E+00  0.00000000E+00
  0.00000000E+00  0.00000000E+00
Integer atomic weights                     I   N=           7
          12          32          12           1           1           1
           1
Real atomic weights                        R   N=           7
  1.20000000E+01  3.19720718E+01  1.20000000E+01  1.00782504E+00  1.00782504E+00
  1.00782504E+00  1.00782504E+00
Atom fragment info                         I   N=           7
           0           0           0           0           0           0
           0
Atom residue num                           I   N=           7
           0           0           0           0           0           0
           0
Nuclear spins                              I   N=           7
           0           0           0           1           1           1
           1
Nuclear ZEff                               R   N=           7
 -3.60000000E+00 -1.36000000E+01 -3.60000000E+00 -1.00000000E+00 -1.00000000E+00
 -1.00000000E+00 -1.00000000E+00
Nuclear ZNuc                               R   N=           7
  6.00000000E+00  1.60000000E+01  6.00000000E+00  1.00000000E+00  1.00000000E+00
  1.00000000E+00  1.00000000E+00
Nuclear QMom                               R   N=           7
  0.00000000E+00  0.00000000E+00  0.00000000E+00  0.00000000E+00  0.00000000E+00
  0.00000000E+00  0.00000000E+00
Nuclear GFac                               R   N=           7
  0.00000000E+00  0.00000000E+00  0.00000000E+00  2.79284600E+00  2.79284600E+00
  2.79284600E+00  2.79284600E+00
MicOpt                                     I   N=           7
          -1          -1          -1          -1          -1          -1
          -1
Number of residues                         I                0
Number of secondary structures             I                0
Number of contracted shells                I               43
Number of primitive shells                 I               73
Pure/Cartesian d shells                    I                0
Pure/Cartesian f shells                    I                0
Highest angular momentum                   I                2
Largest degree of contraction              I                5
Shell types                                I   N=          43
           0           0           0           0           1           1
          -2          -2           0           0           0           0
           0           1           1           1           1          -2
          -2           0           0           0           0           1
           1          -2          -2           0           0           1
           1           0           0           1           1           0
           0           1           1           0           0           1
           1
Number of primitives per shell             I   N=          43
           5           1           1           1           3           1
           1           1           5           3           1           1
           1           5           1           1           1           1
           1           5           1           1           1           3
           1           1           1           3           1           1
           1           3           1           1           1           3
           1           1           1           3           1           1
           1
Shell to atom map                          I   N=          43
           1           1           1           1           1           1
           1           1           2           2           2           2
           2           2           2           2           2           2
           2           3           3           3           3           3
           3           3           3           4           4           4
           4           5           5           5           5           6
           6           6           6           7           7           7
           7
Primitive exponents                        R   N=          73
  1.23840169E+03  1.86290050E+02  4.22511763E+01  1.16765579E+01  3.59305065E+00
  4.02451474E-01  1.30901827E-01  6.70535403E-02  9.46809706E+00  2.01035451E+00
  5.47710047E-01  1.52686138E-01  8.00000000E-01  1.17131851E-01  9.18493030E+03
  1.38151055E+03  3.13871476E+02  8.80538706E+01  2.70399149E+01  4.56487313E+01
  4.96645223E+00  2.01162420E+00  3.56610770E-01  1.35072215E-01  4.49998235E-02
  2.61982334E+02  6.13068947E+01  1.91037299E+01  6.65677204E+00  2.39596352E+00
  6.17761617E-01  1.69933769E-01  4.17067937E-02  5.50000000E-01  1.01728537E-01
  1.23840169E+03  1.86290050E+02  4.22511763E+01  1.16765579E+01  3.59305065E+00
  4.02451474E-01  1.30901827E-01  6.70535403E-02  9.46809706E+00  2.01035451E+00
  5.47710047E-01  1.52686138E-01  8.00000000E-01  1.17131851E-01  1.30107010E+01
  1.96225720E+00  4.44537960E-01  1.21949620E-01  8.00000000E-01  1.17040991E-01
  1.30107010E+01  1.96225720E+00  4.44537960E-01  1.21949620E-01  8.00000000E-01
  1.17040991E-01  1.30107010E+01  1.96225720E+00  4.44537960E-01  1.21949620E-01
  8.00000000E-01  1.17040991E-01  1.30107010E+01  1.96225720E+00  4.44537960E-01
  1.21949620E-01  8.00000000E-01  1.17040991E-01
Contraction coefficients                   R   N=          73
  5.51736505E-03  4.10888286E-02  1.82253821E-01  4.68284594E-01  4.45758173E-01
  1.00000000E+00  1.00000000E+00  1.00000000E+00  5.68883320E-02  3.12940593E-01
  7.60650165E-01  1.00000000E+00  1.00000000E+00  1.00000000E+00 -5.47294661E-03
 -4.09544022E-02 -1.84758290E-01 -4.75672806E-01 -4.34951536E-01 -9.19040458E-02
  5.56987772E-01  5.11154683E-01  1.00000000E+00  1.00000000E+00  1.00000000E+00
 -9.18305466E-03 -6.59022265E-02 -2.45877845E-01 -4.82314711E-01 -3.89563144E-01
  1.00000000E+00  1.00000000E+00  1.00000000E+00  1.00000000E+00  1.00000000E+00
  5.51736505E-03  4.10888286E-02  1.82253821E-01  4.68284594E-01  4.45758173E-01
  1.00000000E+00  1.00000000E+00  1.00000000E+00  5.68883320E-02  3.12940593E-01
  7.60650165E-01  1.00000000E+00  1.00000000E+00  1.00000000E+00  3.34854848E-02
  2.34721871E-01  8.13770285E-01  1.00000000E+00  1.00000000E+00  1.00000000E+00
  3.34854848E-02  2.34721871E-01  8.13770285E-01  1.00000000E+00  1.00000000E+00
  1.00000000E+00  3.34854848E-02  2.34721871E-01  8.13770285E-01  1.00000000E+00
  1.00000000E+00  1.00000000E+00  3.34854848E-02  2.34721871E-01  8.13770285E-01
  1.00000000E+00  1.00000000E+00  1.00000000E+00
Coordinates of each shell                  R   N=         129
  1.85917402E+00 -6.15268432E-02  9.23282726E-02  1.85917402E+00 -6.15268432E-02
  9.23282726E-02  1.85917402E+00 -6.15268432E-02  9.23282726E-02  1.85917402E+00
 -6.15268432E-02  9.23282726E-02  1.85917402E+00 -6.15268432E-02  9.23282726E-02
  1.85917402E+00 -6.15268432E-02  9.23282726E-02  1.85917402E+00 -6.15268432E-02
  9.23282726E-02  1.85917402E+00 -6.15268432E-02  9.23282726E-02  4.92676194E+00
  1.87460277E-01  3.55239128E-02  4.92676194E+00  1.87460277E-01  3.55239128E-02
  4.92676194E+00  1.87460277E-01  3.55239128E-02  4.92676194E+00  1.87460277E-01
  3.55239128E-02  4.92676194E+00  1.87460277E-01  3.55239128E-02  4.92676194E+00
  1.87460277E-01  3.55239128E-02  4.92676194E+00  1.87460277E-01  3.55239128E-02
  4.92676194E+00  1.87460277E-01  3.55239128E-02  4.92676194E+00  1.87460277E-01
  3.55239128E-02  4.92676194E+00  1.87460277E-01  3.55239128E-02  4.92676194E+00
  1.87460277E-01  3.55239128E-02  6.09875638E+00  1.39121255E+00 -2.54358053E+00
  6.09875638E+00  1.39121255E+00 -2.54358053E+00  6.09875638E+00  1.39121255E+00
 -2.54358053E+00  6.09875638E+00  1.39121255E+00 -2.54358053E+00  6.09875638E+00
  1.39121255E+00 -2.54358053E+00  6.09875638E+00  1.39121255E+00 -2.54358053E+00
  6.09875638E+00  1.39121255E+00 -2.54358053E+00  6.09875638E+00  1.39121255E+00
 -2.54358053E+00  1.07793953E+00 -8.64605860E-01  1.81365494E+00  1.07793953E+00
 -8.64605860E-01  1.81365494E+00  1.07793953E+00 -8.64605860E-01  1.81365494E+00
  1.07793953E+00 -8.64605860E-01  1.81365494E+00  6.49701559E-01  5.25765681E-01
 -1.46546666E+00  6.49701559E-01  5.25765681E-01 -1.46546666E+00  6.49701559E-01
  5.25765681E-01 -1.46546666E+00  6.49701559E-01  5.25765681E-01 -1.46546666E+00
  4.94204756E+00  1.99646575E+00 -4.13423228E+00  4.94204756E+00  1.99646575E+00
 -4.13423228E+00  4.94204756E+00  1.99646575E+00 -4.13423228E+00  4.94204756E+00
  1.99646575E+00 -4.13423228E+00  8.14558359E+00  1.55646016E+00 -2.58103217E+00
  8.14558359E+00  1.55646016E+00 -2.58103217E+00  8.14558359E+00  1.55646016E+00
 -2.58103217E+00  8.14558359E+00  1.55646016E+00 -2.58103217E+00
Num ILSW                                   I              100
ILSW                                       I   N=         100
           1           0           0           0           2           0
           0           0           0           0         402          -1
           5           0           0           0           2           0
           0           0           0           0           1           0
           1           1           0           0           0           0
           0           0      100000           0          -1           0
           0           0           0           0           0           0
           0           0           0           1           0           0
           0 -2000000000           1           0           0           0
           0           0           4          52           0           0
           0           0           5           0           0           0
           0           0           0           7           0           1
           0           0           0           0           0           0
           0           0           0           0           0           0
           0           0           0           0           0           0
           0           0           0           0           0           0
           0           0           0           0
Num RLSW                                   I               52
RLSW                                       R   N=          52
  8.00000000E-01  7.20000000E-01  1.00000000E+00  8.10000000E-01  2.00000000E-01
  0.00000000E+00  0.00000000E+00  1.00000000E+00  0.00000000E+00  0.00000000E+00
  0.00000000E+00  0.00000000E+00  1.00000000E+00  0.00000000E+00  0.00000000E+00
  0.00000000E+00  0.00000000E+00  1.00000000E+00  0.00000000E+00  0.00000000E+00
  0.00000000E+00  0.00000000E+00  1.00000000E+00  0.00000000E+00  0.00000000E+00
  0.00000000E+00  0.00000000E+00  1.00000000E+00  0.00000000E+00  0.00000000E+00
  0.00000000E+00  0.00000000E+00  1.00000000E+00  0.00000000E+00  0.00000000E+00
  0.00000000E+00  0.00000000E+00  0.00000000E+00  1.00000000E+00  1.00000000E+00
  0.00000000E+00  1.00000000E+00  0.00000000E+00  0.00000000E+00  0.00000000E+00
  0.00000000E+00  0.00000000E+00  0.00000000E+00  0.00000000E+00  0.00000000E+00
  0.00000000E+00  0.00000000E+00
MxBond                                     I                3
NBond                                      I   N=           7
           3           2           3           1           1           1
           1
IBond                                      I   N=          21
           2           4           5           1           3           0
           2           6           7           1           0           0
           1           0           0           3           0           0
           3           0           0
RBond                                      R   N=          21
  2.00000000E+00  1.00000000E+00  1.00000000E+00  2.00000000E+00  2.00000000E+00
  0.00000000E+00  2.00000000E+00  1.00000000E+00  1.00000000E+00  1.00000000E+00
  0.00000000E+00  0.00000000E+00  1.00000000E+00  0.00000000E+00  0.00000000E+00
  1.00000000E+00  0.00000000E+00  0.00000000E+00  1.00000000E+00  0.00000000E+00
  0.00000000E+00
Virial Ratio                               R      2.004464885102566E+00
SCF Energy                                 R     -4.765642394278550E+02
Total Energy                               R     -4.765642394278550E+02
S**2 after annihilation                    R      2.131628207280323E-14
RMS Force                                  R      3.340225089327881E-03
RMS Density                                R      1.290824785444742E-09
Job Status                                 I                1
Nuclear derivative order                   I                1
External E-field                           R   N=          35
  0.00000000E+00  0.00000000E+00  0.00000000E+00  0.00000000E+00  0.00000000E+00
  0.00000000E+00  0.00000000E+00  0.00000000E+00  0.00000000E+00  0.00000000E+00
  0.00000000E+00  0.00000000E+00  0.00000000E+00  0.00000000E+00  0.00000000E+00
  0.00000000E+00  0.00000000E+00  0.00000000E+00  0.00000000E+00  0.00000000E+00
  0.00000000E+00  0.00000000E+00  0.00000000E+00  0.00000000E+00  0.00000000E+00
  0.00000000E+00  0.00000000E+00  0.00000000E+00  0.00000000E+00  0.00000000E+00
  0.00000000E+00  0.00000000E+00  0.00000000E+00  0.00000000E+00  0.00000000E+00
IOpCl                                      I                1
IROHF                                      I                0
Alpha Orbital Energies                     R   N=          99
 -8.89241748E+01 -1.02015791E+01 -1.02015108E+01 -8.00991975E+00 -5.97727993E+00
 -5.97559753E+00 -5.97278158E+00 -8.55991839E-01 -6.96864801E-01 -5.71645830E-01
 -4.73895145E-01 -4.66413426E-01 -4.09375594E-01 -3.65470624E-01 -3.38460679E-01
 -2.04017235E-01 -5.94444177E-02  2.09724003E-02  2.74249520E-02  3.85718211E-02
  6.16288503E-02  6.81956748E-02  7.97715069E-02  8.30337509E-02  9.67295206E-02
  1.41717748E-01  1.58130345E-01  1.71474426E-01  1.76794138E-01  1.90504221E-01
  1.99463033E-01  2.13460321E-01  2.18226010E-01  2.38880309E-01  2.40764564E-01
  2.48991024E-01  2.72790603E-01  2.99632737E-01  3.17487036E-01  3.21841696E-01
  3.34052952E-01  3.36220051E-01  3.60704935E-01  3.78151358E-01  3.87955588E-01
  4.01884594E-01  4.10459907E-01  4.31055891E-01  4.38654311E-01  4.40818446E-01
  4.42480247E-01  4.89052778E-01  5.05903539E-01  5.32952720E-01  5.43979411E-01
  6.05974614E-01  7.41204766E-01  7.52350941E-01  7.69341361E-01  7.78155470E-01
  7.89023331E-01  8.20622822E-01  8.41520525E-01  8.75246477E-01  8.91128937E-01
  9.38029429E-01  9.62965383E-01  9.78425963E-01  9.91050503E-01  1.01603277E+00
  1.04030751E+00  1.12973048E+00  1.13788468E+00  1.21185474E+00  1.26831150E+00
  1.30679803E+00  1.42041346E+00  1.44194284E+00  1.50384776E+00  1.60821201E+00
  1.62543714E+00  1.68411047E+00  1.74915309E+00  1.81329829E+00  1.84322252E+00
  2.03921187E+00  2.06642550E+00  2.12296270E+00  2.12879653E+00  2.13065935E+00
  2.16751341E+00  2.28629754E+00  2.29147405E+00  2.43922288E+00  2.52137964E+00
  2.96544773E+00  2.96932858E+00  2.99838318E+00  3.00223173E+00
Beta Orbital Energies                      R   N=          99
 -8.89241748E+01 -1.02015791E+01 -1.02015108E+01 -8.00991975E+00 -5.97727993E+00
 -5.97559753E+00 -5.97278158E+00 -8.55991839E-01 -6.96864801E-01 -5.71645830E-01
 -4.73895145E-01 -4.66413426E-01 -4.09375594E-01 -3.65470624E-01 -3.38460679E-01
 -2.04017235E-01 -5.94444177E-02  2.09724003E-02  2.74249520E-02  3.85718211E-02
  6.16288503E-02  6.81956748E-02  7.97715069E-02  8.30337509E-02  9.67295206E-02
  1.41717748E-01  1.58130345E-01  1.71474426E-01  1.76794138E-01  1.90504221E-01
  1.99463033E-01  2.13460321E-01  2.18226010E-01  2.38880309E-01  2.40764564E-01
  2.48991024E-01  2.72790603E-01  2.99632737E-01  3.17487036E-01  3.21841696E-01
  3.34052952E-01  3.36220051E-01  3.60704935E-01  3.78151358E-01  3.87955588E-01
  4.01884594E-01  4.10459907E-01  4.31055891E-01  4.38654311E-01  4.40818446E-01
  4.42480247E-01  4.89052778E-01  5.05903539E-01  5.32952720E-01  5.43979411E-01
  6.05974614E-01  7.41204766E-01  7.52350941E-01  7.69341361E-01  7.78155470E-01
  7.89023331E-01  8.20622822E-01  8.41520525E-01  8.75246477E-01  8.91128937E-01
  9.38029429E-01  9.62965383E-01  9.78425963E-01  9.91050503E-01  1.01603277E+00
  1.04030751E+00  1.12973048E+00  1.13788468E+00  1.21185474E+00  1.26831150E+00
  1.30679803E+00  1.42041346E+00  1.44194284E+00  1.50384776E+00  1.60821201E+00
  1.62543714E+00  1.68411047E+00  1.74915309E+00  1.81329829E+00  1.84322252E+00
  2.03921187E+00  2.06642550E+00  2.12296270E+00  2.12879653E+00  2.13065935E+00
  2.16751341E+00  2.28629754E+00  2.29147405E+00  2.43922288E+00  2.52137964E+00
  2.96544773E+00  2.96932858E+00  2.99838318E+00  3.00223173E+00
Alpha MO coefficients                      R   N=        9801
  1.05211171E-04 -9.76767112E-04  1.48442980E-02  1.32524349E-02 -2.69636039E-04
 -3.55314550E-05  3.64015285E-05  2.93243838E-03  1.72482093E-03 -3.48225789E-03
  3.78273107E-04  2.12179232E-05 -9.72714946E-05 -4.64091569E-04 -7.44197951E-05
 -1.40628659E-04  3.78770068E-03 -7.37957429E-04  2.35750242E-03 -1.28100532E-03
  9.94156809E-01 -2.25109480E-02  1.64590845E-02 -3.28371763E-02 -1.22335177E-02
 -9.62317300E-05  4.84872204E-05 -1.28100573E-04 -3.27206478E-04  1.64837965E-04
 -4.35589443E-04  2.02153427E-03 -1.01798655E-03  2.68986969E-03  1.19903402E-03
 -6.03918497E-04  1.59585699E-03 -3.92808295E-05 -7.99213831E-05  3.95884036E-05
 -2.17371972E-05  3.03657613E-05  8.18494456E-04  5.90530497E-03  2.33913700E-03
 -4.56064764E-03 -3.31873956E-03  1.05251799E-04 -9.76916289E-04  1.48456043E-02
  1.32541537E-02  1.35269031E-04  1.03208618E-04 -2.15474708E-04 -4.63158009E-03
 -8.66658160E-04  1.22095896E-03 -3.36399122E-04  3.74816312E-04  2.86379500E-04
  1.20580678E-04 -1.54799456E-04  3.19191029E-03  2.13957567E-03 -2.52650841E-03
 -3.68943354E-04 -9.06030166E-04 -2.25106423E-04  5.80814738E-03 -1.76993923E-04
  1.48790629E-05 -6.42625966E-05  1.71662040E-03  7.42440641E-04 -1.42320111E-03
 -4.05641909E-04 -1.51419409E-02 -2.79747432E-04 -1.52259308E-08 -4.70884353E-05
 -5.15021500E-04  1.12292736E-03 -2.67439452E-03 -4.05649060E-04 -1.51428041E-02
  5.33523196E-05  1.14086074E-04 -2.54181300E-04 -2.55230941E-03  4.24614218E-04
 -1.40771775E-03 -2.25158181E-04  5.80619639E-03 -1.55778763E-06  7.50064350E-05
 -1.73345102E-04 -2.08090179E-03 -5.58357161E-04  9.38205907E-04 -6.97039104E-01
 -4.25032165E-02  9.12672677E-02  2.90360015E-02  1.43672554E-04  4.68152317E-05
 -8.57621086E-05 -9.61048900E-03 -3.78802504E-03  7.12476363E-03 -4.78478515E-04
 -9.17342401E-05  8.87060613E-04 -8.39926033E-04 -1.11602511E-04  9.80179974E-03
 -1.09804937E-02 -1.01473459E-02 -1.96099837E-04  5.08096833E-03  2.07149944E-07
  1.73123754E-06 -6.00485220E-06  4.44778272E-05 -3.38573291E-06 -2.98396155E-04
 -1.02491036E-04  1.86012375E-04 -6.76957988E-04 -2.32894282E-04  4.22620161E-04
 -3.08770516E-03 -1.05625551E-03  1.91629352E-03  2.50143990E-03  8.56234235E-04
 -1.55212061E-03 -1.71688728E-03  8.50534801E-04  9.22903758E-04  1.40265778E-03
 -1.93653218E-04  7.70428026E-04 -3.85742739E-04 -4.14505042E-04 -6.30411715E-04
  8.83896002E-05  6.99460468E-01  4.26435577E-02 -9.15775310E-02 -2.90517094E-02
  1.40932306E-04  4.99540989E-05 -9.27177271E-05 -1.07937378E-02 -3.20296301E-03
  5.57780676E-03  2.67553611E-04  1.98166159E-04 -7.76123523E-04  1.01701399E-03
  8.73092254E-05  9.52063714E-03  1.40551790E-03 -2.18478914E-04 -1.56321540E-02
 -2.89990881E-03  1.13003479E-03 -6.98712594E-02  7.61163292E-04  5.97921391E-04
 -1.25114795E-03 -3.96851057E-03 -5.61788370E-03  1.23032286E-02  1.88965920E-03
 -2.70482208E-02  6.32916573E-04 -5.45092898E-04  1.36308604E-03 -9.42761201E-03
 -2.58895428E-05 -1.52584469E-03 -1.89698787E-03  2.71895650E-02 -1.16918307E-03
  3.63853492E-04 -1.03644978E-03 -1.83883263E-03 -3.85149603E-03  8.57445912E-03
 -1.13764295E-03  6.99796383E-02  1.56357824E-03  1.96988064E-04 -1.91523774E-04
 -1.40771432E-02 -5.48449515E-04 -1.08829224E-03  6.99625901E-01  4.04587269E-02
 -9.01983739E-02 -4.30399812E-03 -7.29350516E-04 -9.86100574E-05  1.06438010E-04
  5.59200008E-03  2.92690447E-04  2.60184664E-04  7.72416013E-04  3.24085935E-04
 -1.02520791E-03  6.38054941E-04 -1.49835789E-05 -2.01073307E-03 -4.35315883E-03
  2.97880216E-03 -2.92917713E-03  1.37258952E-03  1.11293644E-04  9.24010221E-04
 -3.27961886E-03  2.54805086E-02 -2.06131494E-03  1.31190197E-04 -6.56616001E-05
  1.73651371E-04  4.23167066E-04 -2.12315237E-04  5.61459744E-04 -9.72261703E-04
  4.94198037E-04 -1.30534756E-03  9.35435742E-04 -4.75344697E-04  1.25358371E-03
 -1.13396249E-04  6.27191414E-04  7.59165383E-04 -1.08634623E-03 -4.57424929E-04
 -6.72522662E-04 -2.33763731E-03 -5.52397918E-05  7.88766028E-04  1.13772725E-03
  6.97204944E-01  4.03113063E-02 -8.98794824E-02 -4.20164707E-03  3.72970205E-04
  2.78062184E-04 -5.79187418E-04 -1.72429495E-03 -2.21275265E-03  4.81560216E-03
  1.95032274E-04  6.08229016E-04 -7.13270441E-04  1.10633611E-03 -8.03692837E-05
 -3.03419679E-03 -3.86739376E-03  3.51125729E-03 -2.06458432E-03  1.27198937E-03
 -2.21495196E-03  3.09926033E-02 -7.51932173E-04 -6.28468902E-04  1.32357084E-03
  6.89885239E-03  3.73820375E-03 -7.46419898E-03 -2.13360654E-03  4.14912713E-02
 -1.23135313E-03  4.13189856E-04 -1.15981727E-03  6.90112265E-03 -3.06466779E-03
  8.22721567E-03 -2.12698925E-03  4.13974065E-02 -7.37066525E-04  5.79684055E-04
 -1.46110929E-03  5.93064781E-03 -3.38488695E-03  8.80598753E-03 -2.21109716E-03
  3.07449748E-02  1.62330137E-03  1.85926926E-04 -1.56310098E-04 -1.01005700E-02
 -2.09743374E-03  3.14113576E-03  1.44835762E-04 -2.58134575E-03  3.38003770E-02
  3.25849101E-02 -7.67148142E-04 -9.60417611E-05  9.18564915E-05  6.36089770E-03
  4.27538294E-03 -8.78527621E-03  5.47246394E-04  1.10002649E-05 -5.29567100E-05
 -8.37832151E-04 -1.26348996E-04  2.33490153E-04  1.00173847E-02 -1.85757201E-03
  5.02311114E-03 -3.56897937E-03  3.06236098E-01  1.01860075E+00  6.70820534E-02
 -8.30312211E-02 -2.99339855E-02  4.45455241E-03 -2.24462760E-03  5.92789501E-03
 -1.04617271E-03  5.27112198E-04 -1.39258525E-03  3.82245064E-03 -1.92496810E-03
  5.08666472E-03  3.02279585E-03 -1.52244144E-03  4.02310638E-03 -9.36449998E-05
 -4.33426580E-04 -8.66363699E-05  2.35066194E-04  2.26210126E-04  2.19071227E-03
  1.51392727E-02  5.76447371E-03 -1.14201246E-02 -8.46088734E-03  1.44791079E-04
 -2.58170469E-03  3.38036478E-02  3.25882675E-02  3.72766980E-04  2.94562872E-04
 -6.17091779E-04 -1.13083618E-02 -1.77788755E-03  2.20174365E-03 -5.73856765E-04
  5.65635398E-04  5.48848987E-04  7.94187059E-05 -2.52324224E-04  7.66939905E-03
  6.34032382E-03 -5.84816259E-03 -1.06039901E-03 -2.73223959E-03 -2.57632055E-04
  1.60072486E-02 -1.55586792E-04  1.03132366E-04 -2.64372664E-04  3.98118188E-03
  2.10202134E-03 -4.17764027E-03 -7.98823428E-04 -3.76740378E-02 -3.48242219E-04
  4.66778417E-06 -6.93888685E-05 -1.37424688E-03  2.66730930E-03 -6.37773408E-03
 -7.98786024E-04 -3.76760351E-02  5.53557873E-05  1.42868164E-04 -3.20269846E-04
 -6.03348815E-03  1.07029565E-03 -3.48083699E-03 -2.57677045E-04  1.60032285E-02
 -2.14343477E-04  8.30613649E-05 -2.27799607E-04 -5.72437689E-03 -1.22229618E-03
  1.85735166E-03 -4.25154554E-05 -2.72562193E-04  2.33655129E-02  3.15103556E-03
 -5.70236599E-04 -8.51527322E-05  1.00245013E-04  4.49046850E-03  1.72123430E-03
 -3.21136483E-03  7.31120029E-04 -6.96673836E-05 -1.05455174E-04 -1.07155513E-03
 -1.23798585E-04 -2.18112776E-03  1.28409572E-02  1.83895823E-03  2.88220668E-03
 -5.23264148E-03  1.16717271E-07  4.76437657E-07 -3.60302171E-07  6.38873774E-07
  2.42636112E-07  7.99964194E-01  2.74253304E-01 -4.97330221E-01 -4.48856904E-02
 -1.53876058E-02  2.79053892E-02  2.73797579E-02  9.38290897E-03 -1.70224484E-02
  2.51579688E-03  8.61890392E-04 -1.56424447E-03 -1.05809357E-03  5.23579248E-04
  5.68146921E-04  8.65738260E-04 -1.19067772E-04  2.27422340E-03 -1.12548752E-03
 -1.22011696E-03 -1.86015537E-03  2.54819414E-04  4.26212527E-05  2.72776145E-04
 -2.33679283E-02 -3.15036062E-03 -3.09855179E-04 -2.16432319E-04  4.47169749E-04
  4.92022623E-03  1.50316169E-03 -2.64012337E-03  7.90442388E-04 -6.82937136E-04
 -7.11244260E-04 -1.73373894E-04  2.94837626E-04 -9.07410281E-03 -7.27325986E-03
  4.20483108E-03  6.33027048E-03  3.96704250E-03 -6.59396460E-06  1.18514969E-02
 -1.40763148E-04 -3.06772914E-05  4.69043655E-05 -5.10823926E-03  7.42381573E-04
 -2.57795178E-03 -3.70038567E-04 -2.31944212E-02  2.67629696E-05  2.48083277E-05
 -5.26115903E-05  1.17144573E-03  2.57461487E-03 -5.73646806E-03  3.69906398E-04
  2.31957585E-02  6.36058887E-05  6.33939810E-06 -3.64490557E-06  6.30214562E-03
 -1.20976723E-05  1.09085902E-03  6.45462404E-06 -1.18524867E-02 -9.90751100E-05
 -5.15831563E-05  1.02158371E-04  7.85479874E-04 -2.22738167E-03  5.26423376E-03
  2.93409546E-08 -4.44576032E-07  2.59073744E-08  8.92079447E-06 -1.93964638E-05
  2.64052992E-04  1.14429857E-04  2.14238546E-04 -2.90740379E-03 -1.25741275E-03
  1.84930515E-06  1.46135843E-04  1.26773174E-05 -4.81770687E-05  3.35735839E-04
  1.23061315E-04 -1.44374204E-03  3.53575894E-05  5.57900513E-04 -3.25936848E-03
 -1.09850247E-07 -4.31127307E-07  9.04192899E-07 -8.82765462E-06 -1.30896945E-06
 -6.57894409E-02  8.98797809E-01  3.89819021E-01  3.44041766E-03 -4.69940982E-02
 -2.03824532E-02 -1.14704161E-03  1.56610011E-02  6.79479641E-03  2.63358047E-05
 -3.26967896E-04 -1.43324664E-04  1.56693293E-04  5.25337114E-05  1.73978324E-04
  6.72679617E-05  1.62281818E-04 -1.74102748E-03 -5.86151919E-04 -1.93935802E-03
 -7.51640224E-04 -1.80697980E-03 -1.86004008E-08  1.98334045E-08  4.40894222E-06
 -7.09023229E-06 -1.90749384E-05  2.64146973E-04  1.14488344E-04  2.05523369E-04
 -2.90704650E-03 -1.26083319E-03  2.15401051E-04 -7.29115938E-05  2.29395158E-04
  1.41989010E-04 -1.10363400E-04 -2.04183845E-03  7.98882468E-04 -2.16937397E-03
 -1.38329551E-03  1.27065006E-03  2.58657445E-07 -7.44872326E-06 -1.04362460E-05
  1.43303130E-04  6.22208654E-05  5.11367373E-05 -6.25148808E-04 -2.65963438E-04
  5.81978898E-07  1.11673845E-05 -1.28769772E-05  1.75501416E-04  7.61294782E-05
  8.50536044E-05 -1.10933346E-03 -4.82155379E-04 -5.33585055E-07 -1.52647450E-05
 -1.28272005E-05  1.75556555E-04  7.60950725E-05  7.99881052E-05 -1.10935415E-03
 -4.83899905E-04  1.26258141E-07  1.48631370E-05 -1.04992443E-05  1.43394539E-04
  6.20623746E-05  4.17506993E-05 -6.22216966E-04 -2.75937657E-04 -6.19102850E-05
 -1.18100636E-04  1.14012180E-02 -5.71585199E-03 -4.30380466E-04  3.26296595E-05
 -1.47924945E-04  7.97020044E-03 -7.36632244E-05  1.51620858E-03  3.55451431E-04
  1.81697512E-04 -6.70478722E-05 -4.48989692E-04 -1.43081119E-04 -3.19710254E-03
 -1.09289401E-02  8.10291128E-04  1.81271987E-03  5.00377973E-03 -2.56002180E-03
 -9.09198274E-03  3.67919310E-03 -2.75945605E-02  4.46055612E-03  5.64385021E-01
 -2.84401452E-01  7.50989346E-01 -3.06937673E-02  1.54669658E-02 -4.08422796E-02
  1.81387601E-02 -9.13963995E-03  2.41363047E-02  8.20808220E-04 -4.13990647E-04
  1.09269150E-03  7.56978381E-05  1.12218520E-04 -1.06655731E-04  8.98435109E-05
 -3.24095443E-05 -2.86327596E-03 -7.88418728E-03  1.33078452E-03  8.80068777E-04
  3.52339955E-03 -6.19633427E-05 -1.18457373E-04  1.14050152E-02 -5.71416568E-03
  4.80867294E-06  1.81938131E-04 -4.18613792E-04 -1.34103083E-03 -3.26712859E-03
  7.30572874E-03 -2.34019221E-04  4.73384703E-04  2.49306841E-04  3.32422892E-05
 -2.09380859E-04 -3.96810697E-03 -1.05494577E-02  1.22540133E-03  2.44515485E-03
  4.91654063E-03  9.89159433E-05 -1.32767371E-02 -1.04584361E-04 -5.74702190E-05
  1.14812545E-04  3.66319591E-03 -1.82242075E-03  4.82129283E-03  7.25693224E-05