0003_q000_m01_k00_opt_uwb97xd_def2svpd/0003_q000_m01_k00_force_uwb97xd_d
Force     UwB97XD                                                     Gen                 
Number of atoms                            I                7
Info1-9                                    I   N=           9
          13           9           0           0           0         100
           5          18       -5802
Full Title                                 C   N=           8
0003_q000_m01_k00_opt_uwb97xd_def2svpd/0003_q000_m01_k00_for
ce_uwb97xd_def2svp stable-force     
Route                                      C   N=          15
#p uwb97xd/chkbasis force guess=read geom=check scf=(maxcycl
e=900,verytightlineq,xqc) integral=grid=ultrafine symmetry=N
one density=current pop=(cm5,hlygat,mbs,npa) output=wfx     
Charge                                     I                0
Multiplicity                               I                1
Number of electrons                        I               32
Number of alpha electrons                  I               16
Number of beta electrons                   I               16
Number of basis functions                  I               66
Number of independent functions            I               66
Number of point charges in /Mol/           I                0
Number of translation vectors              I                0
Atomic numbers                             I   N=           7
           6          16           6           1           1           1
           1
Nuclear charges                            R   N=           7
  6.00000000E+00  1.60000000E+01  6.00000000E+00  1.00000000E+00  1.00000000E+00
  1.00000000E+00  1.00000000E+00
Current cartesian coordinates              R   N=          21
  1.85917402E+00 -6.15268432E-02  9.23282726E-02  4.92676194E+00  1.87460277E-01
  3.55239128E-02  6.09875638E+00  1.39121255E+00 -2.54358053E+00  1.07793953E+00
 -8.64605860E-01  1.81365494E+00  6.49701559E-01  5.25765681E-01 -1.46546666E+00
  4.94204756E+00  1.99646575E+00 -4.13423228E+00  8.14558359E+00  1.55646016E+00
 -2.58103217E+00
Number of symbols in /Mol/                 I                0
Int Atom Types                             I   N=           7
           0           0           0           0           0           0
           0
Force Field                                I                0
Atom Types                                 C   N=           7
                                                            
                        
MM charges                                 R   N=           7
  0.00000000E+00  0.00000000E+00  0.00000000E+00  0.00000000E+00  0.00000000E+00
  0.00000000E+00  0.00000000E+00
Integer atomic weights                     I   N=           7
          12          32          12           1           1           1
           1
Real atomic weights                        R   N=           7
  1.20000000E+01  3.19720718E+01  1.20000000E+01  1.00782504E+00  1.00782504E+00
  1.00782504E+00  1.00782504E+00
Atom fragment info                         I   N=           7
           0           0           0           0           0           0
           0
Atom residue num                           I   N=           7
           0           0           0           0           0           0
           0
Nuclear spins                              I   N=           7
           0           0           0           1           1           1
           1
Nuclear ZEff                               R   N=           7
 -3.60000000E+00 -1.36000000E+01 -3.60000000E+00 -1.00000000E+00 -1.00000000E+00
 -1.00000000E+00 -1.00000000E+00
Nuclear ZNuc                               R   N=           7
  6.00000000E+00  1.60000000E+01  6.00000000E+00  1.00000000E+00  1.00000000E+00
  1.00000000E+00  1.00000000E+00
Nuclear QMom                               R   N=           7
  0.00000000E+00  0.00000000E+00  0.00000000E+00  0.00000000E+00  0.00000000E+00
  0.00000000E+00  0.00000000E+00
Nuclear GFac                               R   N=           7
  0.00000000E+00  0.00000000E+00  0.00000000E+00  2.79284600E+00  2.79284600E+00
  2.79284600E+00  2.79284600E+00
MicOpt                                     I   N=           7
          -1          -1          -1          -1          -1          -1
          -1
Number of residues                         I                0
Number of secondary structures             I                0
Number of contracted shells                I               32
Number of primitive shells                 I               62
Pure/Cartesian d shells                    I                0
Pure/Cartesian f shells                    I                0
Highest angular momentum                   I                2
Largest degree of contraction              I                5
Shell types                                I   N=          32
           0           0           0           1           1          -2
           0           0           0           0           1           1
           1          -2           0           0           0           1
           1          -2           0           0           1           0
           0           1           0           0           1           0
           0           1
Number of primitives per shell             I   N=          32
           5           1           1           3           1           1
           5           3           1           1           5           1
           1           1           5           1           1           3
           1           1           3           1           1           3
           1           1           3           1           1           3
           1           1
Shell to atom map                          I   N=          32
           1           1           1           1           1           1
           2           2           2           2           2           2
           2           2           3           3           3           3
           3           3           4           4           4           5
           5           5           6           6           6           7
           7           7
Primitive exponents                        R   N=          62
  1.23840169E+03  1.86290050E+02  4.22511763E+01  1.16765579E+01  3.59305065E+00
  4.02451474E-01  1.30901827E-01  9.46809706E+00  2.01035451E+00  5.47710047E-01
  1.52686138E-01  8.00000000E-01  9.18493030E+03  1.38151055E+03  3.13871476E+02
  8.80538706E+01  2.70399149E+01  4.56487313E+01  4.96645223E+00  2.01162420E+00
  3.56610770E-01  1.35072215E-01  2.61982334E+02  6.13068947E+01  1.91037299E+01
  6.65677204E+00  2.39596352E+00  6.17761617E-01  1.69933769E-01  5.50000000E-01
  1.23840169E+03  1.86290050E+02  4.22511763E+01  1.16765579E+01  3.59305065E+00
  4.02451474E-01  1.30901827E-01  9.46809706E+00  2.01035451E+00  5.47710047E-01
  1.52686138E-01  8.00000000E-01  1.30107010E+01  1.96225720E+00  4.44537960E-01
  1.21949620E-01  8.00000000E-01  1.30107010E+01  1.96225720E+00  4.44537960E-01
  1.21949620E-01  8.00000000E-01  1.30107010E+01  1.96225720E+00  4.44537960E-01
  1.21949620E-01  8.00000000E-01  1.30107010E+01  1.96225720E+00  4.44537960E-01
  1.21949620E-01  8.00000000E-01
Contraction coefficients                   R   N=          62
  5.51736505E-03  4.10888286E-02  1.82253821E-01  4.68284594E-01  4.45758173E-01
  1.00000000E+00  1.00000000E+00  5.68883320E-02  3.12940593E-01  7.60650165E-01
  1.00000000E+00  1.00000000E+00 -5.47294661E-03 -4.09544022E-02 -1.84758290E-01
 -4.75672806E-01 -4.34951536E-01 -9.19040458E-02  5.56987772E-01  5.11154683E-01
  1.00000000E+00  1.00000000E+00 -9.18305466E-03 -6.59022265E-02 -2.45877845E-01
 -4.82314711E-01 -3.89563144E-01  1.00000000E+00  1.00000000E+00  1.00000000E+00
  5.51736505E-03  4.10888286E-02  1.82253821E-01  4.68284594E-01  4.45758173E-01
  1.00000000E+00  1.00000000E+00  5.68883320E-02  3.12940593E-01  7.60650165E-01
  1.00000000E+00  1.00000000E+00  3.34854848E-02  2.34721871E-01  8.13770285E-01
  1.00000000E+00  1.00000000E+00  3.34854848E-02  2.34721871E-01  8.13770285E-01
  1.00000000E+00  1.00000000E+00  3.34854848E-02  2.34721871E-01  8.13770285E-01
  1.00000000E+00  1.00000000E+00  3.34854848E-02  2.34721871E-01  8.13770285E-01
  1.00000000E+00  1.00000000E+00
Coordinates of each shell                  R   N=          96
  1.85917402E+00 -6.15268432E-02  9.23282726E-02  1.85917402E+00 -6.15268432E-02
  9.23282726E-02  1.85917402E+00 -6.15268432E-02  9.23282726E-02  1.85917402E+00
 -6.15268432E-02  9.23282726E-02  1.85917402E+00 -6.15268432E-02  9.23282726E-02
  1.85917402E+00 -6.15268432E-02  9.23282726E-02  4.92676194E+00  1.87460277E-01
  3.55239128E-02  4.92676194E+00  1.87460277E-01  3.55239128E-02  4.92676194E+00
  1.87460277E-01  3.55239128E-02  4.92676194E+00  1.87460277E-01  3.55239128E-02
  4.92676194E+00  1.87460277E-01  3.55239128E-02  4.92676194E+00  1.87460277E-01
  3.55239128E-02  4.92676194E+00  1.87460277E-01  3.55239128E-02  4.92676194E+00
  1.87460277E-01  3.55239128E-02  6.09875638E+00  1.39121255E+00 -2.54358053E+00
  6.09875638E+00  1.39121255E+00 -2.54358053E+00  6.09875638E+00  1.39121255E+00
 -2.54358053E+00  6.09875638E+00  1.39121255E+00 -2.54358053E+00  6.09875638E+00
  1.39121255E+00 -2.54358053E+00  6.09875638E+00  1.39121255E+00 -2.54358053E+00
  1.07793953E+00 -8.64605860E-01  1.81365494E+00  1.07793953E+00 -8.64605860E-01
  1.81365494E+00  1.07793953E+00 -8.64605860E-01  1.81365494E+00  6.49701559E-01
  5.25765681E-01 -1.46546666E+00  6.49701559E-01  5.25765681E-01 -1.46546666E+00
  6.49701559E-01  5.25765681E-01 -1.46546666E+00  4.94204756E+00  1.99646575E+00
 -4.13423228E+00  4.94204756E+00  1.99646575E+00 -4.13423228E+00  4.94204756E+00
  1.99646575E+00 -4.13423228E+00  8.14558359E+00  1.55646016E+00 -2.58103217E+00
  8.14558359E+00  1.55646016E+00 -2.58103217E+00  8.14558359E+00  1.55646016E+00
 -2.58103217E+00
Num ILSW                                   I              100
ILSW                                       I   N=         100
           1           0           0           0           2           0
           0           0           0           0        4639          -1
           5           0           0           0           2           0
           0           0           0           0           1           0
           1           1           0           0           0           0
           0           0      100000           0          -1           0
           0           0           0           0           0           0
           0           0           0           1           0           0
           0 -2000000000           1           0           0           0
           0           0         121          52           0           0
           0           0          58           0           0           0
           0           0           0           7           0           1
           0           0           0           0           0           0
           0           0           0           0           0           0
           0           0           0           0           0           0
           0           0           0           0           0           0
           0           0           0           0
Num RLSW                                   I               52
RLSW                                       R   N=          52
  1.00000000E+00  1.00000000E+00  1.00000000E+00  1.00000000E+00  1.00000000E+00
  0.00000000E+00  2.00000000E-01  2.22036000E-01  0.00000000E+00  7.77964000E-01
  0.00000000E+00  2.00000000E-01  0.00000000E+00  0.00000000E+00  1.00000000E+00
  0.00000000E+00  0.00000000E+00  1.00000000E+00  0.00000000E+00  0.00000000E+00
  0.00000000E+00  0.00000000E+00  1.00000000E+00  0.00000000E+00  0.00000000E+00
  0.00000000E+00  0.00000000E+00  1.00000000E+00  0.00000000E+00  0.00000000E+00
  0.00000000E+00  0.00000000E+00  1.00000000E+00  0.00000000E+00  0.00000000E+00
  0.00000000E+00  0.00000000E+00  0.00000000E+00  1.00000000E+00  1.00000000E+00
  0.00000000E+00  1.00000000E+00  0.00000000E+00  0.00000000E+00  0.00000000E+00
  0.00000000E+00  0.00000000E+00  0.00000000E+00  0.00000000E+00  0.00000000E+00
  0.00000000E+00  0.00000000E+00
MxBond                                     I                3
NBond                                      I   N=           7
           3           2           3           1           1           1
           1
IBond                                      I   N=          21
           2           4           5           1           3           0
           2           6           7           1           0           0
           1           0           0           3           0           0
           3           0           0
RBond                                      R   N=          21
  2.00000000E+00  1.00000000E+00  1.00000000E+00  2.00000000E+00  2.00000000E+00
  0.00000000E+00  2.00000000E+00  1.00000000E+00  1.00000000E+00  1.00000000E+00
  0.00000000E+00  0.00000000E+00  1.00000000E+00  0.00000000E+00  0.00000000E+00
  1.00000000E+00  0.00000000E+00  0.00000000E+00  1.00000000E+00  0.00000000E+00
  0.00000000E+00
Virial Ratio                               R      2.003953470231511E+00
SCF Energy                                 R     -4.764993018739073E+02
Total Energy                               R     -4.764993018739073E+02
RMS Force                                  R      1.297436825897689E-03
RMS Density                                R      8.992266576024889E-10
Job Status                                 I                1
Nuclear derivative order                   I                1
External E-field                           R   N=          35
  0.00000000E+00  0.00000000E+00  0.00000000E+00  0.00000000E+00  0.00000000E+00
  0.00000000E+00  0.00000000E+00  0.00000000E+00  0.00000000E+00  0.00000000E+00
  0.00000000E+00  0.00000000E+00  0.00000000E+00  0.00000000E+00  0.00000000E+00
  0.00000000E+00  0.00000000E+00  0.00000000E+00  0.00000000E+00  0.00000000E+00
  0.00000000E+00  0.00000000E+00  0.00000000E+00  0.00000000E+00  0.00000000E+00
  0.00000000E+00  0.00000000E+00  0.00000000E+00  0.00000000E+00  0.00000000E+00
  0.00000000E+00  0.00000000E+00  0.00000000E+00  0.00000000E+00  0.00000000E+00
IOpCl                                      I                1
IROHF                                      I                0
Alpha Orbital Energies                     R   N=          66
 -8.90779098E+01 -1.03078384E+01 -1.03078004E+01 -8.12603380E+00 -6.07834549E+00
 -6.07677645E+00 -6.07373267E+00 -9.51524279E-01 -7.87777331E-01 -6.56950445E-01
 -5.55789343E-01 -5.44824211E-01 -4.84951683E-01 -4.47506274E-01 -4.14174262E-01
 -2.68553105E-01  1.81947303E-02  1.55916945E-01  1.59384997E-01  1.71035605E-01
  2.12292994E-01  2.32815476E-01  2.94186519E-01  3.84921867E-01  4.75415698E-01
  4.88326724E-01  5.57902437E-01  5.59523447E-01  5.80678813E-01  6.18047528E-01
  6.26147987E-01  6.92346432E-01  7.16532547E-01  7.32345422E-01  7.37413977E-01
  7.56722166E-01  7.73469735E-01  8.19397965E-01  8.50231882E-01  8.81992406E-01
  9.97243667E-01  1.07831401E+00  1.18010871E+00  1.26152048E+00  1.27974736E+00
  1.28090286E+00  1.63955481E+00  1.64099121E+00  1.65264616E+00  1.66007694E+00
  1.76453017E+00  1.77254985E+00  2.06369509E+00  2.08083772E+00  2.11903841E+00
  2.12062014E+00  2.13745469E+00  2.18887195E+00  2.31311378E+00  2.32002243E+00
  2.46320311E+00  2.51999652E+00  2.91680245E+00  2.96921973E+00  2.99085514E+00
  2.99832077E+00
Beta Orbital Energies                      R   N=          66
 -8.90779098E+01 -1.03078384E+01 -1.03078004E+01 -8.12603380E+00 -6.07834549E+00
 -6.07677645E+00 -6.07373267E+00 -9.51524279E-01 -7.87777331E-01 -6.56950445E-01
 -5.55789343E-01 -5.44824211E-01 -4.84951683E-01 -4.47506274E-01 -4.14174262E-01
 -2.68553105E-01  1.81947303E-02  1.55916945E-01  1.59384997E-01  1.71035605E-01
  2.12292994E-01  2.32815476E-01  2.94186519E-01  3.84921867E-01  4.75415698E-01
  4.88326724E-01  5.57902437E-01  5.59523447E-01  5.80678813E-01  6.18047528E-01
  6.26147987E-01  6.92346432E-01  7.16532547E-01  7.32345422E-01  7.37413977E-01
  7.56722166E-01  7.73469735E-01  8.19397965E-01  8.50231882E-01  8.81992406E-01
  9.97243667E-01  1.07831401E+00  1.18010871E+00  1.26152048E+00  1.27974736E+00
  1.28090286E+00  1.63955481E+00  1.64099121E+00  1.65264616E+00  1.66007694E+00
  1.76453017E+00  1.77254985E+00  2.06369509E+00  2.08083772E+00  2.11903841E+00
  2.12062014E+00  2.13745469E+00  2.18887195E+00  2.31311378E+00  2.32002243E+00
  2.46320311E+00  2.51999652E+00  2.91680245E+00  2.96921973E+00  2.99085514E+00
  2.99832077E+00
Alpha MO coefficients                      R   N=        4356
  1.21341921E-04 -5.43279228E-04  3.02721891E-03 -4.16433429E-04 -3.49324758E-05
  1.03061939E-05  9.96935692E-04  3.56764661E-04 -6.54563385E-04  3.33950075E-04
 -5.60665483E-05 -2.40506425E-05 -5.38926588E-04 -5.40623413E-05  9.94243828E-01
 -2.18211388E-02  1.06620826E-02 -9.71189629E-03 -1.26647260E-04  6.38223268E-05
 -1.68577061E-04 -4.55053175E-04  2.29302318E-04 -6.05710110E-04  1.32245079E-03
 -6.66121062E-04  1.75960684E-03 -5.55708862E-05 -1.92189932E-04 -3.11730025E-06
  6.28789995E-05  9.31156580E-05  1.21384399E-04 -5.43485722E-04  3.02734000E-03
  1.61846553E-04  1.63266460E-04 -3.49368338E-04 -1.03257088E-03 -3.38584128E-04
  6.07142783E-04 -3.97055657E-04  3.05609203E-04  3.68377183E-04  5.91424586E-05
 -1.36260287E-04 -6.75268210E-05  2.87613967E-04  2.44263808E-05  4.62361054E-06
 -6.58549889E-06 -1.79621341E-04 -5.08926305E-04 -6.72268235E-05 -3.51747685E-05
  6.97777168E-05 -1.79602826E-04 -5.09007061E-04  9.58961958E-05  2.07069555E-05
 -3.16161051E-05 -6.74853752E-05  2.87596694E-04 -1.56249755E-05 -9.07008223E-06
  1.83130186E-05 -6.95207082E-01 -3.23828067E-02  1.86393094E-02  6.62911074E-05
 -3.73730142E-05  9.53449087E-05 -8.61697997E-04  8.91815713E-04 -2.20067600E-03
 -6.69473244E-04 -1.50307588E-04  1.13687608E-03 -9.86925208E-04 -1.15495116E-04
  6.70209882E-07  5.58876494E-06 -1.25198514E-05  2.54926828E-05 -3.91442023E-04
 -1.34936515E-04  2.45216390E-04 -1.45540944E-03 -5.02029745E-04  9.12493406E-04
 -1.43026043E-03 -4.91401737E-04  8.92089381E-04 -1.96178271E-03  9.74809309E-04
  1.05903075E-03  1.59484815E-03 -2.23923870E-04  7.02839563E-01  3.27293382E-02
 -1.88380117E-02 -7.02270198E-05  3.51775225E-05 -9.39722053E-05  1.92754390E-03
 -5.22046701E-04  1.52958331E-03  3.02307834E-04  3.40143610E-04 -9.49242379E-04
  1.30610037E-03  7.31036174E-05  3.44471208E-03 -3.88718074E-03  7.90043779E-04
  7.26797214E-04 -1.54410139E-03  2.41158660E-03 -5.89240498E-03  1.00014839E-03
 -5.29542668E-04  1.38931870E-03 -2.44767493E-03  5.93828418E-03 -1.07150306E-03
  5.15318845E-04 -1.36904250E-03 -3.47541101E-03  3.94292972E-03  1.88891025E-03
  1.85339367E-04 -1.10544016E-04  7.02912041E-01  3.18602049E-02 -1.83311219E-02
 -4.25528891E-04 -1.10620200E-04  1.85625234E-04  4.56000224E-04  4.99510838E-04
 -1.07723721E-03  8.93756684E-04  3.59398043E-04 -1.32252271E-03  9.87453409E-04
  3.03335218E-05  1.20218675E-04  1.00002366E-03 -2.21556411E-03  4.71560877E-03
  1.70652989E-04 -8.41839766E-05  2.22992100E-04  6.92122357E-04 -3.42188335E-04
  9.06116716E-04  2.50647377E-04 -1.19693665E-04  3.18630320E-04 -2.12188325E-04
  8.68465416E-04  1.20549748E-03 -1.69534836E-03 -6.66262418E-04  6.95280108E-01
  3.15052735E-02 -1.81266128E-02  3.45064871E-04  1.51520849E-04 -2.92272327E-04
 -1.28999246E-03 -8.48172994E-05 -2.08156790E-05  3.29696773E-04  6.32736363E-04
 -1.01145822E-03  1.43224981E-03 -3.38172957E-05 -2.82845710E-03  5.12807886E-03
 -8.04920445E-04 -7.30765302E-04  1.55066444E-03 -3.32259039E-03  4.24505881E-03
 -1.22060650E-03  5.40663359E-04 -1.45184775E-03 -3.29601132E-03  4.18055999E-03
 -1.03258724E-03  5.95243446E-04 -1.54676371E-03 -2.79069364E-03  5.08542489E-03
  1.86007954E-03  1.86655711E-04 -1.18231827E-04  1.75678305E-04 -1.78040981E-03
  7.67446289E-03 -1.08106460E-03 -7.62814851E-05 -6.56116519E-06  2.48750502E-03
  9.12008135E-04 -1.68361834E-03  4.21181442E-04 -1.62852189E-04  9.09966174E-05
 -9.22582329E-04 -6.75972005E-05  3.06484978E-01  1.02095269E+00  5.07078009E-02
 -2.88873127E-02  4.31671803E-03 -2.17647068E-03  5.74605377E-03 -1.49562424E-03
  7.54008229E-04 -1.99100571E-03  3.28777534E-03 -1.65631087E-03  4.37493565E-03
 -1.43562935E-04 -6.53973116E-04 -1.25362157E-04  3.48153913E-04  3.40339181E-04
  1.75661776E-04 -1.78097894E-03  7.67499459E-03  3.85976839E-04  4.26565025E-04
 -9.18956033E-04 -2.62790909E-03 -8.40678767E-04  1.49679176E-03 -6.62566244E-04
  3.73333247E-04  6.72783789E-04 -3.58965091E-05 -1.89374366E-04  7.98504594E-05
  8.60438878E-04  2.72238792E-04  6.61607616E-05 -1.06833388E-04 -2.76150014E-04
 -1.24884523E-03  8.64230727E-05 -6.70014585E-05  1.69069619E-04 -2.76053231E-04
 -1.24897558E-03  1.41788214E-04 -4.80693587E-05  1.34733428E-04  7.99557003E-05
  8.60334830E-04 -2.08329255E-04 -9.84097290E-05  1.92013226E-04  6.53388847E-05
 -9.11750382E-04  4.00861885E-03 -1.29968755E-03 -3.78191154E-05 -1.32049222E-04
  2.11845722E-03 -9.25476889E-04  2.49134397E-03  7.05219809E-04 -1.83541891E-04
  2.58227914E-05 -1.29255994E-03 -1.10870426E-04  1.43933359E-06  5.26118600E-06
 -2.35189896E-06  4.63189419E-06  8.00220758E-01  2.74536790E-01 -4.97868119E-01
 -4.20902733E-02 -1.44399379E-02  2.61870024E-02  1.04874326E-02  3.59739491E-03
 -6.52523797E-03 -1.34603056E-03  6.66082990E-04  7.22998334E-04  1.10122340E-03
 -1.51568796E-04 -6.52723356E-05  9.12845214E-04 -4.01436250E-03 -3.36995241E-04
 -5.23194971E-04  1.15014078E-03 -1.78101354E-03  1.04059324E-03 -2.70073166E-03
  9.45045693E-04 -6.33106553E-04 -9.11681669E-04 -5.73902382E-05  2.96511616E-04
 -6.18247300E-04 -4.98360048E-04  2.64847443E-04  4.33050069E-05 -5.50586917E-05
  6.05517390E-04  1.02875867E-03  1.09510286E-04 -7.03720710E-05  1.80599282E-04
 -6.05194204E-04 -1.02772420E-03 -1.45244750E-04  5.81663675E-05 -1.58495572E-04
  6.17941694E-04  4.98798896E-04  1.52638051E-04  9.98130333E-05 -2.04347495E-04
 -8.65921125E-09  1.74525380E-07 -1.03033534E-06 -1.39080209E-05  1.92961890E-04
  8.36712185E-05  9.72032085E-05 -1.33162296E-03 -5.77388773E-04 -1.15250380E-05
  1.37731122E-04 -2.37576548E-06 -5.24935313E-05  3.12917365E-04  3.74714813E-07
  1.34019636E-06 -3.95838336E-07  4.25196633E-07 -6.59092529E-02  8.99313639E-01
  3.89968068E-01  3.27292839E-03 -4.46559770E-02 -1.93641679E-02 -5.81139865E-04
  7.92164852E-03  3.43516732E-03  1.64954348E-04  5.54730063E-05  1.83271914E-04
  7.09057456E-05  1.70921522E-04 -3.16600145E-09 -9.96704547E-08  3.00471345E-07
 -1.40644431E-05  1.93092878E-04  8.35124037E-05  9.77949130E-05 -1.33189846E-03
 -5.76887989E-04  1.96297856E-04 -7.54596025E-05  2.08459140E-04  1.32417775E-04
 -1.21080392E-04  1.30434607E-07 -1.75229330E-08 -8.20042798E-06  1.10381421E-04
  4.78278822E-05  8.27984911E-08  1.58598542E-07 -1.16747603E-05  1.59070085E-04
  6.90141803E-05  2.07356934E-07  2.49761292E-07 -1.15780695E-05  1.59085839E-04
  6.90146659E-05 -2.33081769E-07  4.90222502E-08 -8.10315710E-06  1.10327127E-04
  4.80086312E-05  1.21484682E-06 -6.64823508E-04  7.24566769E-03 -5.10535876E-04
 -7.18274170E-05  7.94870970E-05  2.10123696E-03  9.59514611E-04 -1.85812574E-03
  3.77553401E-04  3.73043876E-04 -1.06512733E-05 -5.53303779E-04 -2.43651500E-04
 -2.59603772E-03 -9.43447635E-03  4.52333305E-03 -1.16766221E-02  5.65023203E-01
 -2.84391991E-01  7.51338088E-01 -2.87317589E-02  1.44614046E-02 -3.82057655E-02
  7.36631189E-03 -3.70784450E-03  9.79556342E-03  1.14226286E-04  1.29089305E-04
 -1.91915941E-04  1.84928339E-04 -2.28805194E-05  1.13169528E-06 -6.64519330E-04
  7.24342415E-03  2.66715816E-04  1.94313106E-04 -4.03279467E-04 -2.66780325E-03
 -6.73730238E-04  1.10433748E-03 -1.85280983E-04  6.51509015E-04  2.91196976E-04
 -9.23872333E-05 -3.06855228E-04  2.07847650E-04 -5.30753456E-04 -2.39626319E-04
 -7.33608675E-07 -3.88872948E-05 -5.94522309E-04 -1.19686140E-03  4.02651274E-05
  2.35195098E-05 -4.73459633E-05 -5.94887034E-04 -1.19755756E-03 -6.32790050E-05
 -1.19215506E-05  1.69030284E-05  2.08387996E-04 -5.30420525E-04  4.71940725E-05
  9.77267592E-05 -2.17319377E-04 -1.16012291E-01  2.23112191E-01  3.77874979E-02
  1.00604704E-01  9.88023732E-03 -5.80331946E-03  1.29209786E-02  1.06258492E-03
 -2.70251667E-04 -5.96314492E-03 -1.74717371E-03 -7.00122940E-04  1.11675225E-02
  2.42690660E-03 -6.66263649E-02 -4.13356421E-01  5.87535579E-01  2.08971324E-01
 -2.96633775E-02  1.49511413E-02 -3.94927706E-02 -4.87186971E-02  2.45525946E-02
 -6.48566311E-02 -2.89024418E-02  1.45684589E-02 -3.84777759E-02  1.97989277E-03
 -1.29371775E-02 -1.46097876E-02  2.10843621E-02  9.20252272E-03 -1.16041346E-01
  2.23166614E-01  3.77936499E-02 -4.24857973E-02 -3.91676613E-02  8.31768451E-02
 -4.96938155E-03 -5.06785867E-03  1.08529143E-02  6.30743260E-03 -7.81890359E-03
 -7.28760283E-03  1.12830804E-03  3.80572691E-03  4.87194509E-02  8.34289760E-03
  4.95987018E-03  2.91793715E-03 -5.89554960E-03  4.73853785E-02  6.46971933E-03
  5.28880079E-03 -1.81440006E-03  5.07493770E-03  4.73958619E-02  6.47058926E-03
  3.27935082E-03 -2.50373477E-03  6.32627259E-03  4.87315696E-02  8.34415594E-03
 -7.84162912E-03 -1.46623245E-03  2.06426634E-03 -1.78582901E-01  3.55482632E-01
  1.08931225E-01  5.08381953E-02 -5.67229928E-03  2.17047509E-02  2.16767000E-04
  2.12437517E-03 -4.85660294E-03 -2.20404548E-03  3.32414724E-03 -2.69618094E-03
  9.42782437E-03  2.39166249E-05 -4.15650722E-06 -2.65852101E-05  4.03756157E-05
  2.06462927E-05 -1.04476452E-01 -3.57974213E-02  6.49587031E-02 -1.73753029E-01
 -5.95330988E-02  1.08029820E-01 -1.34808177E-01 -4.61868117E-02  8.38161058E-02
 -3.35234621E-02  1.65846219E-02  1.79915831E-02  2.74311437E-02 -3.76653850E-03
  1.78567902E-01 -3.55452383E-01 -1.08917863E-01 -3.77495899E-03  2.18255080E-02
 -5.09549552E-02  5.05318925E-03 -3.16608459E-04  1.58290876E-03 -6.92573083E-03
  1.19251779E-03  7.59709640E-03 -1.95529424E-03 -1.04710301E-03  1.34024495E-01
  1.99541838E-02  5.01880773E-03  5.25605715E-03 -1.12805249E-02  1.07002546E-01
  1.22469518E-02  6.68780396E-03 -3.36274513E-03  8.88209176E-03 -1.06991706E-01
 -1.22451897E-02 -6.67020345E-03  3.36846201E-03 -8.89136416E-03 -1.34017444E-01
 -1.99536788E-02  1.33763845E-02  1.04307622E-03 -1.59448846E-04  1.28955629E-01
 -2.58917442E-01 -1.18234106E-01  1.58593342E-01  2.74513640E-03  2.03441657E-02
  4.15188841E-02  1.52991547E-03  3.45442993E-03 -6.83541137E-03 -1.88562371E-04
  4.91203650E-03  2.58531469E-03  3.07432526E-04 -4.13927233E-02 -2.64067592E-01
  4.06774254E-01  1.85978728E-01  1.99858084E-02 -1.00680576E-02  2.65911867E-02
  3.17466815E-02 -1.59935113E-02  4.22398716E-02  4.32741898E-02 -2.18007299E-02
  5.75813297E-02 -2.79980686E-03 -1.59295670E-03  5.85429914E-03 -6.35479838E-03
 -4.24056957E-04  1.28955484E-01 -2.58917224E-01 -1.18235787E-01 -3.67424277E-02
 -6.41596963E-02  1.41830712E-01 -1.15365541E-02 -1.66420752E-02  3.64505602E-02
  3.51268983E-03 -5.30744398E-03 -6.42841531E-04 -5.88184402E-03  1.47217894E-03
 -1.49184903E-01 -3.34578944E-02 -1.19951109E-03 -5.13072344E-03  1.16346401E-02
 -1.90216759E-01 -4.70764502E-02 -6.50425295E-03  4.72013516E-03 -1.19800318E-02
 -1.90229452E-01 -4.70796294E-02 -9.91197244E-03  3.55293481E-03 -9.86196370E-03
 -1.49197603E-01 -3.34611409E-02  1.23542285E-02 -4.90578296E-04  3.20647166E-03
 -1.29980033E-02  2.37425659E-02  5.61717919E-02 -6.08459657E-02 -1.16369456E-01
  2.58156372E-01 -7.27267544E-03 -4.53178099E-02  1.03306767E-01  4.80160999E-03
  2.00239525E-03 -1.64484962E-03 -4.77212634E-03 -1.52328398E-03 -3.88453690E-03
 -2.54460716E-02  3.98758693E-02  2.02448877E-03  6.31009293E-02 -3.17881191E-02
  8.39348364E-02  1.10172931E-01 -5.55006325E-02  1.46546233E-01  1.18451439E-01
 -5.96741847E-02  1.57567845E-01 -1.64568063E-02 -4.42919936E-02  8.42866897E-03
  3.83380044E-03  1.95969623E-02 -1.29840930E-02  2.37139542E-02  5.61491781E-02
  2.86602806E-01  2.58623681E-03  4.22112718E-02  1.08489449E-01 -5.69061201E-03
  3.13603128E-02 -2.80976001E-03  5.76558107E-03  2.43374198E-03  1.45116046E-03
 -2.38063037E-03  2.28827547E-01  5.76268900E-02  6.46844046E-03  3.75806486E-03
 -7.58197648E-03 -1.31448155E-01 -4.20015949E-02 -7.88325439E-03 -3.03982237E-04
 -6.25177296E-04 -1.31531255E-01 -4.20225405E-02  2.21916387E-03  3.15818559E-03
 -6.91207800E-03  2.28855484E-01  5.76349080E-02 -1.01152822E-02 -1.92105486E-03
  2.73293529E-03 -3.26263914E-02  5.96371853E-02  8.12285455E-02 -2.61436169E-01
  4.90565335E-02 -1.57178555E-01 -7.60660600E-02  1.59238494E-02 -4.95271086E-02
  8.43257953E-03 -8.46722937E-04 -2.92916700E-03 -9.20490709E-03 -8.93870528E-04
  2.75282753E-06  1.83090813E-05 -2.82575859E-05 -2.45099213E-05  1.19432128E-01
  4.09354564E-02 -7.42776822E-02  2.12935331E-01  7.29824742E-02 -1.32426694E-01
  1.87465895E-01  6.42534361E-02 -1.16594214E-01  1.41155464E-02 -6.98012724E-03
 -7.57462077E-03 -1.15467034E-02  1.57913641E-03  3.26183173E-02 -5.96188673E-02
 -8.12359164E-02  6.60097201E-02 -1.15986109E-01  2.78636299E-01  2.30892122E-02
 -3.40578808E-02  8.24450784E-02  7.68831850E-03 -7.12923713E-03 -5.72729436E-03
 -3.98824686E-03  2.70425735E-03 -1.00872607E-03 -4.46233960E-03 -5.44761404E-03
  1.44041132E-03 -4.23989684E-03  2.54573067E-01  7.19056068E-02  6.27997562E-03
 -4.55437996E-03  1.15582868E-02 -2.54529092E-01 -7.18899018E-02 -9.56122139E-03
  3.42847128E-03 -9.51669171E-03  9.43103715E-04  4.44505898E-03  2.36823451E-03
 -2.49593932E-03  6.15561910E-03 -7.69426104E-03  2.59679750E-02  1.92729294E-02
  1.82017308E-01  1.21760950E-01 -2.50338727E-01  6.76366732E-02  5.01930210E-02
 -1.04463380E-01 -8.35196315E-03  5.41394413E-03  3.69272554E-03  8.53937020E-03
 -1.22682465E-03 -2.94474093E-06 -1.94930796E-05  2.81245002E-05  3.83155911E-05
 -8.45627258E-02 -2.90470231E-02  5.25677625E-02 -1.58191771E-01 -5.43315043E-02
  9.83383647E-02 -1.02379533E-01 -3.52130264E-02  6.36275434E-02 -4.19909834E-02