0003_q000_m01_k00_opt_uwb97xd_def2svpd/0003_q000_m01_k00_force_ub3lyp_de
Force     UB3LYP                                                      Gen                 
Number of atoms                            I                7
Info1-9                                    I   N=           9
          13           9           0           0           0         100
           5          18        -502
Full Title                                 C   N=           8
0003_q000_m01_k00_opt_uwb97xd_def2svpd/0003_q000_m01_k00_for
ce_ub3lyp_def2svp stable-force      
Route                                      C   N=          15
#p ub3lyp/chkbasis force guess=read geom=check scf=(maxcycle
=900,verytightlineq,xqc) integral=grid=ultrafine symmetry=No
ne density=current pop=(cm5,hlygat,mbs,npa) output=wfx      
Charge                                     I                0
Multiplicity                               I                1
Number of electrons                        I               32
Number of alpha electrons                  I               16
Number of beta electrons                   I               16
Number of basis functions                  I               66
Number of independent functions            I               66
Number of point charges in /Mol/           I                0
Number of translation vectors              I                0
Atomic numbers                             I   N=           7
           6          16           6           1           1           1
           1
Nuclear charges                            R   N=           7
  6.00000000E+00  1.60000000E+01  6.00000000E+00  1.00000000E+00  1.00000000E+00
  1.00000000E+00  1.00000000E+00
Current cartesian coordinates              R   N=          21
  1.85917402E+00 -6.15268432E-02  9.23282726E-02  4.92676194E+00  1.87460277E-01
  3.55239128E-02  6.09875638E+00  1.39121255E+00 -2.54358053E+00  1.07793953E+00
 -8.64605860E-01  1.81365494E+00  6.49701559E-01  5.25765681E-01 -1.46546666E+00
  4.94204756E+00  1.99646575E+00 -4.13423228E+00  8.14558359E+00  1.55646016E+00
 -2.58103217E+00
Number of symbols in /Mol/                 I                0
Int Atom Types                             I   N=           7
           0           0           0           0           0           0
           0
Force Field                                I                0
Atom Types                                 C   N=           7
                                                            
                        
MM charges                                 R   N=           7
  0.00000000E+00  0.00000000E+00  0.00000000E+00  0.00000000E+00  0.00000000E+00
  0.00000000E+00  0.00000000E+00
Integer atomic weights                     I   N=           7
          12          32          12           1           1           1
           1
Real atomic weights                        R   N=           7
  1.20000000E+01  3.19720718E+01  1.20000000E+01  1.00782504E+00  1.00782504E+00
  1.00782504E+00  1.00782504E+00
Atom fragment info                         I   N=           7
           0           0           0           0           0           0
           0
Atom residue num                           I   N=           7
           0           0           0           0           0           0
           0
Nuclear spins                              I   N=           7
           0           0           0           1           1           1
           1
Nuclear ZEff                               R   N=           7
 -3.60000000E+00 -1.36000000E+01 -3.60000000E+00 -1.00000000E+00 -1.00000000E+00
 -1.00000000E+00 -1.00000000E+00
Nuclear ZNuc                               R   N=           7
  6.00000000E+00  1.60000000E+01  6.00000000E+00  1.00000000E+00  1.00000000E+00
  1.00000000E+00  1.00000000E+00
Nuclear QMom                               R   N=           7
  0.00000000E+00  0.00000000E+00  0.00000000E+00  0.00000000E+00  0.00000000E+00
  0.00000000E+00  0.00000000E+00
Nuclear GFac                               R   N=           7
  0.00000000E+00  0.00000000E+00  0.00000000E+00  2.79284600E+00  2.79284600E+00
  2.79284600E+00  2.79284600E+00
MicOpt                                     I   N=           7
          -1          -1          -1          -1          -1          -1
          -1
Number of residues                         I                0
Number of secondary structures             I                0
Number of contracted shells                I               32
Number of primitive shells                 I               62
Pure/Cartesian d shells                    I                0
Pure/Cartesian f shells                    I                0
Highest angular momentum                   I                2
Largest degree of contraction              I                5
Shell types                                I   N=          32
           0           0           0           1           1          -2
           0           0           0           0           1           1
           1          -2           0           0           0           1
           1          -2           0           0           1           0
           0           1           0           0           1           0
           0           1
Number of primitives per shell             I   N=          32
           5           1           1           3           1           1
           5           3           1           1           5           1
           1           1           5           1           1           3
           1           1           3           1           1           3
           1           1           3           1           1           3
           1           1
Shell to atom map                          I   N=          32
           1           1           1           1           1           1
           2           2           2           2           2           2
           2           2           3           3           3           3
           3           3           4           4           4           5
           5           5           6           6           6           7
           7           7
Primitive exponents                        R   N=          62
  1.23840169E+03  1.86290050E+02  4.22511763E+01  1.16765579E+01  3.59305065E+00
  4.02451474E-01  1.30901827E-01  9.46809706E+00  2.01035451E+00  5.47710047E-01
  1.52686138E-01  8.00000000E-01  9.18493030E+03  1.38151055E+03  3.13871476E+02
  8.80538706E+01  2.70399149E+01  4.56487313E+01  4.96645223E+00  2.01162420E+00
  3.56610770E-01  1.35072215E-01  2.61982334E+02  6.13068947E+01  1.91037299E+01
  6.65677204E+00  2.39596352E+00  6.17761617E-01  1.69933769E-01  5.50000000E-01
  1.23840169E+03  1.86290050E+02  4.22511763E+01  1.16765579E+01  3.59305065E+00
  4.02451474E-01  1.30901827E-01  9.46809706E+00  2.01035451E+00  5.47710047E-01
  1.52686138E-01  8.00000000E-01  1.30107010E+01  1.96225720E+00  4.44537960E-01
  1.21949620E-01  8.00000000E-01  1.30107010E+01  1.96225720E+00  4.44537960E-01
  1.21949620E-01  8.00000000E-01  1.30107010E+01  1.96225720E+00  4.44537960E-01
  1.21949620E-01  8.00000000E-01  1.30107010E+01  1.96225720E+00  4.44537960E-01
  1.21949620E-01  8.00000000E-01
Contraction coefficients                   R   N=          62
  5.51736505E-03  4.10888286E-02  1.82253821E-01  4.68284594E-01  4.45758173E-01
  1.00000000E+00  1.00000000E+00  5.68883320E-02  3.12940593E-01  7.60650165E-01
  1.00000000E+00  1.00000000E+00 -5.47294661E-03 -4.09544022E-02 -1.84758290E-01
 -4.75672806E-01 -4.34951536E-01 -9.19040458E-02  5.56987772E-01  5.11154683E-01
  1.00000000E+00  1.00000000E+00 -9.18305466E-03 -6.59022265E-02 -2.45877845E-01
 -4.82314711E-01 -3.89563144E-01  1.00000000E+00  1.00000000E+00  1.00000000E+00
  5.51736505E-03  4.10888286E-02  1.82253821E-01  4.68284594E-01  4.45758173E-01
  1.00000000E+00  1.00000000E+00  5.68883320E-02  3.12940593E-01  7.60650165E-01
  1.00000000E+00  1.00000000E+00  3.34854848E-02  2.34721871E-01  8.13770285E-01
  1.00000000E+00  1.00000000E+00  3.34854848E-02  2.34721871E-01  8.13770285E-01
  1.00000000E+00  1.00000000E+00  3.34854848E-02  2.34721871E-01  8.13770285E-01
  1.00000000E+00  1.00000000E+00  3.34854848E-02  2.34721871E-01  8.13770285E-01
  1.00000000E+00  1.00000000E+00
Coordinates of each shell                  R   N=          96
  1.85917402E+00 -6.15268432E-02  9.23282726E-02  1.85917402E+00 -6.15268432E-02
  9.23282726E-02  1.85917402E+00 -6.15268432E-02  9.23282726E-02  1.85917402E+00
 -6.15268432E-02  9.23282726E-02  1.85917402E+00 -6.15268432E-02  9.23282726E-02
  1.85917402E+00 -6.15268432E-02  9.23282726E-02  4.92676194E+00  1.87460277E-01
  3.55239128E-02  4.92676194E+00  1.87460277E-01  3.55239128E-02  4.92676194E+00
  1.87460277E-01  3.55239128E-02  4.92676194E+00  1.87460277E-01  3.55239128E-02
  4.92676194E+00  1.87460277E-01  3.55239128E-02  4.92676194E+00  1.87460277E-01
  3.55239128E-02  4.92676194E+00  1.87460277E-01  3.55239128E-02  4.92676194E+00
  1.87460277E-01  3.55239128E-02  6.09875638E+00  1.39121255E+00 -2.54358053E+00
  6.09875638E+00  1.39121255E+00 -2.54358053E+00  6.09875638E+00  1.39121255E+00
 -2.54358053E+00  6.09875638E+00  1.39121255E+00 -2.54358053E+00  6.09875638E+00
  1.39121255E+00 -2.54358053E+00  6.09875638E+00  1.39121255E+00 -2.54358053E+00
  1.07793953E+00 -8.64605860E-01  1.81365494E+00  1.07793953E+00 -8.64605860E-01
  1.81365494E+00  1.07793953E+00 -8.64605860E-01  1.81365494E+00  6.49701559E-01
  5.25765681E-01 -1.46546666E+00  6.49701559E-01  5.25765681E-01 -1.46546666E+00
  6.49701559E-01  5.25765681E-01 -1.46546666E+00  4.94204756E+00  1.99646575E+00
 -4.13423228E+00  4.94204756E+00  1.99646575E+00 -4.13423228E+00  4.94204756E+00
  1.99646575E+00 -4.13423228E+00  8.14558359E+00  1.55646016E+00 -2.58103217E+00
  8.14558359E+00  1.55646016E+00 -2.58103217E+00  8.14558359E+00  1.55646016E+00
 -2.58103217E+00
Num ILSW                                   I              100
ILSW                                       I   N=         100
           1           0           0           0           2           0
           0           0           0           0         402          -1
           5           0           0           0           2           0
           0           0           0           0           1           0
           1           1           0           0           0           0
           0           0      100000           0          -1           0
           0           0           0           0           0           0
           0           0           0           1           0           0
           0 -2000000000           1           0           0           0
           0           0           4          52           0           0
           0           0           5           0           0           0
           0           0           0           7           0           1
           0           0           0           0           0           0
           0           0           0           0           0           0
           0           0           0           0           0           0
           0           0           0           0           0           0
           0           0           0           0
Num RLSW                                   I               52
RLSW                                       R   N=          52
  8.00000000E-01  7.20000000E-01  1.00000000E+00  8.10000000E-01  2.00000000E-01
  0.00000000E+00  0.00000000E+00  1.00000000E+00  0.00000000E+00  0.00000000E+00
  0.00000000E+00  0.00000000E+00  1.00000000E+00  0.00000000E+00  0.00000000E+00
  0.00000000E+00  0.00000000E+00  1.00000000E+00  0.00000000E+00  0.00000000E+00
  0.00000000E+00  0.00000000E+00  1.00000000E+00  0.00000000E+00  0.00000000E+00
  0.00000000E+00  0.00000000E+00  1.00000000E+00  0.00000000E+00  0.00000000E+00
  0.00000000E+00  0.00000000E+00  1.00000000E+00  0.00000000E+00  0.00000000E+00
  0.00000000E+00  0.00000000E+00  0.00000000E+00  1.00000000E+00  1.00000000E+00
  0.00000000E+00  1.00000000E+00  0.00000000E+00  0.00000000E+00  0.00000000E+00
  0.00000000E+00  0.00000000E+00  0.00000000E+00  0.00000000E+00  0.00000000E+00
  0.00000000E+00  0.00000000E+00
MxBond                                     I                3
NBond                                      I   N=           7
           3           2           3           1           1           1
           1
IBond                                      I   N=          21
           2           4           5           1           3           0
           2           6           7           1           0           0
           1           0           0           3           0           0
           3           0           0
RBond                                      R   N=          21
  2.00000000E+00  1.00000000E+00  1.00000000E+00  2.00000000E+00  2.00000000E+00
  0.00000000E+00  2.00000000E+00  1.00000000E+00  1.00000000E+00  1.00000000E+00
  0.00000000E+00  0.00000000E+00  1.00000000E+00  0.00000000E+00  0.00000000E+00
  1.00000000E+00  0.00000000E+00  0.00000000E+00  1.00000000E+00  0.00000000E+00
  0.00000000E+00
Virial Ratio                               R      2.003984549107507E+00
SCF Energy                                 R     -4.765517378272361E+02
Total Energy                               R     -4.765517378272361E+02
S**2                                       R      1.421085471520200E-14
S**2 after annihilation                    R     -1.884714606603657E-12
RMS Force                                  R      2.341173384359716E-03
RMS Density                                R      3.710246848169140E-09
Job Status                                 I                1
Nuclear derivative order                   I                1
External E-field                           R   N=          35
  0.00000000E+00  0.00000000E+00  0.00000000E+00  0.00000000E+00  0.00000000E+00
  0.00000000E+00  0.00000000E+00  0.00000000E+00  0.00000000E+00  0.00000000E+00
  0.00000000E+00  0.00000000E+00  0.00000000E+00  0.00000000E+00  0.00000000E+00
  0.00000000E+00  0.00000000E+00  0.00000000E+00  0.00000000E+00  0.00000000E+00
  0.00000000E+00  0.00000000E+00  0.00000000E+00  0.00000000E+00  0.00000000E+00
  0.00000000E+00  0.00000000E+00  0.00000000E+00  0.00000000E+00  0.00000000E+00
  0.00000000E+00  0.00000000E+00  0.00000000E+00  0.00000000E+00  0.00000000E+00
IOpCl                                      I                1
IROHF                                      I                0
Alpha Orbital Energies                     R   N=          66
 -8.89076227E+01 -1.01947650E+01 -1.01947343E+01 -7.99974347E+00 -5.96670616E+00
 -5.96498873E+00 -5.96217268E+00 -8.50203323E-01 -6.90249610E-01 -5.64746787E-01
 -4.67529439E-01 -4.59349743E-01 -4.03183383E-01 -3.60258864E-01 -3.32664898E-01
 -1.96018764E-01 -4.85139013E-02  7.77161933E-02  7.77302907E-02  9.11749273E-02
  1.28594241E-01  1.52648434E-01  2.10154531E-01  3.05343909E-01  3.92382333E-01
  4.04085254E-01  4.73919479E-01  4.77049512E-01  4.91301138E-01  5.35634527E-01
  5.36202669E-01  6.10569396E-01  6.35358111E-01  6.41979539E-01  6.48111959E-01
  6.65197838E-01  6.81871310E-01  7.33606576E-01  7.65019779E-01  7.93589094E-01
  9.10532510E-01  9.90745365E-01  1.09551494E+00  1.17380426E+00  1.19762293E+00
  1.19835449E+00  1.55341518E+00  1.55520492E+00  1.56607598E+00  1.57422413E+00
  1.67591676E+00  1.68377659E+00  1.97709568E+00  1.99135190E+00  2.03176331E+00
  2.03496853E+00  2.05195685E+00  2.09789257E+00  2.22831651E+00  2.23512352E+00
  2.37466445E+00  2.43173820E+00  2.82311644E+00  2.87835545E+00  2.90008887E+00
  2.90645193E+00
Beta Orbital Energies                      R   N=          66
 -8.89076227E+01 -1.01947650E+01 -1.01947343E+01 -7.99974347E+00 -5.96670616E+00
 -5.96498873E+00 -5.96217268E+00 -8.50203323E-01 -6.90249610E-01 -5.64746787E-01
 -4.67529439E-01 -4.59349743E-01 -4.03183383E-01 -3.60258864E-01 -3.32664898E-01
 -1.96018764E-01 -4.85139013E-02  7.77161933E-02  7.77302907E-02  9.11749273E-02
  1.28594241E-01  1.52648434E-01  2.10154531E-01  3.05343909E-01  3.92382333E-01
  4.04085254E-01  4.73919479E-01  4.77049512E-01  4.91301138E-01  5.35634527E-01
  5.36202669E-01  6.10569396E-01  6.35358111E-01  6.41979539E-01  6.48111959E-01
  6.65197838E-01  6.81871310E-01  7.33606576E-01  7.65019779E-01  7.93589094E-01
  9.10532510E-01  9.90745365E-01  1.09551494E+00  1.17380426E+00  1.19762293E+00
  1.19835449E+00  1.55341518E+00  1.55520492E+00  1.56607598E+00  1.57422413E+00
  1.67591676E+00  1.68377659E+00  1.97709568E+00  1.99135190E+00  2.03176331E+00
  2.03496853E+00  2.05195685E+00  2.09789257E+00  2.22831651E+00  2.23512352E+00
  2.37466445E+00  2.43173820E+00  2.82311644E+00  2.87835545E+00  2.90008887E+00
  2.90645193E+00
Alpha MO coefficients                      R   N=        4356
  1.22397282E-04 -5.47710800E-04  3.05213783E-03 -4.20060614E-04 -3.52439188E-05
  1.04126501E-05  1.00516158E-03  3.59721764E-04 -6.59995045E-04  3.36750547E-04
 -5.64806074E-05 -2.43597708E-05 -5.43236027E-04 -5.45057966E-05  9.94222802E-01
 -2.19056723E-02  1.07423341E-02 -9.79104680E-03 -1.27929470E-04  6.44650708E-05
 -1.70279856E-04 -4.58911290E-04  2.31246025E-04 -6.10845104E-04  1.33342070E-03
 -6.71646038E-04  1.77420186E-03 -5.60834524E-05 -1.93796501E-04 -3.02197741E-06
  6.32618164E-05  9.38694952E-05  1.22440151E-04 -5.47919047E-04  3.05225889E-03
  1.63273367E-04  1.64687179E-04 -3.52405393E-04 -1.04112205E-03 -3.41375083E-04
  6.12140618E-04 -4.00258296E-04  3.08165404E-04  3.71290779E-04  5.97443757E-05
 -1.37378936E-04 -6.81035548E-05  2.90051756E-04  2.45436314E-05  4.64202769E-06
 -6.60854717E-06 -1.81096651E-04 -5.13119780E-04 -6.79064963E-05 -3.54580568E-05
  7.03163931E-05 -1.81077998E-04 -5.13201220E-04  9.66948045E-05  2.09301158E-05
 -3.19963394E-05 -6.80617629E-05  2.90034320E-04 -1.56912233E-05 -9.11428639E-06
  1.84040193E-05 -6.94307242E-01 -3.34595445E-02  1.94093249E-02  1.79258961E-04
 -3.18527434E-05  1.01649872E-04 -8.67353747E-04  9.40955679E-04 -2.31496921E-03
 -7.28915875E-04 -1.58225345E-04  1.19741617E-03 -9.98673280E-04 -1.15690722E-04
  8.16776585E-07  6.82781865E-06 -1.51533659E-05  3.10597866E-05 -4.16474849E-04
 -1.43714532E-04  2.61244768E-04 -1.51138529E-03 -5.21909539E-04  9.48915870E-04
 -1.48657465E-03 -5.11054764E-04  9.27935239E-04 -2.04500220E-03  1.01691569E-03
  1.10500173E-03  1.66070741E-03 -2.34050796E-04  7.03270154E-01  3.38800945E-02
 -1.96519308E-02 -3.43892309E-05  8.10999238E-05 -1.93921622E-04  2.03926364E-03
 -5.33933296E-04  1.57584543E-03  2.91477146E-04  3.85056118E-04 -9.74047925E-04
  1.37945789E-03  6.50498387E-05  3.65488322E-03 -4.01274998E-03  8.54274444E-04
  7.92687196E-04 -1.68532394E-03  2.57476624E-03 -6.11418839E-03  1.09382390E-03
 -5.78515408E-04  1.51800333E-03 -2.61989736E-03  6.17001033E-03 -1.17251246E-03
  5.64682040E-04 -1.49990196E-03 -3.69329182E-03  4.08072889E-03  2.06256110E-03
  1.99493090E-04 -1.14037215E-04  7.03343677E-01  3.29645976E-02 -1.90732516E-02
 -5.54190916E-04 -1.22645724E-04  1.91677103E-04  4.80333152E-04  5.25359238E-04
 -1.13278101E-03  9.63274678E-04  3.83301876E-04 -1.39074234E-03  9.99309243E-04
  2.38212160E-05  1.25060808E-04  1.04369441E-03 -2.29627889E-03  4.88697751E-03
  1.82942401E-04 -8.99231620E-05  2.38303171E-04  7.20719167E-04 -3.55113406E-04
  9.40758517E-04  2.81339106E-04 -1.33703818E-04  3.56116066E-04 -2.16894926E-04
  9.03187543E-04  1.24882053E-03 -1.76058670E-03 -6.92371096E-04  6.94381505E-01
  3.25332018E-02 -1.88227813E-02  3.97612403E-04  2.01031787E-04 -3.97670866E-04
 -1.36084166E-03 -8.86612801E-05 -2.38513255E-05  3.23047847E-04  6.92876856E-04
 -1.03692068E-03  1.50267438E-03 -4.89112335E-05 -3.01886546E-03  5.32886550E-03
 -8.72974554E-04 -7.97254664E-04  1.69262094E-03 -3.53980568E-03  4.40215033E-03
 -1.33042343E-03  5.90416507E-04 -1.58503844E-03 -3.50642680E-03  4.32345609E-03
 -1.12584924E-03  6.47914897E-04 -1.68394528E-03 -2.97172747E-03  5.27702843E-03
  2.02438330E-03  2.01180332E-04 -1.24140711E-04  2.13733848E-04 -1.90501959E-03
  8.30484412E-03 -1.18262243E-03 -8.45536707E-05 -4.60763281E-06  2.70927813E-03
  9.79494773E-04 -1.80192237E-03  4.77070734E-04 -1.70149158E-04  8.40131393E-05
 -1.00689629E-03 -7.65990209E-05  3.06410217E-01  1.02006324E+00  5.32228057E-02
 -3.10923161E-02  4.37262137E-03 -2.20337392E-03  5.81888293E-03 -1.51755255E-03
  7.64699460E-04 -2.01979877E-03  3.53917783E-03 -1.78284130E-03  4.70940722E-03
 -1.58104033E-04 -6.69883725E-04 -1.00720213E-04  3.24510113E-04  3.42902058E-04
  2.13698704E-04 -1.90555374E-03  8.30548174E-03  4.24822881E-04  4.66379602E-04
 -1.00424659E-03 -2.82978044E-03 -9.18280272E-04  1.64180518E-03 -7.25092731E-04
  4.24579354E-04  7.29351628E-04 -2.32531455E-05 -2.11658536E-04  6.84103206E-05
  9.26871468E-04  2.77853750E-04  6.76731591E-05 -1.09369406E-04 -3.01379261E-04
 -1.33959857E-03  7.35960613E-05 -7.26980504E-05  1.80052356E-04 -3.01304727E-04
 -1.33979189E-03  1.57696989E-04 -4.39217387E-05  1.27849194E-04  6.85581347E-05
  9.26807045E-04 -2.12971806E-04 -1.00413159E-04  1.95851825E-04  7.89291039E-05
 -9.10474065E-04  4.23958467E-03 -1.32796229E-03 -3.57708485E-05 -1.41523259E-04
  2.26580409E-03 -9.62860882E-04  2.60266179E-03  7.27909582E-04 -1.98352864E-04
  2.07756893E-05 -1.32502580E-03 -1.08996700E-04  1.22618986E-07  4.99370651E-07
 -3.05655977E-07  1.25347672E-07  8.00195847E-01  2.74327749E-01 -4.97476766E-01
 -4.27797269E-02 -1.46656973E-02  2.65962204E-02  1.10171226E-02  3.77623413E-03
 -6.84935121E-03 -1.27332183E-03  6.30085424E-04  6.83652142E-04  1.04177298E-03
 -1.43230068E-04 -7.88327178E-05  9.11003160E-04 -4.23992245E-03 -3.37320548E-04
 -5.34954939E-04  1.17717359E-03 -1.84360202E-03  1.10740195E-03 -2.86530040E-03
  9.75828124E-04 -6.44332080E-04 -9.35203664E-04 -6.89604899E-05  3.00473618E-04
 -6.55900657E-04 -5.17507669E-04  2.67734654E-04  4.29923288E-05 -5.38662735E-05
  6.29227816E-04  1.08173971E-03  1.04404588E-04 -7.46303182E-05  1.89530140E-04
 -6.29371072E-04 -1.08168722E-03 -1.56280009E-04  5.68827359E-05 -1.57406028E-04
  6.55758075E-04  5.17631570E-04  1.52502421E-04  1.01115818E-04 -2.07368873E-04
 -6.25973409E-09  6.67316277E-08 -7.54099363E-08 -1.51877368E-05  2.09163281E-04
  9.07087602E-05  1.02314340E-04 -1.39725116E-03 -6.06159493E-04 -1.01975644E-05
  1.41554090E-04 -7.26917313E-07 -5.31922725E-05  3.21960939E-04 -1.00754532E-07
 -3.90043715E-07  3.80321024E-07 -1.09053033E-06 -6.57984831E-02  8.98989155E-01
  3.89899190E-01  3.33157166E-03 -4.55148961E-02 -1.97405464E-02 -6.05392449E-04
  8.26765442E-03  3.58636123E-03  1.47778730E-04  4.95338156E-05  1.64127696E-04
  6.35495323E-05  1.53074776E-04  1.14809554E-08 -1.84464356E-07  1.07439589E-06
 -1.52082800E-05  2.09337511E-04  9.04829927E-05  1.02220259E-04 -1.39769057E-03
 -6.05353646E-04  2.02481781E-04 -7.66754724E-05  2.15209388E-04  1.36254066E-04
 -1.22416660E-04  1.61678787E-07 -3.29392804E-08 -8.66062840E-06  1.16438000E-04
  5.04503259E-05  1.63670780E-08 -5.70731366E-09 -1.23449818E-05  1.68203353E-04
  7.29837246E-05  1.27481495E-07  5.44525014E-08 -1.22419353E-05  1.68223422E-04
  7.29722242E-05 -2.09120559E-07  3.54307857E-08 -8.52993176E-06  1.16390109E-04
  5.06164439E-05  7.57797135E-06 -6.74259372E-04  7.52595463E-03 -5.27653709E-04
 -7.79549694E-05  9.06807902E-05  2.18364915E-03  1.00349822E-03 -1.94527782E-03
  3.94883970E-04  3.86137246E-04 -1.65843963E-05 -5.69420107E-04 -2.51579800E-04
 -2.60684834E-03 -9.42545105E-03  4.38996947E-03 -1.20211092E-02  5.64570169E-01
 -2.84495021E-01  7.51234543E-01 -2.92309453E-02  1.47298712E-02 -3.88958812E-02
  7.65328616E-03 -3.85627334E-03  1.01839737E-02  1.07660322E-04  1.35279633E-04
 -1.69869849E-04  1.56597214E-04 -3.05562817E-05  7.52004796E-06 -6.74551981E-04
  7.52652745E-03  2.84616725E-04  2.00442756E-04 -4.14463545E-04 -2.78599446E-03
 -6.99579695E-04  1.14445692E-03 -1.92351225E-04  6.76762287E-04  2.98579759E-04
 -8.90292084E-05 -3.17581241E-04  2.20736357E-04 -5.51293793E-04 -2.56525641E-04
 -2.62003974E-06 -3.74170355E-05 -6.31739813E-04 -1.25492936E-03  3.23399798E-05
  2.42045826E-05 -5.03003367E-05 -6.31706399E-04 -1.25496140E-03 -6.33175986E-05
 -8.61094191E-06  9.21737575E-06  2.20886953E-04 -5.51256478E-04  5.47303449E-05
  1.04178605E-04 -2.30968483E-04 -1.16339670E-01  2.25746785E-01  3.37576396E-02
  1.02353735E-01  1.00129657E-02 -5.81351361E-03  1.31735082E-02  1.33599807E-03
 -8.58386239E-04 -6.28259137E-03 -1.82304252E-03 -6.72278172E-04  1.16479224E-02
  2.52982556E-03 -6.70976264E-02 -4.15961626E-01  5.96439012E-01  2.00287299E-01
 -3.00606869E-02  1.51536202E-02 -4.00252945E-02 -4.97276078E-02  2.50664471E-02
 -6.62079606E-02 -2.86530436E-02  1.44436622E-02 -3.81472398E-02  2.05046831E-03
 -1.27673498E-02 -1.46569185E-02  2.10841589E-02  9.13040067E-03 -1.16371081E-01
  2.25806649E-01  3.37622249E-02 -4.31322510E-02 -3.98566803E-02  8.46582075E-02
 -5.66232165E-03 -5.11857933E-03  1.08534566E-02  6.60110701E-03 -8.19789134E-03
 -7.58848631E-03  1.10747368E-03  3.97746320E-03  4.91756621E-02  9.74748997E-03
  5.13481236E-03  3.01503731E-03 -6.09021610E-03  4.75001844E-02  7.16016010E-03
  5.44856383E-03 -1.85940811E-03  5.20558250E-03  4.75116659E-02  7.16198883E-03
  3.35511193E-03 -2.57765776E-03  6.50946071E-03  4.91886128E-02  9.74864012E-03
 -8.10478370E-03 -1.51905528E-03  2.14194697E-03 -1.79489395E-01  3.61050839E-01
  9.70828073E-02  5.36236014E-02 -5.55855836E-03  2.19153699E-02  8.62649440E-05
  2.20632103E-03 -5.06769489E-03 -2.33877500E-03  3.24654451E-03 -2.70708284E-03
  9.66278218E-03  9.24439925E-05 -4.49419612E-06 -2.85026654E-05  4.16030266E-05
  2.28383502E-05 -1.05143168E-01 -3.60261675E-02  6.53736440E-02 -1.75162460E-01
 -6.00171769E-02  1.08907704E-01 -1.35887428E-01 -4.65567172E-02  8.44864511E-02
 -3.38812341E-02  1.67610846E-02  1.81843528E-02  2.77238503E-02 -3.80897953E-03
  1.79471081E-01 -3.61013833E-01 -9.70678198E-02 -2.97917465E-03  2.29398540E-02
 -5.33918132E-02  5.22256441E-03 -3.85790597E-04  1.77091043E-03 -7.03954865E-03
  1.39308279E-03  7.74096311E-03 -1.98713004E-03 -1.14377625E-03  1.34334449E-01
  2.24762008E-02  5.33519236E-03  5.36190901E-03 -1.14713953E-02  1.07348974E-01
  1.41950283E-02  6.96754417E-03 -3.43407988E-03  9.09368623E-03 -1.07335685E-01
 -1.41923112E-02 -6.78514482E-03  3.49626556E-03 -9.20523271E-03 -1.34325074E-01
 -2.24755240E-02  1.36865017E-02  1.15193345E-03 -3.58339982E-04  1.29838030E-01
 -2.62828333E-01 -1.07195769E-01  1.59504867E-01  3.18691389E-03  1.94780486E-02
  3.96489747E-02  1.78112762E-03  2.56219820E-03 -7.23343286E-03 -4.59819672E-04
  4.99883510E-03  3.05334051E-03  4.91940835E-04 -4.14980507E-02 -2.64480924E-01
  4.10626311E-01  1.76573731E-01  1.86892146E-02 -9.41371190E-03  2.48653307E-02
  2.92240191E-02 -1.47198139E-02  3.88810794E-02  4.11459693E-02 -2.07280806E-02
  5.47513123E-02 -2.90484295E-03 -9.17149425E-04  6.62211234E-03 -7.46342024E-03
 -9.05511580E-04  1.29839731E-01 -2.62831569E-01 -1.07197335E-01 -3.79624857E-02
 -6.44476649E-02  1.42291212E-01 -1.17715543E-02 -1.58319082E-02  3.45422017E-02
  3.72234085E-03 -5.87938473E-03 -8.81985300E-04 -5.91108950E-03  1.72464690E-03
 -1.50724783E-01 -3.72944290E-02 -1.25699264E-03 -5.23649025E-03  1.18687573E-02
 -1.90501716E-01 -5.21720871E-02 -6.65880066E-03  4.72883286E-03 -1.20260766E-02
 -1.90516607E-01 -5.21764534E-02 -9.90302318E-03  3.61787836E-03 -1.00098586E-02
 -1.50740654E-01 -3.72993798E-02  1.26150760E-02 -4.87217257E-04  3.24282465E-03
 -1.26679106E-02  2.44744231E-02  4.97834389E-02 -5.67831661E-02 -1.17566239E-01
  2.61600928E-01 -8.06287389E-03 -4.22993287E-02  9.62106337E-02  4.88467833E-03
  1.41241333E-03 -1.72463397E-03 -4.88400359E-03 -1.28019060E-03 -4.01824492E-03
 -2.61733318E-02  4.05946243E-02  5.86801021E-03  6.18699115E-02 -3.11697198E-02
  8.23019483E-02  1.07885136E-01 -5.43514853E-02  1.43512200E-01  1.15589475E-01
 -5.82344220E-02  1.53765518E-01 -1.66713050E-02 -4.57463886E-02  7.88047831E-03
  4.92416214E-03  2.04087003E-02 -1.26557448E-02  2.44488077E-02  4.97644321E-02
  2.88656263E-01  7.05400834E-04  4.68951062E-02  1.01502784E-01 -4.78987588E-03
  2.81099584E-02 -3.21170668E-03  5.41487201E-03  2.61436721E-03  1.73614006E-03
 -2.19193520E-03  2.28300655E-01  6.68552941E-02  6.86866318E-03  3.56708796E-03
 -7.07427495E-03 -1.34591126E-01 -4.97237965E-02 -8.16764153E-03 -4.36159296E-04
 -3.68328600E-04 -1.34665732E-01 -4.97461491E-02  2.58631041E-03  3.24901567E-03
 -7.05959354E-03  2.28330920E-01  6.68670848E-02 -9.74063346E-03 -2.12074123E-03
  3.25631097E-03 -3.30624561E-02  6.12314574E-02  7.39182370E-02 -2.65696551E-01
  4.73573517E-02 -1.53975560E-01 -7.41012456E-02  1.23901370E-02 -4.10472649E-02
  8.98227845E-03 -4.04943434E-04 -3.23680279E-03 -9.48968213E-03 -1.11843114E-03
  3.10788718E-06  2.03537160E-05 -2.92457201E-05 -2.91584827E-05  1.20348707E-01
  4.12499503E-02 -7.48460035E-02  2.14249053E-01  7.34340381E-02 -1.33241572E-01
  1.89326413E-01  6.48910416E-02 -1.17746317E-01  1.31942872E-02 -6.52474148E-03
 -7.08151419E-03 -1.07930525E-02  1.47861107E-03  3.30534546E-02 -6.12112513E-02
 -7.39215646E-02  6.11943481E-02 -1.17397170E-01  2.81084548E-01  1.51225262E-02
 -3.25823175E-02  7.77024041E-02  7.77493622E-03 -7.88561103E-03 -5.76059827E-03
 -4.22376442E-03  3.00020452E-03  4.17991853E-03 -4.26186200E-03 -5.78805960E-03
  1.57532010E-03 -4.60803013E-03  2.53281195E-01  8.15761448E-02  6.03367075E-03
 -4.44493508E-03  1.12643764E-02 -2.53241294E-01 -8.15609089E-02 -9.34919445E-03
  3.30750294E-03 -9.20150298E-03 -4.23475180E-03  4.24494435E-03  2.62105532E-03
 -2.66049490E-03  6.57781847E-03 -8.66955262E-03  2.85414289E-02  3.61161963E-02
  1.79196249E-01  1.23293097E-01 -2.54305571E-01  6.88377161E-02  4.29107677E-02
 -8.74323289E-02 -8.61447958E-03  5.92311444E-03  3.87427654E-03  8.75437257E-03
 -1.42132876E-03 -3.17486247E-06 -2.07479356E-05  2.79566151E-05  4.20413739E-05