0003_q000_m01_k00_opt_uwb97xd_def2svpd/0003_q000_m01_k00_force_ub3lyp_de
Force     UB3LYP                                                      Gen                 
Number of atoms                            I                7
Info1-9                                    I   N=           9
          13           9           0           0           0         100
           5          18        -502
Full Title                                 C   N=           8
0003_q000_m01_k00_opt_uwb97xd_def2svpd/0003_q000_m01_k00_for
ce_ub3lyp_def2tzvpd stable-force    
Route                                      C   N=          15
#p ub3lyp/chkbasis force guess=read geom=check scf=(maxcycle
=900,verytightlineq,xqc) integral=grid=ultrafine symmetry=No
ne density=current pop=(cm5,hlygat,mbs,npa) output=wfx      
Charge                                     I                0
Multiplicity                               I                1
Number of electrons                        I               32
Number of alpha electrons                  I               16
Number of beta electrons                   I               16
Number of basis functions                  I              156
Number of independent functions            I              156
Number of point charges in /Mol/           I                0
Number of translation vectors              I                0
Atomic numbers                             I   N=           7
           6          16           6           1           1           1
           1
Nuclear charges                            R   N=           7
  6.00000000E+00  1.60000000E+01  6.00000000E+00  1.00000000E+00  1.00000000E+00
  1.00000000E+00  1.00000000E+00
Current cartesian coordinates              R   N=          21
  1.85917402E+00 -6.15268432E-02  9.23282726E-02  4.92676194E+00  1.87460277E-01
  3.55239128E-02  6.09875638E+00  1.39121255E+00 -2.54358053E+00  1.07793953E+00
 -8.64605860E-01  1.81365494E+00  6.49701559E-01  5.25765681E-01 -1.46546666E+00
  4.94204756E+00  1.99646575E+00 -4.13423228E+00  8.14558359E+00  1.55646016E+00
 -2.58103217E+00
Number of symbols in /Mol/                 I                0
Int Atom Types                             I   N=           7
           0           0           0           0           0           0
           0
Force Field                                I                0
Atom Types                                 C   N=           7
                                                            
                        
MM charges                                 R   N=           7
  0.00000000E+00  0.00000000E+00  0.00000000E+00  0.00000000E+00  0.00000000E+00
  0.00000000E+00  0.00000000E+00
Integer atomic weights                     I   N=           7
          12          32          12           1           1           1
           1
Real atomic weights                        R   N=           7
  1.20000000E+01  3.19720718E+01  1.20000000E+01  1.00782504E+00  1.00782504E+00
  1.00782504E+00  1.00782504E+00
Atom fragment info                         I   N=           7
           0           0           0           0           0           0
           0
Atom residue num                           I   N=           7
           0           0           0           0           0           0
           0
Nuclear spins                              I   N=           7
           0           0           0           1           1           1
           1
Nuclear ZEff                               R   N=           7
 -3.60000000E+00 -1.36000000E+01 -3.60000000E+00 -1.00000000E+00 -1.00000000E+00
 -1.00000000E+00 -1.00000000E+00
Nuclear ZNuc                               R   N=           7
  6.00000000E+00  1.60000000E+01  6.00000000E+00  1.00000000E+00  1.00000000E+00
  1.00000000E+00  1.00000000E+00
Nuclear QMom                               R   N=           7
  0.00000000E+00  0.00000000E+00  0.00000000E+00  0.00000000E+00  0.00000000E+00
  0.00000000E+00  0.00000000E+00
Nuclear GFac                               R   N=           7
  0.00000000E+00  0.00000000E+00  0.00000000E+00  2.79284600E+00  2.79284600E+00
  2.79284600E+00  2.79284600E+00
MicOpt                                     I   N=           7
          -1          -1          -1          -1          -1          -1
          -1
Number of residues                         I                0
Number of secondary structures             I                0
Number of contracted shells                I               62
Number of primitive shells                 I              102
Pure/Cartesian d shells                    I                0
Pure/Cartesian f shells                    I                0
Highest angular momentum                   I                3
Largest degree of contraction              I                7
Shell types                                I   N=          62
           0           0           0           0           0           0
           1           1           1          -2          -2          -2
          -3           0           0           0           0           0
           0           1           1           1           1           1
           1          -2          -2          -2          -3           0
           0           0           0           0           0           1
           1           1          -2          -2          -2          -3
           0           0           0           1           1           0
           0           0           1           1           0           0
           0           1           1           0           0           0
           1           1
Number of primitives per shell             I   N=          62
           6           2           1           1           1           1
           4           1           1           1           1           1
           1           7           3           2           1           1
           1           5           1           1           1           1
           1           2           1           1           1           6
           2           1           1           1           1           4
           1           1           1           1           1           1
           3           1           1           1           1           3
           1           1           1           1           3           1
           1           1           1           3           1           1
           1           1
Shell to atom map                          I   N=          62
           1           1           1           1           1           1
           1           1           1           1           1           1
           1           2           2           2           2           2
           2           2           2           2           2           2
           2           2           2           2           2           3
           3           3           3           3           3           3
           3           3           3           3           3           3
           4           4           4           4           4           5
           5           5           5           5           6           6
           6           6           6           7           7           7
           7           7
Primitive exponents                        R   N=         102
  1.35753497E+04  2.03523337E+03  4.63225624E+02  1.31200196E+02  4.28530159E+01
  1.55841858E+01  6.20671385E+00  2.57648965E+00  5.76963394E-01  2.29728314E-01
  9.51644400E-02  4.84754014E-02  3.46972322E+01  7.95826228E+00  2.37808269E+00
  8.14332082E-01  2.88875473E-01  1.00568237E-01  1.09700000E+00  3.18000000E-01
  9.09853364E-02  7.61000000E-01  6.07009281E+04  9.10261069E+03  2.07141660E+03
  5.86024768E+02  1.90553950E+02  6.76303843E+01  2.51273069E+01  1.12574630E+02
  3.47955542E+01  6.51155562E+00  3.23990323E+00  1.54771609E+00  4.05410301E-01
  1.45506511E-01  5.01788395E-02  5.64367160E+02  1.33426244E+02  4.24682712E+01
  1.56165276E+01  6.10939885E+00  2.44041602E+00  8.38822013E-01  3.12887469E-01
  1.07701090E-01  3.03598336E-02  3.75600000E+00  8.12000000E-01  2.73000000E-01
  8.15470250E-02  5.57000000E-01  1.35753497E+04  2.03523337E+03  4.63225624E+02
  1.31200196E+02  4.28530159E+01  1.55841858E+01  6.20671385E+00  2.57648965E+00
  5.76963394E-01  2.29728314E-01  9.51644400E-02  4.84754014E-02  3.46972322E+01
  7.95826228E+00  2.37808269E+00  8.14332082E-01  2.88875473E-01  1.00568237E-01
  1.09700000E+00  3.18000000E-01  9.09853364E-02  7.61000000E-01  3.40613410E+01
  5.12357460E+00  1.16466260E+00  3.27230410E-01  1.03072410E-01  8.00000000E-01
  9.57741296E-02  3.40613410E+01  5.12357460E+00  1.16466260E+00  3.27230410E-01
  1.03072410E-01  8.00000000E-01  9.57741296E-02  3.40613410E+01  5.12357460E+00
  1.16466260E+00  3.27230410E-01  1.03072410E-01  8.00000000E-01  9.57741296E-02
  3.40613410E+01  5.12357460E+00  1.16466260E+00  3.27230410E-01  1.03072410E-01
  8.00000000E-01  9.57741296E-02
Contraction coefficients                   R   N=         102
  6.06455036E-04  4.69790889E-03  2.43324776E-02  9.73999683E-02  3.01955843E-01
  6.62336091E-01  6.55953085E-01  3.75856333E-01  1.00000000E+00  1.00000000E+00
  1.00000000E+00  1.00000000E+00  1.13272200E-02  7.61696592E-02  3.01922522E-01
  7.27850273E-01  1.00000000E+00  1.00000000E+00  1.00000000E+00  1.00000000E+00
  1.00000000E+00  1.00000000E+00  5.23800749E-04  4.05063268E-03  2.08270042E-02
  8.14968503E-02  2.37491138E-01  4.47261715E-01  3.48919184E-01  1.00455699E-01
  4.33911729E-01 -1.20843306E+00  6.74981294E-01  3.47087958E-01  1.00000000E+00
  1.00000000E+00  1.00000000E+00  3.48869236E-03  2.76851268E-02  1.26594002E-01
  3.61659257E-01  6.12220344E-01  1.00000000E+00  1.00000000E+00  1.00000000E+00
  1.00000000E+00  1.00000000E+00  1.82851975E-01  9.14259873E-01  1.00000000E+00
  1.00000000E+00  1.00000000E+00  6.06455036E-04  4.69790889E-03  2.43324776E-02
  9.73999683E-02  3.01955843E-01  6.62336091E-01  6.55953085E-01  3.75856333E-01
  1.00000000E+00  1.00000000E+00  1.00000000E+00  1.00000000E+00  1.13272200E-02
  7.61696592E-02  3.01922522E-01  7.27850273E-01  1.00000000E+00  1.00000000E+00
  1.00000000E+00  1.00000000E+00  1.00000000E+00  1.00000000E+00  2.54393072E-02
  1.90085949E-01  8.52441130E-01  1.00000000E+00  1.00000000E+00  1.00000000E+00
  1.00000000E+00  2.54393072E-02  1.90085949E-01  8.52441130E-01  1.00000000E+00
  1.00000000E+00  1.00000000E+00  1.00000000E+00  2.54393072E-02  1.90085949E-01
  8.52441130E-01  1.00000000E+00  1.00000000E+00  1.00000000E+00  1.00000000E+00
  2.54393072E-02  1.90085949E-01  8.52441130E-01  1.00000000E+00  1.00000000E+00
  1.00000000E+00  1.00000000E+00
Coordinates of each shell                  R   N=         186
  1.85917402E+00 -6.15268432E-02  9.23282726E-02  1.85917402E+00 -6.15268432E-02
  9.23282726E-02  1.85917402E+00 -6.15268432E-02  9.23282726E-02  1.85917402E+00
 -6.15268432E-02  9.23282726E-02  1.85917402E+00 -6.15268432E-02  9.23282726E-02
  1.85917402E+00 -6.15268432E-02  9.23282726E-02  1.85917402E+00 -6.15268432E-02
  9.23282726E-02  1.85917402E+00 -6.15268432E-02  9.23282726E-02  1.85917402E+00
 -6.15268432E-02  9.23282726E-02  1.85917402E+00 -6.15268432E-02  9.23282726E-02
  1.85917402E+00 -6.15268432E-02  9.23282726E-02  1.85917402E+00 -6.15268432E-02
  9.23282726E-02  1.85917402E+00 -6.15268432E-02  9.23282726E-02  4.92676194E+00
  1.87460277E-01  3.55239128E-02  4.92676194E+00  1.87460277E-01  3.55239128E-02
  4.92676194E+00  1.87460277E-01  3.55239128E-02  4.92676194E+00  1.87460277E-01
  3.55239128E-02  4.92676194E+00  1.87460277E-01  3.55239128E-02  4.92676194E+00
  1.87460277E-01  3.55239128E-02  4.92676194E+00  1.87460277E-01  3.55239128E-02
  4.92676194E+00  1.87460277E-01  3.55239128E-02  4.92676194E+00  1.87460277E-01
  3.55239128E-02  4.92676194E+00  1.87460277E-01  3.55239128E-02  4.92676194E+00
  1.87460277E-01  3.55239128E-02  4.92676194E+00  1.87460277E-01  3.55239128E-02
  4.92676194E+00  1.87460277E-01  3.55239128E-02  4.92676194E+00  1.87460277E-01
  3.55239128E-02  4.92676194E+00  1.87460277E-01  3.55239128E-02  4.92676194E+00
  1.87460277E-01  3.55239128E-02  6.09875638E+00  1.39121255E+00 -2.54358053E+00
  6.09875638E+00  1.39121255E+00 -2.54358053E+00  6.09875638E+00  1.39121255E+00
 -2.54358053E+00  6.09875638E+00  1.39121255E+00 -2.54358053E+00  6.09875638E+00
  1.39121255E+00 -2.54358053E+00  6.09875638E+00  1.39121255E+00 -2.54358053E+00
  6.09875638E+00  1.39121255E+00 -2.54358053E+00  6.09875638E+00  1.39121255E+00
 -2.54358053E+00  6.09875638E+00  1.39121255E+00 -2.54358053E+00  6.09875638E+00
  1.39121255E+00 -2.54358053E+00  6.09875638E+00  1.39121255E+00 -2.54358053E+00
  6.09875638E+00  1.39121255E+00 -2.54358053E+00  6.09875638E+00  1.39121255E+00
 -2.54358053E+00  1.07793953E+00 -8.64605860E-01  1.81365494E+00  1.07793953E+00
 -8.64605860E-01  1.81365494E+00  1.07793953E+00 -8.64605860E-01  1.81365494E+00
  1.07793953E+00 -8.64605860E-01  1.81365494E+00  1.07793953E+00 -8.64605860E-01
  1.81365494E+00  6.49701559E-01  5.25765681E-01 -1.46546666E+00  6.49701559E-01
  5.25765681E-01 -1.46546666E+00  6.49701559E-01  5.25765681E-01 -1.46546666E+00
  6.49701559E-01  5.25765681E-01 -1.46546666E+00  6.49701559E-01  5.25765681E-01
 -1.46546666E+00  4.94204756E+00  1.99646575E+00 -4.13423228E+00  4.94204756E+00
  1.99646575E+00 -4.13423228E+00  4.94204756E+00  1.99646575E+00 -4.13423228E+00
  4.94204756E+00  1.99646575E+00 -4.13423228E+00  4.94204756E+00  1.99646575E+00
 -4.13423228E+00  8.14558359E+00  1.55646016E+00 -2.58103217E+00  8.14558359E+00
  1.55646016E+00 -2.58103217E+00  8.14558359E+00  1.55646016E+00 -2.58103217E+00
  8.14558359E+00  1.55646016E+00 -2.58103217E+00  8.14558359E+00  1.55646016E+00
 -2.58103217E+00
Num ILSW                                   I              100
ILSW                                       I   N=         100
           1           0           0           0           2           0
           0           0           0           0         402          -1
           5           0           0           0           2           0
           0           0           0           0           1           0
           1           1           0           0           0           0
           0           0      100000           0          -1           0
           0           0           0           0           0           0
           0           0           0           1           0           0
           0 -2000000000           1           0           0           0
           0           0           4          52           0           0
           0           0           5           0           0           0
           0           0           0           7           0           1
           0           0           0           0           0           0
           0           0           0           0           0           0
           0           0           0           0           0           0
           0           0           0           0           0           0
           0           0           0           0
Num RLSW                                   I               52
RLSW                                       R   N=          52
  8.00000000E-01  7.20000000E-01  1.00000000E+00  8.10000000E-01  2.00000000E-01
  0.00000000E+00  0.00000000E+00  1.00000000E+00  0.00000000E+00  0.00000000E+00
  0.00000000E+00  0.00000000E+00  1.00000000E+00  0.00000000E+00  0.00000000E+00
  0.00000000E+00  0.00000000E+00  1.00000000E+00  0.00000000E+00  0.00000000E+00
  0.00000000E+00  0.00000000E+00  1.00000000E+00  0.00000000E+00  0.00000000E+00
  0.00000000E+00  0.00000000E+00  1.00000000E+00  0.00000000E+00  0.00000000E+00
  0.00000000E+00  0.00000000E+00  1.00000000E+00  0.00000000E+00  0.00000000E+00
  0.00000000E+00  0.00000000E+00  0.00000000E+00  1.00000000E+00  1.00000000E+00
  0.00000000E+00  1.00000000E+00  0.00000000E+00  0.00000000E+00  0.00000000E+00
  0.00000000E+00  0.00000000E+00  0.00000000E+00  0.00000000E+00  0.00000000E+00
  0.00000000E+00  0.00000000E+00
MxBond                                     I                3
NBond                                      I   N=           7
           3           2           3           1           1           1
           1
IBond                                      I   N=          21
           2           4           5           1           3           0
           2           6           7           1           0           0
           1           0           0           3           0           0
           3           0           0
RBond                                      R   N=          21
  2.00000000E+00  1.00000000E+00  1.00000000E+00  2.00000000E+00  2.00000000E+00
  0.00000000E+00  2.00000000E+00  1.00000000E+00  1.00000000E+00  1.00000000E+00
  0.00000000E+00  0.00000000E+00  1.00000000E+00  0.00000000E+00  0.00000000E+00
  1.00000000E+00  0.00000000E+00  0.00000000E+00  1.00000000E+00  0.00000000E+00
  0.00000000E+00
Virial Ratio                               R      2.002525590263463E+00
SCF Energy                                 R     -4.767918001875815E+02
Total Energy                               R     -4.767918001875815E+02
S**2                                       R     -1.421085471520200E-14
S**2 after annihilation                    R      8.668621376273037E-13
RMS Force                                  R      3.019061161633409E-03
RMS Density                                R      1.715787888305913E-10
Job Status                                 I                1
Nuclear derivative order                   I                1
External E-field                           R   N=          35
  0.00000000E+00  0.00000000E+00  0.00000000E+00  0.00000000E+00  0.00000000E+00
  0.00000000E+00  0.00000000E+00  0.00000000E+00  0.00000000E+00  0.00000000E+00
  0.00000000E+00  0.00000000E+00  0.00000000E+00  0.00000000E+00  0.00000000E+00
  0.00000000E+00  0.00000000E+00  0.00000000E+00  0.00000000E+00  0.00000000E+00
  0.00000000E+00  0.00000000E+00  0.00000000E+00  0.00000000E+00  0.00000000E+00
  0.00000000E+00  0.00000000E+00  0.00000000E+00  0.00000000E+00  0.00000000E+00
  0.00000000E+00  0.00000000E+00  0.00000000E+00  0.00000000E+00  0.00000000E+00
IOpCl                                      I                1
IROHF                                      I                0
Alpha Orbital Energies                     R   N=         156
 -8.89197305E+01 -1.01875182E+01 -1.01875114E+01 -7.99225636E+00 -5.95317052E+00
 -5.95269003E+00 -5.94959188E+00 -8.52582503E-01 -7.00150853E-01 -5.75204464E-01
 -4.72667633E-01 -4.64211924E-01 -4.08460880E-01 -3.62407280E-01 -3.37258661E-01
 -2.04651319E-01 -5.98204568E-02  7.50913478E-03  1.36787197E-02  2.24250677E-02
  3.91798391E-02  5.71284932E-02  6.27917573E-02  7.41931794E-02  7.72805465E-02
  1.04436748E-01  1.30436677E-01  1.33205746E-01  1.37074341E-01  1.48524616E-01
  1.63735364E-01  1.70655696E-01  1.86156973E-01  1.91929532E-01  1.97142866E-01
  2.03166776E-01  2.19741187E-01  2.45806487E-01  2.54992124E-01  2.63307079E-01
  2.80133722E-01  2.91536402E-01  2.94478893E-01  2.97575088E-01  3.03701330E-01
  3.29100929E-01  3.30317761E-01  3.49527164E-01  3.57118503E-01  3.59753359E-01
  3.75040116E-01  3.78680798E-01  3.85010494E-01  3.94704717E-01  4.18431938E-01
  4.45919901E-01  4.53567996E-01  4.71780853E-01  4.94349127E-01  5.05221262E-01
  5.06784033E-01  5.16492483E-01  5.26508987E-01  5.46788935E-01  5.79646710E-01
  6.12778610E-01  6.18533758E-01  6.42722566E-01  6.73296733E-01  6.89974493E-01
  6.92483709E-01  6.98118684E-01  7.19009277E-01  7.46847776E-01  8.07567547E-01
  8.34006403E-01  8.42665488E-01  9.10169127E-01  9.57051565E-01  9.79327187E-01
  9.85211257E-01  1.07562843E+00  1.10829112E+00  1.11583883E+00  1.14824911E+00
  1.19455341E+00  1.22980000E+00  1.52481698E+00  1.54785479E+00  1.56068718E+00
  1.58868728E+00  1.60669030E+00  1.61259982E+00  1.61768666E+00  1.65420590E+00
  1.69666029E+00  1.71840904E+00  1.76589243E+00  1.82439510E+00  1.83601325E+00
  1.84492178E+00  1.86370943E+00  1.86677805E+00  1.87846302E+00  1.93361244E+00
  1.94630746E+00  1.99520051E+00  2.07058455E+00  2.08981277E+00  2.11215897E+00
  2.11824181E+00  2.19047806E+00  2.19577179E+00  2.21576252E+00  2.38941854E+00
  2.40005425E+00  2.48811054E+00  2.51718471E+00  2.56760101E+00  2.64485016E+00
  2.67605355E+00  2.72252995E+00  2.77546969E+00  2.79780813E+00  2.83022658E+00
  2.90647086E+00  3.05965387E+00  3.10278380E+00  3.11165660E+00  3.13746899E+00
  3.16428925E+00  3.19981172E+00  3.20717999E+00  3.31685091E+00  3.31699647E+00
  3.37502356E+00  3.40583030E+00  3.40896863E+00  3.48714701E+00  3.49141264E+00
  3.55009674E+00  3.63332284E+00  3.69029777E+00  3.70932078E+00  3.87026327E+00
  3.92710029E+00  4.19843348E+00  4.21882798E+00  4.59579531E+00  4.60963806E+00
  8.93246792E+00  9.22174582E+00  9.57107600E+00  2.07213794E+01  2.21982859E+01
  2.22450518E+01
Beta Orbital Energies                      R   N=         156
 -8.89197305E+01 -1.01875182E+01 -1.01875114E+01 -7.99225636E+00 -5.95317052E+00
 -5.95269003E+00 -5.94959188E+00 -8.52582503E-01 -7.00150853E-01 -5.75204464E-01
 -4.72667633E-01 -4.64211924E-01 -4.08460880E-01 -3.62407280E-01 -3.37258661E-01
 -2.04651319E-01 -5.98204568E-02  7.50913478E-03  1.36787197E-02  2.24250677E-02
  3.91798391E-02  5.71284932E-02  6.27917573E-02  7.41931794E-02  7.72805465E-02
  1.04436748E-01  1.30436677E-01  1.33205746E-01  1.37074341E-01  1.48524616E-01
  1.63735364E-01  1.70655696E-01  1.86156973E-01  1.91929532E-01  1.97142866E-01
  2.03166776E-01  2.19741187E-01  2.45806487E-01  2.54992124E-01  2.63307079E-01
  2.80133722E-01  2.91536402E-01  2.94478893E-01  2.97575088E-01  3.03701330E-01
  3.29100929E-01  3.30317761E-01  3.49527164E-01  3.57118503E-01  3.59753359E-01
  3.75040116E-01  3.78680798E-01  3.85010494E-01  3.94704717E-01  4.18431938E-01
  4.45919901E-01  4.53567996E-01  4.71780853E-01  4.94349127E-01  5.05221262E-01
  5.06784033E-01  5.16492483E-01  5.26508987E-01  5.46788935E-01  5.79646710E-01
  6.12778610E-01  6.18533758E-01  6.42722566E-01  6.73296733E-01  6.89974493E-01
  6.92483709E-01  6.98118684E-01  7.19009277E-01  7.46847776E-01  8.07567547E-01
  8.34006403E-01  8.42665488E-01  9.10169127E-01  9.57051565E-01  9.79327187E-01
  9.85211257E-01  1.07562843E+00  1.10829112E+00  1.11583883E+00  1.14824911E+00
  1.19455341E+00  1.22980000E+00  1.52481698E+00  1.54785479E+00  1.56068718E+00
  1.58868728E+00  1.60669030E+00  1.61259982E+00  1.61768666E+00  1.65420590E+00
  1.69666029E+00  1.71840904E+00  1.76589243E+00  1.82439510E+00  1.83601325E+00
  1.84492178E+00  1.86370943E+00  1.86677805E+00  1.87846302E+00  1.93361244E+00
  1.94630746E+00  1.99520051E+00  2.07058455E+00  2.08981277E+00  2.11215897E+00
  2.11824181E+00  2.19047806E+00  2.19577179E+00  2.21576252E+00  2.38941854E+00
  2.40005425E+00  2.48811054E+00  2.51718471E+00  2.56760101E+00  2.64485016E+00
  2.67605355E+00  2.72252995E+00  2.77546969E+00  2.79780813E+00  2.83022658E+00
  2.90647086E+00  3.05965387E+00  3.10278380E+00  3.11165660E+00  3.13746899E+00
  3.16428925E+00  3.19981172E+00  3.20717999E+00  3.31685091E+00  3.31699647E+00
  3.37502356E+00  3.40583030E+00  3.40896863E+00  3.48714701E+00  3.49141264E+00
  3.55009674E+00  3.63332284E+00  3.69029777E+00  3.70932078E+00  3.87026327E+00
  3.92710029E+00  4.19843348E+00  4.21882798E+00  4.59579531E+00  4.60963806E+00
  8.93246792E+00  9.22174582E+00  9.57107600E+00  2.07213794E+01  2.21982859E+01
  2.22450518E+01
Alpha MO coefficients                      R   N=       24336
  3.76808995E-06 -2.12182459E-05  9.67776321E-04 -3.27153125E-03 -8.70839816E-04
 -1.04547094E-04  2.60819038E-04  2.39456334E-05 -1.12395907E-05 -2.78747411E-03
 -2.25625303E-04  5.02544996E-05  1.19099491E-04 -2.80038403E-05  8.48619426E-05
  3.28546277E-05  4.02587100E-06  7.20266268E-06 -6.88273101E-05 -1.21108292E-05
  8.16883755E-04  2.81985346E-05 -9.23190861E-05 -1.22339584E-03 -1.89266241E-04
 -7.58960053E-04 -4.87651325E-04  3.38421273E-04  5.77593863E-04  2.86530493E-04
 -2.19500335E-05  2.50010079E-04  2.17919576E-05  2.59149909E-05  2.05008770E-05
 -3.37656254E-04 -9.07495229E-05  9.99265925E-01 -3.18367661E-02 -1.13783307E-02
  5.10944407E-03  1.12810047E-03 -5.28284349E-04 -5.66232891E-05  2.85295219E-05
 -7.53500320E-05  2.56286906E-05 -1.29137145E-05  3.41020461E-05  2.07225740E-04
 -1.04454576E-04  2.75930396E-04 -1.67426676E-03  8.44274833E-04 -2.23007743E-03
  1.83046483E-04 -9.11369603E-05  2.41046664E-04  1.37219167E-05 -6.88532471E-06
  1.82166231E-05  2.08888179E-05 -1.17149359E-04 -1.39668321E-04  1.99481456E-04
  8.48492234E-05  3.65877478E-05 -7.97973276E-04 -6.85207426E-04  1.04735943E-03
  5.23643028E-04 -1.29693352E-05  2.52694417E-05  5.16239312E-05 -6.84228361E-05
 -2.26949862E-05 -8.99082465E-05  4.53015848E-04  2.35706096E-04  2.35500263E-05
 -1.84584170E-04 -3.18441518E-04 -4.13378984E-05  3.76250682E-06 -2.12023421E-05
  9.68126782E-04 -3.27378316E-03 -8.73681663E-04 -1.04523921E-04 -1.06239082E-04
 -1.01838488E-04  2.17005766E-04  1.06437252E-03  1.09470693E-03 -2.34577800E-03
  4.35527550E-05 -5.35129584E-05  1.30704594E-04 -4.11897465E-05  4.06848754E-05
  4.69735937E-05 -8.28191426E-06 -2.04389413E-05 -8.37926210E-04  8.47105838E-04
  7.96024558E-04  1.30415302E-04 -3.75484362E-04  2.70117586E-04 -9.97123373E-04
 -2.13771734E-04 -2.64360098E-04  4.02695434E-04 -8.07887676E-05  2.46905588E-04
  2.63852010E-04 -1.29743730E-05 -2.14482297E-04 -3.16633474E-05  5.10726453E-05
 -3.51084544E-06 -2.56439103E-04  6.91911021E-04 -6.07868708E-05 -5.40828282E-06
  2.22722039E-06  7.15243910E-04 -7.97944228E-05  3.04406614E-04  9.34323378E-06
 -2.01225779E-04  1.43691137E-03 -9.06404200E-05 -2.00392744E-05  3.09167116E-05
  3.96701085E-04  1.32239332E-04 -2.38572775E-04  9.32676537E-06 -2.01420799E-04
  1.43748662E-03  6.45861270E-05  3.31618870E-05 -6.56315933E-05 -3.88443994E-04
 -1.36521824E-04  2.49712382E-04 -3.53227976E-06 -2.56581002E-04  6.92375330E-04
  2.43728152E-05  2.37762643E-05 -5.07205015E-05  5.20146469E-05 -3.07134945E-04
  7.17152085E-04  3.46645783E-01  4.51864003E-01  2.98956183E-02 -2.97233027E-02
  8.04476337E-02  4.28363769E-04  6.28177418E-04  6.26353090E-05 -3.76510437E-05
 -3.84504343E-03 -4.01069705E-04  2.77214243E-04 -1.05663068E-02 -8.73211853E-04
  2.38919427E-04  1.96669918E-04  5.49739527E-05 -3.66715220E-04  3.52582535E-04
  3.94917294E-05  1.45340707E-03  1.83165839E-04 -9.16935382E-04 -7.57058798E-04
 -1.62342987E-04  8.25878667E-03 -3.13842202E-03 -7.55274936E-03 -7.99745193E-04
  1.49175318E-03  1.48367178E-04 -4.39017019E-04 -1.03329477E-04 -2.21416878E-04
  3.90740923E-04 -8.35362580E-05  6.28438396E-05 -7.18815336E-07 -1.02550452E-07
 -1.85032052E-06 -4.54658684E-05  1.14172814E-03 -3.77106946E-05  2.37467985E-05
  7.26975722E-06 -1.27766130E-05 -6.33603944E-05 -1.86594665E-05  3.24058447E-05
 -2.61798578E-05 -1.60261096E-05  3.23678364E-05 -2.72536219E-03 -8.52569933E-04
  1.50748858E-03 -2.98099147E-03 -7.35275181E-04  1.18935973E-03 -5.77905382E-04
 -1.82424392E-04  3.22492513E-04 -4.32941398E-05  7.85501954E-06  2.23410631E-05
  3.43623533E-05  8.96371217E-07 -8.43354772E-04  4.54578650E-04  4.17377366E-04
  7.62966826E-04 -9.92527187E-05 -1.44284420E-03  9.97800303E-04  8.71798457E-04
  1.05850730E-03 -3.07311479E-04 -1.72932948E-04 -6.57496559E-05  2.57033542E-04
  9.67311375E-05 -1.41799881E-04  2.91804301E-04  5.84552729E-05 -3.12636572E-01
 -4.07534586E-01 -2.69234131E-02  2.68593935E-02 -7.23110185E-02 -5.63321160E-04
  2.33474155E-04  2.14149666E-04 -4.54376464E-04 -1.47346181E-03 -1.33189418E-03
  2.82430626E-03 -2.24381089E-03 -3.52928188E-03  7.76764546E-03 -1.03314470E-04
 -8.95602421E-05  2.84710433E-04 -3.67661863E-04 -2.38607228E-05  6.93680613E-04
 -1.10152248E-03 -1.99922161E-04 -1.03661808E-03  3.34593890E-04  4.79619486E-03
 -2.56514045E-03  3.53370209E-04 -9.37961093E-03 -2.69909091E-04  6.77900762E-05
  4.38144756E-04 -2.13473816E-04  8.73296645E-05 -1.68281069E-04 -2.48326311E-04
 -1.23116707E-04 -3.35272092E-04 -1.37582637E-03 -4.12593220E-02 -5.53138158E-04
 -5.02099443E-04  1.06531821E-03 -2.52461568E-03 -1.70524793E-03  3.51666582E-03
 -2.43312444E-04 -1.84144977E-03 -3.09101973E-02 -9.13249643E-04  3.24285943E-04
 -9.01519493E-04 -6.58528026E-03  2.82283431E-04 -1.75804168E-03  2.02203374E-04
  1.80675431E-03  2.74758494E-02  5.23834070E-04 -3.98888159E-04  1.00816100E-03
 -5.71469088E-04 -2.51825743E-03  5.71228450E-03  3.06628680E-04  1.28208140E-03
  3.66010950E-02 -1.16869238E-03 -1.16484130E-04  7.24806044E-05 -3.73764924E-03
 -5.08525345E-04  5.52112477E-04  3.12640949E-01  4.07511566E-01  2.73432978E-02
 -2.62882655E-02  7.49234159E-02 -1.33390800E-03  7.25374322E-04  7.31118682E-05
 -4.54686975E-05 -3.84885104E-03 -5.01956817E-04  5.08933372E-04 -1.69072467E-02
 -6.09858772E-03  1.12254443E-02  1.38797640E-04  3.48644231E-05 -3.71469318E-04
  4.56589303E-04  6.37056711E-05  1.20565790E-03  7.53342749E-04 -2.97523904E-04
 -1.36580658E-03 -5.19933540E-04  7.80972865E-03  3.40889879E-03 -5.89156772E-03
 -1.79928656E-03 -1.56182614E-03 -1.34487412E-06 -4.63792281E-04 -8.60522846E-05
 -3.26399274E-05  4.67217118E-04 -1.03270745E-04 -4.99898534E-05 -1.42599159E-05
 -1.50479121E-06 -3.40895778E-05 -8.71475602E-04  2.20984286E-02 -7.32795227E-04
  1.85994390E-05 -1.03644216E-05  2.70423350E-05 -6.65024212E-05  3.61267663E-05
 -9.45453421E-05  1.60818198E-04 -7.94175087E-05  2.10301284E-04 -1.71793788E-03
  9.79916917E-04 -2.55023594E-03 -6.44428512E-03  3.36127110E-03 -8.84185312E-03
 -3.35335029E-04  1.93368490E-04 -5.02686938E-04 -7.41482277E-05 -2.25481029E-04
  2.32641380E-05  3.92801867E-05  1.03255546E-04  5.65805776E-04  4.47408840E-04
 -9.85251512E-04  9.43016058E-04 -2.47329197E-05  1.02360445E-03  4.99566385E-03
  1.32545417E-03 -3.21719940E-03 -2.69108618E-03  8.92824231E-05 -5.08013622E-04