0003_q000_m01_k00_opt_uwb97xd_def2svpd/0003_q000_m01_k00_force_uwb97xd_d
Force     UwB97XD                                                     Gen                 
Number of atoms                            I                7
Info1-9                                    I   N=           9
          13           9           0           0           0         100
           5          18       -5802
Full Title                                 C   N=           8
0003_q000_m01_k00_opt_uwb97xd_def2svpd/0003_q000_m01_k00_for
ce_uwb97xd_def2tzvp stable-force    
Route                                      C   N=          15
#p uwb97xd/chkbasis force guess=read geom=check scf=(maxcycl
e=900,verytightlineq,xqc) integral=grid=ultrafine symmetry=N
one density=current pop=(cm5,hlygat,mbs,npa) output=wfx     
Charge                                     I                0
Multiplicity                               I                1
Number of electrons                        I               32
Number of alpha electrons                  I               16
Number of beta electrons                   I               16
Number of basis functions                  I              123
Number of independent functions            I              123
Number of point charges in /Mol/           I                0
Number of translation vectors              I                0
Atomic numbers                             I   N=           7
           6          16           6           1           1           1
           1
Nuclear charges                            R   N=           7
  6.00000000E+00  1.60000000E+01  6.00000000E+00  1.00000000E+00  1.00000000E+00
  1.00000000E+00  1.00000000E+00
Current cartesian coordinates              R   N=          21
  1.85917402E+00 -6.15268432E-02  9.23282726E-02  4.92676194E+00  1.87460277E-01
  3.55239128E-02  6.09875638E+00  1.39121255E+00 -2.54358053E+00  1.07793953E+00
 -8.64605860E-01  1.81365494E+00  6.49701559E-01  5.25765681E-01 -1.46546666E+00
  4.94204756E+00  1.99646575E+00 -4.13423228E+00  8.14558359E+00  1.55646016E+00
 -2.58103217E+00
Number of symbols in /Mol/                 I                0
Int Atom Types                             I   N=           7
           0           0           0           0           0           0
           0
Force Field                                I                0
Atom Types                                 C   N=           7
                                                            
                        
MM charges                                 R   N=           7
  0.00000000E+00  0.00000000E+00  0.00000000E+00  0.00000000E+00  0.00000000E+00
  0.00000000E+00  0.00000000E+00
Integer atomic weights                     I   N=           7
          12          32          12           1           1           1
           1
Real atomic weights                        R   N=           7
  1.20000000E+01  3.19720718E+01  1.20000000E+01  1.00782504E+00  1.00782504E+00
  1.00782504E+00  1.00782504E+00
Atom fragment info                         I   N=           7
           0           0           0           0           0           0
           0
Atom residue num                           I   N=           7
           0           0           0           0           0           0
           0
Nuclear spins                              I   N=           7
           0           0           0           1           1           1
           1
Nuclear ZEff                               R   N=           7
 -3.60000000E+00 -1.36000000E+01 -3.60000000E+00 -1.00000000E+00 -1.00000000E+00
 -1.00000000E+00 -1.00000000E+00
Nuclear ZNuc                               R   N=           7
  6.00000000E+00  1.60000000E+01  6.00000000E+00  1.00000000E+00  1.00000000E+00
  1.00000000E+00  1.00000000E+00
Nuclear QMom                               R   N=           7
  0.00000000E+00  0.00000000E+00  0.00000000E+00  0.00000000E+00  0.00000000E+00
  0.00000000E+00  0.00000000E+00
Nuclear GFac                               R   N=           7
  0.00000000E+00  0.00000000E+00  0.00000000E+00  2.79284600E+00  2.79284600E+00
  2.79284600E+00  2.79284600E+00
MicOpt                                     I   N=           7
          -1          -1          -1          -1          -1          -1
          -1
Number of residues                         I                0
Number of secondary structures             I                0
Number of contracted shells                I               51
Number of primitive shells                 I               91
Pure/Cartesian d shells                    I                0
Pure/Cartesian f shells                    I                0
Highest angular momentum                   I                3
Largest degree of contraction              I                7
Shell types                                I   N=          51
           0           0           0           0           0           1
           1           1          -2          -2          -3           0
           0           0           0           0           1           1
           1           1           1          -2          -2          -3
           0           0           0           0           0           1
           1           1          -2          -2          -3           0
           0           0           1           0           0           0
           1           0           0           0           1           0
           0           0           1
Number of primitives per shell             I   N=          51
           6           2           1           1           1           4
           1           1           1           1           1           7
           3           2           1           1           5           1
           1           1           1           2           1           1
           6           2           1           1           1           4
           1           1           1           1           1           3
           1           1           1           3           1           1
           1           3           1           1           1           3
           1           1           1
Shell to atom map                          I   N=          51
           1           1           1           1           1           1
           1           1           1           1           1           2
           2           2           2           2           2           2
           2           2           2           2           2           2
           3           3           3           3           3           3
           3           3           3           3           3           4
           4           4           4           5           5           5
           5           6           6           6           6           7
           7           7           7
Primitive exponents                        R   N=          91
  1.35753497E+04  2.03523337E+03  4.63225624E+02  1.31200196E+02  4.28530159E+01
  1.55841858E+01  6.20671385E+00  2.57648965E+00  5.76963394E-01  2.29728314E-01
  9.51644400E-02  3.46972322E+01  7.95826228E+00  2.37808269E+00  8.14332082E-01
  2.88875473E-01  1.00568237E-01  1.09700000E+00  3.18000000E-01  7.61000000E-01
  6.07009281E+04  9.10261069E+03  2.07141660E+03  5.86024768E+02  1.90553950E+02
  6.76303843E+01  2.51273069E+01  1.12574630E+02  3.47955542E+01  6.51155562E+00
  3.23990323E+00  1.54771609E+00  4.05410301E-01  1.45506511E-01  5.64367160E+02
  1.33426244E+02  4.24682712E+01  1.56165276E+01  6.10939885E+00  2.44041602E+00
  8.38822013E-01  3.12887469E-01  1.07701090E-01  3.75600000E+00  8.12000000E-01
  2.73000000E-01  5.57000000E-01  1.35753497E+04  2.03523337E+03  4.63225624E+02
  1.31200196E+02  4.28530159E+01  1.55841858E+01  6.20671385E+00  2.57648965E+00
  5.76963394E-01  2.29728314E-01  9.51644400E-02  3.46972322E+01  7.95826228E+00
  2.37808269E+00  8.14332082E-01  2.88875473E-01  1.00568237E-01  1.09700000E+00
  3.18000000E-01  7.61000000E-01  3.40613410E+01  5.12357460E+00  1.16466260E+00
  3.27230410E-01  1.03072410E-01  8.00000000E-01  3.40613410E+01  5.12357460E+00
  1.16466260E+00  3.27230410E-01  1.03072410E-01  8.00000000E-01  3.40613410E+01
  5.12357460E+00  1.16466260E+00  3.27230410E-01  1.03072410E-01  8.00000000E-01
  3.40613410E+01  5.12357460E+00  1.16466260E+00  3.27230410E-01  1.03072410E-01
  8.00000000E-01
Contraction coefficients                   R   N=          91
  6.06455036E-04  4.69790889E-03  2.43324776E-02  9.73999683E-02  3.01955843E-01
  6.62336091E-01  6.55953085E-01  3.75856333E-01  1.00000000E+00  1.00000000E+00
  1.00000000E+00  1.13272200E-02  7.61696592E-02  3.01922522E-01  7.27850273E-01
  1.00000000E+00  1.00000000E+00  1.00000000E+00  1.00000000E+00  1.00000000E+00
  5.23800749E-04  4.05063268E-03  2.08270042E-02  8.14968503E-02  2.37491138E-01
  4.47261715E-01  3.48919184E-01  1.00455699E-01  4.33911729E-01 -1.20843306E+00
  6.74981294E-01  3.47087958E-01  1.00000000E+00  1.00000000E+00  3.48869236E-03
  2.76851268E-02  1.26594002E-01  3.61659257E-01  6.12220344E-01  1.00000000E+00
  1.00000000E+00  1.00000000E+00  1.00000000E+00  1.82851975E-01  9.14259873E-01
  1.00000000E+00  1.00000000E+00  6.06455036E-04  4.69790889E-03  2.43324776E-02
  9.73999683E-02  3.01955843E-01  6.62336091E-01  6.55953085E-01  3.75856333E-01
  1.00000000E+00  1.00000000E+00  1.00000000E+00  1.13272200E-02  7.61696592E-02
  3.01922522E-01  7.27850273E-01  1.00000000E+00  1.00000000E+00  1.00000000E+00
  1.00000000E+00  1.00000000E+00  2.54393072E-02  1.90085949E-01  8.52441130E-01
  1.00000000E+00  1.00000000E+00  1.00000000E+00  2.54393072E-02  1.90085949E-01
  8.52441130E-01  1.00000000E+00  1.00000000E+00  1.00000000E+00  2.54393072E-02
  1.90085949E-01  8.52441130E-01  1.00000000E+00  1.00000000E+00  1.00000000E+00
  2.54393072E-02  1.90085949E-01  8.52441130E-01  1.00000000E+00  1.00000000E+00
  1.00000000E+00
Coordinates of each shell                  R   N=         153
  1.85917402E+00 -6.15268432E-02  9.23282726E-02  1.85917402E+00 -6.15268432E-02
  9.23282726E-02  1.85917402E+00 -6.15268432E-02  9.23282726E-02  1.85917402E+00
 -6.15268432E-02  9.23282726E-02  1.85917402E+00 -6.15268432E-02  9.23282726E-02
  1.85917402E+00 -6.15268432E-02  9.23282726E-02  1.85917402E+00 -6.15268432E-02
  9.23282726E-02  1.85917402E+00 -6.15268432E-02  9.23282726E-02  1.85917402E+00
 -6.15268432E-02  9.23282726E-02  1.85917402E+00 -6.15268432E-02  9.23282726E-02
  1.85917402E+00 -6.15268432E-02  9.23282726E-02  4.92676194E+00  1.87460277E-01
  3.55239128E-02  4.92676194E+00  1.87460277E-01  3.55239128E-02  4.92676194E+00
  1.87460277E-01  3.55239128E-02  4.92676194E+00  1.87460277E-01  3.55239128E-02
  4.92676194E+00  1.87460277E-01  3.55239128E-02  4.92676194E+00  1.87460277E-01
  3.55239128E-02  4.92676194E+00  1.87460277E-01  3.55239128E-02  4.92676194E+00
  1.87460277E-01  3.55239128E-02  4.92676194E+00  1.87460277E-01  3.55239128E-02
  4.92676194E+00  1.87460277E-01  3.55239128E-02  4.92676194E+00  1.87460277E-01
  3.55239128E-02  4.92676194E+00  1.87460277E-01  3.55239128E-02  4.92676194E+00
  1.87460277E-01  3.55239128E-02  6.09875638E+00  1.39121255E+00 -2.54358053E+00
  6.09875638E+00  1.39121255E+00 -2.54358053E+00  6.09875638E+00  1.39121255E+00
 -2.54358053E+00  6.09875638E+00  1.39121255E+00 -2.54358053E+00  6.09875638E+00
  1.39121255E+00 -2.54358053E+00  6.09875638E+00  1.39121255E+00 -2.54358053E+00
  6.09875638E+00  1.39121255E+00 -2.54358053E+00  6.09875638E+00  1.39121255E+00
 -2.54358053E+00  6.09875638E+00  1.39121255E+00 -2.54358053E+00  6.09875638E+00
  1.39121255E+00 -2.54358053E+00  6.09875638E+00  1.39121255E+00 -2.54358053E+00
  1.07793953E+00 -8.64605860E-01  1.81365494E+00  1.07793953E+00 -8.64605860E-01
  1.81365494E+00  1.07793953E+00 -8.64605860E-01  1.81365494E+00  1.07793953E+00
 -8.64605860E-01  1.81365494E+00  6.49701559E-01  5.25765681E-01 -1.46546666E+00
  6.49701559E-01  5.25765681E-01 -1.46546666E+00  6.49701559E-01  5.25765681E-01
 -1.46546666E+00  6.49701559E-01  5.25765681E-01 -1.46546666E+00  4.94204756E+00
  1.99646575E+00 -4.13423228E+00  4.94204756E+00  1.99646575E+00 -4.13423228E+00
  4.94204756E+00  1.99646575E+00 -4.13423228E+00  4.94204756E+00  1.99646575E+00
 -4.13423228E+00  8.14558359E+00  1.55646016E+00 -2.58103217E+00  8.14558359E+00
  1.55646016E+00 -2.58103217E+00  8.14558359E+00  1.55646016E+00 -2.58103217E+00
  8.14558359E+00  1.55646016E+00 -2.58103217E+00
Num ILSW                                   I              100
ILSW                                       I   N=         100
           1           0           0           0           2           0
           0           0           0           0        4639          -1
           5           0           0           0           2           0
           0           0           0           0           1           0
           1           1           0           0           0           0
           0           0      100000           0          -1           0
           0           0           0           0           0           0
           0           0           0           1           0           0
           0 -2000000000           1           0           0           0
           0           0         121          52           0           0
           0           0          58           0           0           0
           0           0           0           7           0           1
           0           0           0           0           0           0
           0           0           0           0           0           0
           0           0           0           0           0           0
           0           0           0           0           0           0
           0           0           0           0
Num RLSW                                   I               52
RLSW                                       R   N=          52
  1.00000000E+00  1.00000000E+00  1.00000000E+00  1.00000000E+00  1.00000000E+00
  0.00000000E+00  2.00000000E-01  2.22036000E-01  0.00000000E+00  7.77964000E-01
  0.00000000E+00  2.00000000E-01  0.00000000E+00  0.00000000E+00  1.00000000E+00
  0.00000000E+00  0.00000000E+00  1.00000000E+00  0.00000000E+00  0.00000000E+00
  0.00000000E+00  0.00000000E+00  1.00000000E+00  0.00000000E+00  0.00000000E+00
  0.00000000E+00  0.00000000E+00  1.00000000E+00  0.00000000E+00  0.00000000E+00
  0.00000000E+00  0.00000000E+00  1.00000000E+00  0.00000000E+00  0.00000000E+00
  0.00000000E+00  0.00000000E+00  0.00000000E+00  1.00000000E+00  1.00000000E+00
  0.00000000E+00  1.00000000E+00  0.00000000E+00  0.00000000E+00  0.00000000E+00
  0.00000000E+00  0.00000000E+00  0.00000000E+00  0.00000000E+00  0.00000000E+00
  0.00000000E+00  0.00000000E+00
MxBond                                     I                3
NBond                                      I   N=           7
           3           2           3           1           1           1
           1
IBond                                      I   N=          21
           2           4           5           1           3           0
           2           6           7           1           0           0
           1           0           0           3           0           0
           3           0           0
RBond                                      R   N=          21
  2.00000000E+00  1.00000000E+00  1.00000000E+00  2.00000000E+00  2.00000000E+00
  0.00000000E+00  2.00000000E+00  1.00000000E+00  1.00000000E+00  1.00000000E+00
  0.00000000E+00  0.00000000E+00  1.00000000E+00  0.00000000E+00  0.00000000E+00
  1.00000000E+00  0.00000000E+00  0.00000000E+00  1.00000000E+00  0.00000000E+00
  0.00000000E+00
Virial Ratio                               R      2.002474486021984E+00
SCF Energy                                 R     -4.767345183572896E+02
Total Energy                               R     -4.767345183572896E+02
S**2                                       R     -3.552713678800501E-14
S**2 after annihilation                    R      1.101341240428153E-13
RMS Force                                  R      4.243766938667949E-03
RMS Density                                R      2.547272624295715E-09
Job Status                                 I                1
Nuclear derivative order                   I                1
External E-field                           R   N=          35
  0.00000000E+00  0.00000000E+00  0.00000000E+00  0.00000000E+00  0.00000000E+00
  0.00000000E+00  0.00000000E+00  0.00000000E+00  0.00000000E+00  0.00000000E+00
  0.00000000E+00  0.00000000E+00  0.00000000E+00  0.00000000E+00  0.00000000E+00
  0.00000000E+00  0.00000000E+00  0.00000000E+00  0.00000000E+00  0.00000000E+00
  0.00000000E+00  0.00000000E+00  0.00000000E+00  0.00000000E+00  0.00000000E+00
  0.00000000E+00  0.00000000E+00  0.00000000E+00  0.00000000E+00  0.00000000E+00
  0.00000000E+00  0.00000000E+00  0.00000000E+00  0.00000000E+00  0.00000000E+00
IOpCl                                      I                1
IROHF                                      I                0
Alpha Orbital Energies                     R   N=         123
 -8.90858466E+01 -1.02973052E+01 -1.02972909E+01 -8.11445118E+00 -6.06065751E+00
 -6.06023776E+00 -6.05687877E+00 -9.49486754E-01 -7.93880542E-01 -6.63909373E-01
 -5.57204795E-01 -5.45647766E-01 -4.86447108E-01 -4.45734606E-01 -4.15044218E-01
 -2.73484815E-01  1.23038496E-02  1.26853336E-01  1.37470802E-01  1.50868017E-01
  1.73254290E-01  1.87259685E-01  2.18926308E-01  2.45344654E-01  2.90076834E-01
  2.93883113E-01  3.00382953E-01  3.36351040E-01  3.38615160E-01  3.43333919E-01
  3.80840356E-01  3.82136546E-01  4.66989973E-01  4.71818373E-01  4.87416451E-01
  5.05019594E-01  5.28961464E-01  5.35904528E-01  5.92359262E-01  6.29581670E-01
  6.41298175E-01  7.20977406E-01  7.47185863E-01  7.56127669E-01  8.12664406E-01
  8.35053423E-01  9.83869737E-01  1.02484858E+00  1.03938591E+00  1.06065261E+00
  1.06100913E+00  1.09266355E+00  1.15898848E+00  1.17417055E+00  1.41466695E+00
  1.50710116E+00  1.52734647E+00  1.53699162E+00  1.54293391E+00  1.57243571E+00
  1.62728354E+00  1.63010890E+00  1.63392956E+00  1.65852851E+00  1.66719234E+00
  1.71551568E+00  1.72069803E+00  1.76258162E+00  1.76995377E+00  1.80873019E+00
  1.85932211E+00  1.87175091E+00  1.87972554E+00  1.96819984E+00  2.01876596E+00
  2.06068140E+00  2.11345576E+00  2.13614717E+00  2.17789323E+00  2.22538306E+00
  2.25435104E+00  2.36397437E+00  2.39034195E+00  2.41710141E+00  2.54156583E+00
  2.59778629E+00  2.60891638E+00  2.67375654E+00  2.73326636E+00  2.78037948E+00
  2.82031736E+00  2.86148154E+00  2.93338794E+00  3.01784679E+00  3.06244343E+00
  3.14966970E+00  3.16445607E+00  3.21739531E+00  3.26176990E+00  3.27911878E+00
  3.33631066E+00  3.38183912E+00  3.39322332E+00  3.39492242E+00  3.41554737E+00
  3.56424675E+00  3.56515795E+00  3.56963656E+00  3.65938637E+00  3.66993338E+00
  3.74268141E+00  3.84018054E+00  3.97209315E+00  4.17622125E+00  4.17826917E+00
  4.49991665E+00  4.56276067E+00  8.92203960E+00  9.20926122E+00  9.65413903E+00
  2.06739503E+01  2.20137638E+01  2.20931455E+01
Beta Orbital Energies                      R   N=         123
 -8.90858466E+01 -1.02973052E+01 -1.02972909E+01 -8.11445118E+00 -6.06065751E+00
 -6.06023776E+00 -6.05687877E+00 -9.49486754E-01 -7.93880542E-01 -6.63909373E-01
 -5.57204795E-01 -5.45647766E-01 -4.86447108E-01 -4.45734606E-01 -4.15044218E-01
 -2.73484815E-01  1.23038496E-02  1.26853336E-01  1.37470802E-01  1.50868017E-01
  1.73254290E-01  1.87259685E-01  2.18926308E-01  2.45344654E-01  2.90076834E-01
  2.93883113E-01  3.00382953E-01  3.36351040E-01  3.38615160E-01  3.43333919E-01
  3.80840356E-01  3.82136546E-01  4.66989973E-01  4.71818373E-01  4.87416451E-01
  5.05019594E-01  5.28961464E-01  5.35904528E-01  5.92359262E-01  6.29581670E-01
  6.41298175E-01  7.20977406E-01  7.47185863E-01  7.56127669E-01  8.12664406E-01
  8.35053423E-01  9.83869737E-01  1.02484858E+00  1.03938591E+00  1.06065261E+00
  1.06100913E+00  1.09266355E+00  1.15898848E+00  1.17417055E+00  1.41466695E+00
  1.50710116E+00  1.52734647E+00  1.53699162E+00  1.54293391E+00  1.57243571E+00
  1.62728354E+00  1.63010890E+00  1.63392956E+00  1.65852851E+00  1.66719234E+00
  1.71551568E+00  1.72069803E+00  1.76258162E+00  1.76995377E+00  1.80873019E+00
  1.85932211E+00  1.87175091E+00  1.87972554E+00  1.96819984E+00  2.01876596E+00
  2.06068140E+00  2.11345576E+00  2.13614717E+00  2.17789323E+00  2.22538306E+00
  2.25435104E+00  2.36397437E+00  2.39034195E+00  2.41710141E+00  2.54156583E+00
  2.59778629E+00  2.60891638E+00  2.67375654E+00  2.73326636E+00  2.78037948E+00
  2.82031736E+00  2.86148154E+00  2.93338794E+00  3.01784679E+00  3.06244343E+00
  3.14966970E+00  3.16445607E+00  3.21739531E+00  3.26176990E+00  3.27911878E+00
  3.33631066E+00  3.38183912E+00  3.39322332E+00  3.39492242E+00  3.41554737E+00
  3.56424675E+00  3.56515795E+00  3.56963656E+00  3.65938637E+00  3.66993338E+00
  3.74268141E+00  3.84018054E+00  3.97209315E+00  4.17622125E+00  4.17826917E+00
  4.49991665E+00  4.56276067E+00  8.92203960E+00  9.20926122E+00  9.65413903E+00
  2.06739503E+01  2.20137638E+01  2.20931455E+01
Alpha MO coefficients                      R   N=       15129
  4.77509865E-06 -2.45946658E-05  1.08968121E-03 -3.80160879E-03 -2.43312255E-04
  2.84178387E-04  2.45918267E-05 -8.79473741E-06 -3.07273894E-03 -2.49168366E-04
  5.64475786E-05 -4.01487075E-04  3.62101937E-05 -1.51171883E-04  4.10888286E-05
  1.26246995E-05  9.20386123E-06 -8.49315818E-05 -1.82857364E-05  8.41165468E-04
 -2.08321116E-05 -7.78964276E-05 -1.30143088E-03 -1.79835765E-04 -2.72640260E-05
  2.67830485E-04  2.40853363E-05  3.31819760E-05  1.80098122E-05 -3.54204184E-04
 -9.81253382E-05  9.99247576E-01 -3.16598496E-02 -1.12188837E-02  4.59336795E-03
  4.40788800E-03 -5.12088284E-05  2.58050574E-05 -6.81468146E-05  5.11408917E-06
 -2.57917428E-06  6.79706772E-06  2.77074665E-04 -1.39640152E-04  3.68886160E-04
 -1.89140213E-03  9.53632819E-04 -2.51898737E-03 -2.15754477E-04  1.08972455E-04
 -2.87859208E-04  2.76432464E-05 -1.25104638E-04 -1.62562225E-04  2.28711601E-04
  9.33342110E-05  2.09670987E-05 -8.98151572E-04 -7.20750757E-04  1.12002175E-03
  5.79160615E-04 -1.00451627E-04  5.09859793E-04  2.60532644E-04  2.87501326E-05
 -2.09210878E-04 -3.54924460E-04 -4.75272007E-05  4.76702297E-06 -2.45704457E-05
  1.08995558E-03 -3.80363143E-03 -2.43796376E-04 -1.12208498E-04 -1.11233308E-04
  2.37674968E-04  1.17418675E-03  1.20648090E-03 -2.58511309E-03 -9.13468268E-06
  1.70801647E-04 -3.95461872E-04 -4.68571059E-05  5.61595261E-05  5.64340740E-05
 -1.30174656E-05 -2.81794128E-05 -9.09033173E-04  8.45210959E-04  8.61641535E-04
  1.30461066E-04 -3.76735674E-04 -8.17617529E-05  2.66592613E-04  2.73514746E-04
 -1.46978611E-05 -2.29623786E-04 -3.59156657E-05  5.34380318E-05 -8.52956371E-06
 -2.17122537E-04  9.17551866E-05 -4.17776893E-05 -4.65812385E-06  3.70234577E-06
  1.08542022E-05 -1.31539692E-04 -1.74785900E-04 -7.96194469E-05 -2.41397048E-05
  4.22184515E-05  1.08340683E-05 -1.31643894E-04 -1.74879997E-04  7.21620467E-05
  2.78775579E-05 -5.21735401E-05 -8.56014731E-06 -2.17175271E-04  9.18171168E-05
  1.89704757E-05  1.61649351E-05 -3.40723159E-05  3.32021837E-01  4.32679299E-01
  2.38786256E-02 -1.15418082E-02  9.65153341E-03  5.90627433E-04  5.68042205E-05
 -3.04019391E-05 -1.97955509E-03 -1.81309476E-04  8.49216457E-05  6.02513194E-04
  5.16424100E-04 -1.08881904E-03  2.15065237E-04  5.41055463E-05 -4.55658556E-04
  4.85615877E-04  6.21981586E-05  9.97471221E-04  3.63466607E-05 -8.05701917E-04
 -2.11071872E-04 -2.14374657E-05  1.96576687E-04 -6.11677536E-04 -1.63018170E-04
 -2.69423796E-04  4.59055940E-04  2.40994575E-05  1.01495308E-04 -3.80364068E-08
 -3.87736852E-08 -3.84040069E-07  3.85068588E-06  3.23044957E-05  3.04472430E-05
  1.03029213E-05 -1.86314378E-05 -3.64665000E-05 -1.21089631E-05  2.17615255E-05
 -3.63988486E-04 -1.25334647E-04  2.27765932E-04 -4.76396846E-04 -1.57430257E-04
  2.82759069E-04  1.20928904E-03  4.20129326E-04 -7.65258409E-04  2.51852623E-05
 -1.31230270E-05 -1.31402030E-05 -2.14561305E-05  2.96978959E-06  5.88142385E-04
 -2.88012709E-04 -3.17566073E-04 -4.77069105E-04  6.54596573E-05 -2.96091640E-04
 -6.75596573E-05  4.79550051E-04  1.51205975E-04 -3.04262173E-04  5.23566246E-04
  1.23332845E-04 -3.28706525E-01 -4.28359399E-01 -2.36364236E-02  1.14161724E-02
 -9.61122523E-03  2.42046698E-04  2.27072674E-04 -4.82757197E-04 -7.81931553E-04
 -7.57158721E-04  1.61532018E-03  1.34374195E-03  1.51107022E-04 -1.21966650E-04
 -1.74387494E-04 -7.22854757E-05  4.30185736E-04 -5.11662007E-04 -5.71042614E-05
  4.25109979E-04 -7.27460705E-04  4.17344750E-05 -9.49601258E-04  1.76583799E-04
  4.77161952E-05  6.60221883E-04 -1.74162772E-04  1.16069948E-04 -2.71809786E-04
 -3.70395041E-04 -1.54590520E-04 -5.29627455E-04 -1.38639996E-03 -8.65106617E-04
 -5.70617478E-04 -5.46231057E-04  1.16423193E-03 -4.33447991E-04 -1.62457134E-03
 -2.09896762E-03 -8.85189437E-04  3.84244320E-04 -1.03506530E-03  4.27794009E-04
  1.60799580E-03  2.09224967E-03  7.30937375E-04 -4.29620412E-04  1.11393935E-03
  5.24157381E-04  1.36528805E-03  8.55711148E-04 -1.38352324E-03 -1.27001001E-04
  6.06381804E-05  3.28714179E-01  4.28323800E-01  2.40325246E-02 -1.23311489E-02
  4.01845019E-03  8.20130029E-04  8.74746143E-05 -6.24252174E-05 -4.01238179E-03
 -6.60504577E-04  8.47610383E-04 -1.01585336E-03 -3.22692781E-04  5.73472185E-04
  1.94404097E-04  7.95334620E-05 -4.76742736E-04  5.65027567E-04  6.34495600E-05
  1.43015379E-03  5.36737291E-04 -8.23576335E-04 -8.19809860E-04 -3.28449826E-04
  6.81539633E-05 -7.73202188E-04 -1.35208670E-04 -1.38073113E-04  6.31248311E-04
  1.51306297E-05  1.79242168E-05 -1.22001912E-05  6.64940933E-08 -4.84749636E-05
  8.10372200E-04  6.13217434E-03  3.06597518E-05 -1.55757396E-05  4.10994302E-05
 -9.45367698E-05  4.77887539E-05 -1.26188651E-04  1.40317808E-04 -6.90290237E-05
  1.82908528E-04 -1.30614706E-03  6.59357933E-04 -1.74134706E-03 -1.34515449E-03
  6.72177112E-04 -1.77764770E-03 -7.57346222E-05 -8.70582942E-05  1.25197843E-04
 -1.19235234E-04  1.64006938E-05  3.41016257E-04  4.50282523E-04 -5.30247580E-04
  4.86537200E-04 -1.07735885E-04  1.40088709E-04 -7.63362408E-04 -3.15674416E-04
 -8.04263550E-05  3.38964438E-04  4.72124349E-04  8.67281584E-05  3.32029264E-01
  4.32643953E-01  2.42711914E-02 -1.24455438E-02  4.11539825E-03 -3.64250978E-04
 -3.20337745E-04  6.77271521E-04  2.33262884E-03  1.51780793E-03 -3.10861342E-03
  9.43119313E-04  3.51307776E-04 -6.51543176E-04  2.36198818E-04  6.03094505E-05
 -5.02676179E-04  5.37506337E-04  6.84083963E-05 -5.97106391E-04  1.54445490E-03
  2.61638158E-04  8.45078674E-04 -5.57883055E-04  1.06797882E-04 -7.48033449E-04
  1.65482044E-04 -3.29768653E-04  2.43715746E-04  4.51051864E-04  2.93085979E-04
 -5.45413649E-04 -2.11009088E-03 -9.41199042E-04 -6.39928441E-04 -6.31281180E-04
  1.34876647E-03 -5.62869870E-04 -1.66227979E-03 -6.49514337E-04 -9.45730029E-04
  4.13113531E-04 -1.11169498E-03 -5.67184569E-04 -1.67833859E-03 -6.70544247E-04
 -8.02851818E-04  4.68819578E-04 -1.21639862E-03 -5.50709127E-04 -2.12387187E-03
 -9.50120709E-04  1.62792940E-03  1.41717921E-04 -5.35283028E-05 -7.85292978E-05
 -1.71133008E-04  3.31596231E-03 -1.19665229E-02  1.08639170E-03  8.05922907E-04
  6.54438527E-05 -1.50336419E-05 -9.61071672E-03 -7.29163807E-04  6.08289386E-05
 -6.75959137E-04  1.78764046E-04 -5.25972441E-04  1.28608076E-04  4.38816214E-05
  2.60962999E-05 -2.59951027E-04 -5.81826794E-05  2.56960594E-03 -1.33177588E-04
 -2.48072349E-04 -3.97076956E-03 -5.18038346E-04 -5.33389398E-05  6.08300166E-04
  5.26075087E-05  5.92265186E-05  7.72471053E-05 -8.62895711E-04 -2.30154189E-04
 -2.87709938E-01 -2.40225631E-01  8.06022878E-01  3.20070738E-02  8.00617074E-03
 -2.48048819E-03  1.25024223E-03 -3.30115914E-03 -1.67915250E-03  8.46794823E-04
 -2.23536986E-03  7.92197807E-04 -3.99214048E-04  1.05491055E-03 -6.11313670E-03
  3.08220937E-03 -8.14160612E-03 -1.37114838E-04  6.97713818E-05 -1.84314506E-04
 -9.04275073E-06 -6.20367856E-04 -4.38610801E-04  7.04054921E-04  3.87946656E-04
  8.17273342E-05 -2.91757444E-03 -2.37583136E-03  3.67890338E-03  1.88841005E-03
 -3.53726211E-04  1.79088722E-03  9.21195966E-04  9.81110226E-05 -7.32993289E-04
 -1.25115819E-03 -1.65672297E-04 -7.85738908E-05 -1.71155660E-04  3.31685137E-03
 -1.19728107E-02  1.08540309E-03 -3.08080519E-04 -3.16281942E-04  6.77664302E-04
  3.55398239E-03  3.78311693E-03 -8.12763230E-03 -2.93589000E-04  3.10072708E-04
 -7.64609922E-04 -1.41545271E-04  1.77581680E-04  1.71143768E-04 -3.90119743E-05
 -8.85462647E-05 -2.81255115E-03  2.53004600E-03  2.64118303E-03  4.32501738E-04
 -1.12354811E-03 -2.02853073E-04  6.01357795E-04  6.82195665E-04 -4.64735865E-05
 -5.37094636E-04 -6.52487493E-05  1.41855075E-04 -8.61162102E-05 -6.60420079E-04
 -1.15388881E-05 -6.89334063E-05 -1.91243080E-05  3.25176992E-05 -3.48760347E-05
 -4.55933067E-04 -8.15284997E-04 -2.38669653E-04 -6.00574645E-05  9.81715067E-05
 -3.49400321E-05 -4.56297295E-04 -8.15520566E-04  1.87240685E-04  8.59142230E-05
 -1.66718483E-04 -8.62083104E-05 -6.60645751E-04 -1.13425715E-05  5.83777445E-05
  2.45059071E-05 -4.66504274E-05  1.38075846E-04  2.09139901E-04  1.35583408E-03
 -1.22185237E-02 -1.31966340E-03 -9.96745656E-05 -2.24741010E-05  3.49619839E-05
 -1.03213215E-02 -7.15472381E-04 -8.98124607E-05 -6.10227206E-04 -2.77529328E-04
  5.36282417E-04  4.31253908E-05  6.42321317E-05  4.89626365E-05 -1.51788309E-04
 -5.18794722E-05  2.15971009E-03  1.54645501E-05 -5.89335496E-04 -2.60734110E-03
 -3.71255019E-04 -2.26072383E-05 -2.63018805E-04  2.27763874E-05 -7.33422531E-06
  8.35957263E-05  2.02265280E-04  4.80682666E-05  7.18205846E-07  9.08758987E-07
 -2.07790591E-06  9.37186934E-07 -4.04967394E-06  5.82042777E-01  1.99785217E-01
 -3.61988720E-01  2.78288540E-01  9.55227669E-02 -1.73075798E-01  6.35627586E-02