0003_q000_m01_k00_opt_uwb97xd_def2svpd/0003_q000_m01_k00_force_uwb97xd_d
Force     UwB97XD                                                     Gen                 
Number of atoms                            I                7
Info1-9                                    I   N=           9
          13           9           0           0           0         100
           5          18       -5802
Full Title                                 C   N=           8
0003_q000_m01_k00_opt_uwb97xd_def2svpd/0003_q000_m01_k00_for
ce_uwb97xd_def2svpd stable-force    
Route                                      C   N=          15
#p uwb97xd/chkbasis force guess=read geom=check scf=(maxcycl
e=900,verytightlineq,xqc) integral=grid=ultrafine symmetry=N
one density=current pop=(cm5,hlygat,mbs,npa) output=wfx     
Charge                                     I                0
Multiplicity                               I                1
Number of electrons                        I               32
Number of alpha electrons                  I               16
Number of beta electrons                   I               16
Number of basis functions                  I               99
Number of independent functions            I               99
Number of point charges in /Mol/           I                0
Number of translation vectors              I                0
Atomic numbers                             I   N=           7
           6          16           6           1           1           1
           1
Nuclear charges                            R   N=           7
  6.00000000E+00  1.60000000E+01  6.00000000E+00  1.00000000E+00  1.00000000E+00
  1.00000000E+00  1.00000000E+00
Current cartesian coordinates              R   N=          21
  1.85917402E+00 -6.15268432E-02  9.23282726E-02  4.92676194E+00  1.87460277E-01
  3.55239128E-02  6.09875638E+00  1.39121255E+00 -2.54358053E+00  1.07793953E+00
 -8.64605860E-01  1.81365494E+00  6.49701559E-01  5.25765681E-01 -1.46546666E+00
  4.94204756E+00  1.99646575E+00 -4.13423228E+00  8.14558359E+00  1.55646016E+00
 -2.58103217E+00
Number of symbols in /Mol/                 I                0
Int Atom Types                             I   N=           7
           0           0           0           0           0           0
           0
Force Field                                I                0
Atom Types                                 C   N=           7
                                                            
                        
MM charges                                 R   N=           7
  0.00000000E+00  0.00000000E+00  0.00000000E+00  0.00000000E+00  0.00000000E+00
  0.00000000E+00  0.00000000E+00
Integer atomic weights                     I   N=           7
          12          32          12           1           1           1
           1
Real atomic weights                        R   N=           7
  1.20000000E+01  3.19720718E+01  1.20000000E+01  1.00782504E+00  1.00782504E+00
  1.00782504E+00  1.00782504E+00
Atom fragment info                         I   N=           7
           0           0           0           0           0           0
           0
Atom residue num                           I   N=           7
           0           0           0           0           0           0
           0
Nuclear spins                              I   N=           7
           0           0           0           1           1           1
           1
Nuclear ZEff                               R   N=           7
 -3.60000000E+00 -1.36000000E+01 -3.60000000E+00 -1.00000000E+00 -1.00000000E+00
 -1.00000000E+00 -1.00000000E+00
Nuclear ZNuc                               R   N=           7
  6.00000000E+00  1.60000000E+01  6.00000000E+00  1.00000000E+00  1.00000000E+00
  1.00000000E+00  1.00000000E+00
Nuclear QMom                               R   N=           7
  0.00000000E+00  0.00000000E+00  0.00000000E+00  0.00000000E+00  0.00000000E+00
  0.00000000E+00  0.00000000E+00
Nuclear GFac                               R   N=           7
  0.00000000E+00  0.00000000E+00  0.00000000E+00  2.79284600E+00  2.79284600E+00
  2.79284600E+00  2.79284600E+00
MicOpt                                     I   N=           7
          -1          -1          -1          -1          -1          -1
          -1
Number of residues                         I                0
Number of secondary structures             I                0
Number of contracted shells                I               43
Number of primitive shells                 I               73
Pure/Cartesian d shells                    I                0
Pure/Cartesian f shells                    I                0
Highest angular momentum                   I                2
Largest degree of contraction              I                5
Shell types                                I   N=          43
           0           0           0           0           1           1
          -2          -2           0           0           0           0
           0           1           1           1           1          -2
          -2           0           0           0           0           1
           1          -2          -2           0           0           1
           1           0           0           1           1           0
           0           1           1           0           0           1
           1
Number of primitives per shell             I   N=          43
           5           1           1           1           3           1
           1           1           5           3           1           1
           1           5           1           1           1           1
           1           5           1           1           1           3
           1           1           1           3           1           1
           1           3           1           1           1           3
           1           1           1           3           1           1
           1
Shell to atom map                          I   N=          43
           1           1           1           1           1           1
           1           1           2           2           2           2
           2           2           2           2           2           2
           2           3           3           3           3           3
           3           3           3           4           4           4
           4           5           5           5           5           6
           6           6           6           7           7           7
           7
Primitive exponents                        R   N=          73
  1.23840169E+03  1.86290050E+02  4.22511763E+01  1.16765579E+01  3.59305065E+00
  4.02451474E-01  1.30901827E-01  6.70535403E-02  9.46809706E+00  2.01035451E+00
  5.47710047E-01  1.52686138E-01  8.00000000E-01  1.17131851E-01  9.18493030E+03
  1.38151055E+03  3.13871476E+02  8.80538706E+01  2.70399149E+01  4.56487313E+01
  4.96645223E+00  2.01162420E+00  3.56610770E-01  1.35072215E-01  4.49998235E-02
  2.61982334E+02  6.13068947E+01  1.91037299E+01  6.65677204E+00  2.39596352E+00
  6.17761617E-01  1.69933769E-01  4.17067937E-02  5.50000000E-01  1.01728537E-01
  1.23840169E+03  1.86290050E+02  4.22511763E+01  1.16765579E+01  3.59305065E+00
  4.02451474E-01  1.30901827E-01  6.70535403E-02  9.46809706E+00  2.01035451E+00
  5.47710047E-01  1.52686138E-01  8.00000000E-01  1.17131851E-01  1.30107010E+01
  1.96225720E+00  4.44537960E-01  1.21949620E-01  8.00000000E-01  1.17040991E-01
  1.30107010E+01  1.96225720E+00  4.44537960E-01  1.21949620E-01  8.00000000E-01
  1.17040991E-01  1.30107010E+01  1.96225720E+00  4.44537960E-01  1.21949620E-01
  8.00000000E-01  1.17040991E-01  1.30107010E+01  1.96225720E+00  4.44537960E-01
  1.21949620E-01  8.00000000E-01  1.17040991E-01
Contraction coefficients                   R   N=          73
  5.51736505E-03  4.10888286E-02  1.82253821E-01  4.68284594E-01  4.45758173E-01
  1.00000000E+00  1.00000000E+00  1.00000000E+00  5.68883320E-02  3.12940593E-01
  7.60650165E-01  1.00000000E+00  1.00000000E+00  1.00000000E+00 -5.47294661E-03
 -4.09544022E-02 -1.84758290E-01 -4.75672806E-01 -4.34951536E-01 -9.19040458E-02
  5.56987772E-01  5.11154683E-01  1.00000000E+00  1.00000000E+00  1.00000000E+00
 -9.18305466E-03 -6.59022265E-02 -2.45877845E-01 -4.82314711E-01 -3.89563144E-01
  1.00000000E+00  1.00000000E+00  1.00000000E+00  1.00000000E+00  1.00000000E+00
  5.51736505E-03  4.10888286E-02  1.82253821E-01  4.68284594E-01  4.45758173E-01
  1.00000000E+00  1.00000000E+00  1.00000000E+00  5.68883320E-02  3.12940593E-01
  7.60650165E-01  1.00000000E+00  1.00000000E+00  1.00000000E+00  3.34854848E-02
  2.34721871E-01  8.13770285E-01  1.00000000E+00  1.00000000E+00  1.00000000E+00
  3.34854848E-02  2.34721871E-01  8.13770285E-01  1.00000000E+00  1.00000000E+00
  1.00000000E+00  3.34854848E-02  2.34721871E-01  8.13770285E-01  1.00000000E+00
  1.00000000E+00  1.00000000E+00  3.34854848E-02  2.34721871E-01  8.13770285E-01
  1.00000000E+00  1.00000000E+00  1.00000000E+00
Coordinates of each shell                  R   N=         129
  1.85917402E+00 -6.15268432E-02  9.23282726E-02  1.85917402E+00 -6.15268432E-02
  9.23282726E-02  1.85917402E+00 -6.15268432E-02  9.23282726E-02  1.85917402E+00
 -6.15268432E-02  9.23282726E-02  1.85917402E+00 -6.15268432E-02  9.23282726E-02
  1.85917402E+00 -6.15268432E-02  9.23282726E-02  1.85917402E+00 -6.15268432E-02
  9.23282726E-02  1.85917402E+00 -6.15268432E-02  9.23282726E-02  4.92676194E+00
  1.87460277E-01  3.55239128E-02  4.92676194E+00  1.87460277E-01  3.55239128E-02
  4.92676194E+00  1.87460277E-01  3.55239128E-02  4.92676194E+00  1.87460277E-01
  3.55239128E-02  4.92676194E+00  1.87460277E-01  3.55239128E-02  4.92676194E+00
  1.87460277E-01  3.55239128E-02  4.92676194E+00  1.87460277E-01  3.55239128E-02
  4.92676194E+00  1.87460277E-01  3.55239128E-02  4.92676194E+00  1.87460277E-01
  3.55239128E-02  4.92676194E+00  1.87460277E-01  3.55239128E-02  4.92676194E+00
  1.87460277E-01  3.55239128E-02  6.09875638E+00  1.39121255E+00 -2.54358053E+00
  6.09875638E+00  1.39121255E+00 -2.54358053E+00  6.09875638E+00  1.39121255E+00
 -2.54358053E+00  6.09875638E+00  1.39121255E+00 -2.54358053E+00  6.09875638E+00
  1.39121255E+00 -2.54358053E+00  6.09875638E+00  1.39121255E+00 -2.54358053E+00
  6.09875638E+00  1.39121255E+00 -2.54358053E+00  6.09875638E+00  1.39121255E+00
 -2.54358053E+00  1.07793953E+00 -8.64605860E-01  1.81365494E+00  1.07793953E+00
 -8.64605860E-01  1.81365494E+00  1.07793953E+00 -8.64605860E-01  1.81365494E+00
  1.07793953E+00 -8.64605860E-01  1.81365494E+00  6.49701559E-01  5.25765681E-01
 -1.46546666E+00  6.49701559E-01  5.25765681E-01 -1.46546666E+00  6.49701559E-01
  5.25765681E-01 -1.46546666E+00  6.49701559E-01  5.25765681E-01 -1.46546666E+00
  4.94204756E+00  1.99646575E+00 -4.13423228E+00  4.94204756E+00  1.99646575E+00
 -4.13423228E+00  4.94204756E+00  1.99646575E+00 -4.13423228E+00  4.94204756E+00
  1.99646575E+00 -4.13423228E+00  8.14558359E+00  1.55646016E+00 -2.58103217E+00
  8.14558359E+00  1.55646016E+00 -2.58103217E+00  8.14558359E+00  1.55646016E+00
 -2.58103217E+00  8.14558359E+00  1.55646016E+00 -2.58103217E+00
Num ILSW                                   I              100
ILSW                                       I   N=         100
           1           0           0           0           2           0
           0           0           0           0        4639          -1
           5           0           0           0           2           0
           0           0           0           0           1           0
           1           1           0           0           0           0
           0           0      100000           0          -1           0
           0           0           0           0           0           0
           0           0           0           1           0           0
           0 -2000000000           1           0           0           0
           0           0         121          52           0           0
           0           0          58           0           0           0
           0           0           0           7           0           1
           0           0           0           0           0           0
           0           0           0           0           0           0
           0           0           0           0           0           0
           0           0           0           0           0           0
           0           0           0           0
Num RLSW                                   I               52
RLSW                                       R   N=          52
  1.00000000E+00  1.00000000E+00  1.00000000E+00  1.00000000E+00  1.00000000E+00
  0.00000000E+00  2.00000000E-01  2.22036000E-01  0.00000000E+00  7.77964000E-01
  0.00000000E+00  2.00000000E-01  0.00000000E+00  0.00000000E+00  1.00000000E+00
  0.00000000E+00  0.00000000E+00  1.00000000E+00  0.00000000E+00  0.00000000E+00
  0.00000000E+00  0.00000000E+00  1.00000000E+00  0.00000000E+00  0.00000000E+00
  0.00000000E+00  0.00000000E+00  1.00000000E+00  0.00000000E+00  0.00000000E+00
  0.00000000E+00  0.00000000E+00  1.00000000E+00  0.00000000E+00  0.00000000E+00
  0.00000000E+00  0.00000000E+00  0.00000000E+00  1.00000000E+00  1.00000000E+00
  0.00000000E+00  1.00000000E+00  0.00000000E+00  0.00000000E+00  0.00000000E+00
  0.00000000E+00  0.00000000E+00  0.00000000E+00  0.00000000E+00  0.00000000E+00
  0.00000000E+00  0.00000000E+00
MxBond                                     I                3
NBond                                      I   N=           7
           3           2           3           1           1           1
           1
IBond                                      I   N=          21
           2           4           5           1           3           0
           2           6           7           1           0           0
           1           0           0           3           0           0
           3           0           0
RBond                                      R   N=          21
  2.00000000E+00  1.00000000E+00  1.00000000E+00  2.00000000E+00  2.00000000E+00
  0.00000000E+00  2.00000000E+00  1.00000000E+00  1.00000000E+00  1.00000000E+00
  0.00000000E+00  0.00000000E+00  1.00000000E+00  0.00000000E+00  0.00000000E+00
  1.00000000E+00  0.00000000E+00  0.00000000E+00  1.00000000E+00  0.00000000E+00
  0.00000000E+00
Virial Ratio                               R      2.004448350016116E+00
SCF Energy                                 R     -4.765101835212881E+02
Total Energy                               R     -4.765101835212881E+02
S**2 after annihilation                    R     -1.065814103640145E-14
RMS Force                                  R      2.643087191169654E-06
RMS Density                                R      2.289536006977907E-10
Job Status                                 I                1
Nuclear derivative order                   I                1
External E-field                           R   N=          35
  0.00000000E+00  0.00000000E+00  0.00000000E+00  0.00000000E+00  0.00000000E+00
  0.00000000E+00  0.00000000E+00  0.00000000E+00  0.00000000E+00  0.00000000E+00
  0.00000000E+00  0.00000000E+00  0.00000000E+00  0.00000000E+00  0.00000000E+00
  0.00000000E+00  0.00000000E+00  0.00000000E+00  0.00000000E+00  0.00000000E+00
  0.00000000E+00  0.00000000E+00  0.00000000E+00  0.00000000E+00  0.00000000E+00
  0.00000000E+00  0.00000000E+00  0.00000000E+00  0.00000000E+00  0.00000000E+00
  0.00000000E+00  0.00000000E+00  0.00000000E+00  0.00000000E+00  0.00000000E+00
IOpCl                                      I                1
IROHF                                      I                0
Alpha Orbital Energies                     R   N=          99
 -8.90919898E+01 -1.03132053E+01 -1.03131330E+01 -8.13364208E+00 -6.08638409E+00
 -6.08482031E+00 -6.08179467E+00 -9.54602069E-01 -7.92234739E-01 -6.62017523E-01
 -5.60226169E-01 -5.49888788E-01 -4.89305511E-01 -4.50099419E-01 -4.17792285E-01
 -2.74274686E-01  9.99127617E-03  8.58809838E-02  9.16762340E-02  9.92089697E-02
  1.20430103E-01  1.38583463E-01  1.48717158E-01  1.52692343E-01  1.67525523E-01
  2.15927412E-01  2.32736751E-01  2.44503708E-01  2.51706928E-01  2.67984874E-01
  2.79308190E-01  2.86271984E-01  2.96906750E-01  2.99908860E-01  3.16162985E-01
  3.17797324E-01  3.52640131E-01  3.74013491E-01  3.96391486E-01  3.98025795E-01
  4.04257255E-01  4.13243972E-01  4.35269635E-01  4.49094524E-01  4.62423351E-01
  4.76792032E-01  4.83998264E-01  5.03221041E-01  5.15364229E-01  5.15966229E-01
  5.19822323E-01  5.66987999E-01  5.84984444E-01  6.06715479E-01  6.21856133E-01
  6.84971136E-01  8.28144939E-01  8.39402949E-01  8.58097631E-01  8.60609133E-01
  8.75477569E-01  9.09322323E-01  9.27738723E-01  9.66340836E-01  9.78601564E-01
  1.02671624E+00  1.04980381E+00  1.06917753E+00  1.07627728E+00  1.10400333E+00
  1.13167563E+00  1.21709621E+00  1.22291993E+00  1.29924467E+00  1.35645259E+00
  1.39356082E+00  1.50581269E+00  1.53138487E+00  1.59000280E+00  1.69561908E+00
  1.71246997E+00  1.77149568E+00  1.83767351E+00  1.90139100E+00  1.93143798E+00
  2.13123646E+00  2.15394575E+00  2.21098534E+00  2.21654535E+00  2.21828357E+00
  2.25988242E+00  2.37298724E+00  2.37799248E+00  2.52897426E+00  2.61103439E+00
  3.05823449E+00  3.06422569E+00  3.09145729E+00  3.09453291E+00
Beta Orbital Energies                      R   N=          99
 -8.90919898E+01 -1.03132053E+01 -1.03131330E+01 -8.13364208E+00 -6.08638409E+00
 -6.08482031E+00 -6.08179467E+00 -9.54602069E-01 -7.92234739E-01 -6.62017523E-01
 -5.60226169E-01 -5.49888788E-01 -4.89305511E-01 -4.50099419E-01 -4.17792285E-01
 -2.74274686E-01  9.99127617E-03  8.58809838E-02  9.16762340E-02  9.92089697E-02
  1.20430103E-01  1.38583463E-01  1.48717158E-01  1.52692343E-01  1.67525523E-01
  2.15927412E-01  2.32736751E-01  2.44503708E-01  2.51706928E-01  2.67984874E-01
  2.79308190E-01  2.86271984E-01  2.96906750E-01  2.99908860E-01  3.16162985E-01
  3.17797324E-01  3.52640131E-01  3.74013491E-01  3.96391486E-01  3.98025795E-01
  4.04257255E-01  4.13243972E-01  4.35269635E-01  4.49094524E-01  4.62423351E-01
  4.76792032E-01  4.83998264E-01  5.03221041E-01  5.15364229E-01  5.15966229E-01
  5.19822323E-01  5.66987999E-01  5.84984444E-01  6.06715479E-01  6.21856133E-01
  6.84971136E-01  8.28144939E-01  8.39402949E-01  8.58097631E-01  8.60609133E-01
  8.75477569E-01  9.09322323E-01  9.27738723E-01  9.66340836E-01  9.78601564E-01
  1.02671624E+00  1.04980381E+00  1.06917753E+00  1.07627728E+00  1.10400333E+00
  1.13167563E+00  1.21709621E+00  1.22291993E+00  1.29924467E+00  1.35645259E+00
  1.39356082E+00  1.50581269E+00  1.53138487E+00  1.59000280E+00  1.69561908E+00
  1.71246997E+00  1.77149568E+00  1.83767351E+00  1.90139100E+00  1.93143798E+00
  2.13123646E+00  2.15394575E+00  2.21098534E+00  2.21654535E+00  2.21828357E+00
  2.25988242E+00  2.37298724E+00  2.37799248E+00  2.52897426E+00  2.61103439E+00
  3.05823449E+00  3.06422569E+00  3.09145729E+00  3.09453291E+00
Alpha MO coefficients                      R   N=        9801
  1.04292673E-04 -9.68610186E-04  1.47202219E-02  1.31421734E-02 -2.67210594E-04
 -3.52185084E-05  3.60892417E-05  2.90724304E-03  1.71044411E-03 -3.45335892E-03
  3.75142745E-04  2.10157116E-05 -9.63591509E-05 -4.60455007E-04 -7.38258191E-05
 -1.38754632E-04  3.75707360E-03 -7.31997186E-04  2.33718980E-03 -1.27083042E-03
  9.94178402E-01 -2.24214279E-02  1.63318821E-02 -3.25634028E-02 -1.21316701E-02
 -9.51857571E-05  4.79638188E-05 -1.26712292E-04 -3.24257530E-04  1.63353034E-04
 -4.31664523E-04  2.00356154E-03 -1.00893804E-03  2.66595925E-03  1.18907035E-03
 -5.98899989E-04  1.58259566E-03 -3.88832687E-05 -7.92492884E-05  3.90857528E-05
 -2.13548952E-05  3.01447780E-05  8.11889568E-04  5.85695906E-03  2.31974461E-03
 -4.52302693E-03 -3.29151963E-03  1.04332925E-04 -9.68758202E-04  1.47215208E-02
  1.31438765E-02  1.34067814E-04  1.02278929E-04 -2.13530922E-04 -4.59283256E-03
 -8.59128091E-04  1.21009997E-03 -3.33723513E-04  3.71741355E-04  2.84175010E-04
  1.19467491E-04 -1.53552299E-04  3.16526570E-03  2.12305330E-03 -2.50524270E-03
 -3.65923947E-04 -8.99064676E-04 -2.23267065E-04  5.76073390E-03 -1.75404656E-04
  1.47863887E-05 -6.37800889E-05  1.70177783E-03  7.36440866E-04 -1.41186334E-03
 -4.02365584E-04 -1.50173169E-02 -2.77256205E-04 -2.35979281E-08 -4.66495065E-05
 -5.11024581E-04  1.11353809E-03 -2.65208417E-03 -4.02372635E-04 -1.50181747E-02
  5.28973086E-05  1.13068467E-04 -2.51910642E-04 -2.53091010E-03  4.21189777E-04
 -1.39622811E-03 -2.23318334E-04  5.75880251E-03 -1.64060369E-06  7.43407469E-05
 -1.71822921E-04 -2.06390122E-03 -5.53449278E-04  9.29742232E-04 -6.96180226E-01
 -4.09194081E-02  8.71031140E-02  2.78291234E-02  4.46347649E-05  3.83249622E-05
 -8.28714325E-05 -9.18915807E-03 -3.61405360E-03  6.79433177E-03 -4.28514435E-04
 -8.52781971E-05  8.36883778E-04 -8.31423789E-04 -1.11571608E-04  9.33925009E-03
 -1.04356147E-02 -9.68788121E-03 -1.45612476E-04  4.83623346E-03  3.68568690E-07
  3.06048302E-06 -1.07232566E-05  8.10660512E-05 -6.12172711E-06 -2.78468482E-04
 -9.58103345E-05  1.73963729E-04 -6.60804845E-04 -2.27879610E-04  4.13790132E-04
 -2.88554708E-03 -9.85782435E-04  1.78777459E-03  2.40293009E-03  8.21364800E-04
 -1.48834098E-03 -1.64299074E-03  8.14811064E-04  8.84270122E-04  1.34045117E-03
 -1.86007825E-04  7.13468052E-04 -3.61264430E-04 -3.84456446E-04 -5.83551625E-04
  8.36887141E-05  7.00832045E-01  4.11792402E-02 -8.76746563E-02 -2.78584884E-02
  1.02965816E-04  1.17751104E-05 -1.09872734E-05 -1.03079749E-02 -3.07096729E-03
  5.35481835E-03  2.78572212E-04  1.63468648E-04 -7.60508584E-04  9.62374068E-04
  9.39360383E-05  9.02889170E-03  1.31738986E-03 -1.60076990E-04 -1.49150555E-02
 -2.75810738E-03  1.03036034E-03 -6.66765190E-02  6.96243680E-04  5.39085672E-04
 -1.12634222E-03 -3.77678171E-03 -5.35348060E-03  1.17249633E-02  1.74497962E-03
 -2.59154378E-02  5.56080100E-04 -4.96388005E-04  1.23786627E-03 -8.95776483E-03
 -1.84880583E-05 -1.46386902E-03 -1.75816532E-03  2.61771377E-02 -1.07064521E-03
  3.24753619E-04 -9.29663864E-04 -1.71475538E-03 -3.67112126E-03  8.17926402E-03
 -1.04400509E-03  6.68761877E-02  1.41636991E-03  1.82243970E-04 -1.82250893E-04
 -1.34447443E-02 -5.27010483E-04 -1.03205601E-03  7.00991932E-01  3.90950061E-02
 -8.63501543E-02 -4.35124674E-03 -6.06909047E-04 -8.99789596E-05  1.07185870E-04
  5.42557123E-03  3.14920330E-04  1.81036466E-04  7.11882149E-04  3.02542989E-04
 -9.75555706E-04  6.45637453E-04 -6.05648178E-06 -1.95717744E-03 -4.08777523E-03
  2.88857351E-03 -2.80140598E-03  1.27855217E-03  1.06652981E-04  8.81900420E-04
 -3.12518425E-03  2.42638045E-02 -1.89882708E-03  1.21932702E-04 -6.06492697E-05
  1.60526009E-04  4.09877637E-04 -2.04748786E-04  5.41745970E-04 -9.36589870E-04
  4.79833892E-04 -1.26609909E-03  8.70727015E-04 -4.45813628E-04  1.17457952E-03
 -1.07557736E-04  6.02626688E-04  7.32045388E-04 -1.05102528E-03 -4.40656522E-04
 -6.37579111E-04 -2.18632402E-03 -3.27676196E-05  7.17403644E-04  1.06051255E-03
  6.96340974E-01  3.88219932E-02 -8.57668205E-02 -4.16443403E-03  3.29140698E-04
  2.29880787E-04 -4.75403599E-04 -1.71398559E-03 -2.13137534E-03  4.62955671E-03
  2.07372451E-04  5.49805840E-04 -7.00872126E-04  1.05067436E-03 -6.34438176E-05
 -2.87727795E-03 -3.67053073E-03  3.35134816E-03 -1.99856070E-03  1.20092633E-03
 -2.05920664E-03  2.99730437E-02 -6.90239068E-04 -5.69678514E-04  1.19830543E-03
  6.58511581E-03  3.58628760E-03 -7.16648490E-03 -1.99349112E-03  3.97097718E-02
 -1.12628175E-03  3.72447042E-04 -1.04819523E-03  6.60822351E-03 -2.91825785E-03
  7.84039746E-03 -1.98178576E-03  3.95365264E-02 -6.57805064E-04  5.28173532E-04
 -1.32896124E-03  5.64576391E-03 -3.22651186E-03  8.39272403E-03 -2.05239078E-03
  2.95238828E-02  1.46863744E-03  1.71467497E-04 -1.48934071E-04 -9.64130875E-03
 -1.99692057E-03  2.98646966E-03  1.09485298E-04 -2.35604592E-03  3.07593385E-02
  2.97510328E-02 -6.93689868E-04 -8.60787456E-05  8.12668346E-05  5.73210475E-03
  3.91261216E-03 -8.05472739E-03  4.86737290E-04  4.37075440E-06 -3.47978384E-05
 -7.69041067E-04 -1.13917033E-04  2.60789819E-04  9.13410856E-03 -1.70233355E-03
  4.51401280E-03 -3.26367512E-03  3.06326565E-01  1.01962333E+00  6.33744830E-02
 -7.60060354E-02 -2.73351324E-02  4.39491862E-03 -2.21585440E-03  5.85008247E-03
 -1.06400968E-03  5.36516868E-04 -1.41676512E-03  3.49317744E-03 -1.75950367E-03
  4.64884621E-03  2.77890954E-03 -1.39965987E-03  3.69862598E-03 -8.21061370E-05
 -4.42122683E-04 -1.22067509E-04  2.78920543E-04  2.37693263E-04  1.99746928E-03
  1.38388619E-02  5.28213234E-03 -1.04541051E-02 -7.73670675E-03  1.09451496E-04
 -2.35638526E-03  3.07629663E-02  2.97543869E-02  3.35267261E-04  2.66525270E-04
 -5.58703425E-04 -1.03317784E-02 -1.59053820E-03  1.93366984E-03 -5.24390126E-04
  5.04643516E-04  5.07989175E-04  5.81748351E-05 -2.27553778E-04  6.94599657E-03
  5.82902049E-03 -5.28999129E-03 -9.55269257E-04 -2.51182478E-03 -2.20228196E-04
  1.46609199E-02 -1.20892814E-04  9.91417594E-05 -2.49311157E-04  3.64041010E-03
  1.93110105E-03 -3.84085873E-03 -7.27548390E-04 -3.44020782E-02 -2.98085733E-04
  3.64772681E-06 -5.85947943E-05 -1.28765991E-03  2.42789484E-03 -5.81137294E-03
 -7.27553928E-04 -3.44053237E-02  4.81872435E-05  1.22214225E-04 -2.73843762E-04
 -5.48503045E-03  9.89256966E-04 -3.20190950E-03 -2.20280863E-04  1.46575149E-02
 -2.11495940E-04  6.81633295E-05 -1.92939513E-04 -5.25569789E-03 -1.11575455E-03
  1.69044777E-03 -5.17478196E-05 -2.75052718E-04  2.21234450E-02  3.05220514E-03
 -5.67323729E-04 -8.39024131E-05  9.78598121E-05  4.03873885E-03  1.62565466E-03
 -3.06777949E-03  7.10048088E-04 -6.06861738E-05 -9.45429453E-05 -1.05385504E-03
 -1.25481388E-04 -1.93986935E-03  1.22459626E-02  1.69974048E-03  2.60828489E-03
 -5.00936351E-03  1.41386259E-06  5.12634643E-06 -2.42079630E-06  1.11842380E-05
 -3.61930292E-07  8.00007150E-01  2.74478854E-01 -4.97726008E-01 -4.40775697E-02
 -1.51222062E-02  2.74230148E-02  2.58630793E-02  8.86952967E-03 -1.60916379E-02
  2.40171695E-03  8.23133993E-04 -1.49411392E-03 -1.15377447E-03  5.70961480E-04
  6.19825368E-04  9.44026755E-04 -1.29986964E-04  2.16453620E-03 -1.06834625E-03
 -1.16155549E-03 -1.76981682E-03  2.41241635E-04  5.18798956E-05  2.75413342E-04
 -2.21348683E-02 -3.04950853E-03 -3.06373936E-04 -2.15609658E-04  4.45903459E-04
  4.61030609E-03  1.33909906E-03 -2.31419365E-03  7.70218294E-04 -6.71754157E-04
 -7.00059190E-04 -1.57071362E-04  2.91981384E-04 -8.53677332E-03 -7.05508439E-03
  3.92654215E-03  5.96720458E-03  3.82757749E-03 -4.50252821E-06  1.11567010E-02
 -1.23201539E-04 -2.66988452E-05  4.07270214E-05 -4.92853792E-03  7.11221524E-04
 -2.47551429E-03 -3.57933972E-04 -2.22292969E-02  3.65126863E-05  2.50004948E-05
 -5.13916926E-05  1.02779238E-03  2.42605929E-03 -5.41852061E-03  3.57785714E-04
  2.22191564E-02  6.57988140E-05  1.02426264E-05 -1.22536071E-05  5.92336079E-03
 -4.23934019E-05  1.09676821E-03  4.32003789E-06 -1.11486666E-02 -8.64758556E-05
 -4.51854086E-05  8.95458527E-05  7.43536997E-04 -2.14672042E-03  5.07122471E-03
  3.62441105E-08 -3.78754955E-07 -2.14873217E-06  8.60264776E-06 -1.79642147E-05
  2.45574180E-04  1.06429341E-04  2.03305118E-04 -2.77273211E-03 -1.19896031E-03
  6.12409787E-07  1.41353816E-04  1.10729695E-05 -4.71033980E-05  3.24474298E-04
  1.13411667E-04 -1.36860141E-03  2.93858447E-05  5.26809173E-04 -3.09272596E-03
  3.68896822E-07  1.30315884E-06  2.35627257E-08 -4.84968242E-06 -1.31884705E-06
 -6.59114188E-02  8.99138630E-01  3.89902826E-01  3.37519863E-03 -4.60356169E-02
 -1.99631056E-02 -1.09763675E-03  1.49486691E-02  6.48338672E-03  2.57431096E-05
 -3.22993816E-04 -1.41665678E-04  1.75995327E-04  5.91882518E-05  1.95468834E-04
  7.55431953E-05  1.82328432E-04 -1.66538829E-03 -5.60068038E-04 -1.85548177E-03
 -7.18970500E-04 -1.72897737E-03 -2.63477417E-08  4.54895296E-08  3.31334447E-06
 -6.51314341E-06 -1.77393239E-05  2.45641699E-04  1.06522376E-04  1.96194890E-04
 -2.77202335E-03 -1.20291368E-03  2.07829232E-04 -7.11280801E-05  2.21197809E-04
  1.37209384E-04 -1.08162744E-04 -1.93784900E-03  7.57042935E-04 -2.05996538E-03
 -1.31286691E-03  1.19974995E-03  2.35126764E-07 -6.34834993E-06 -9.97938617E-06
  1.37078799E-04  5.95017379E-05  4.77729825E-05 -5.87800547E-04 -2.50421431E-04
  5.64077094E-07  9.79965915E-06 -1.22198733E-05  1.66911616E-04  7.23923293E-05
  8.12553739E-05 -1.06013870E-03 -4.60646716E-04 -5.10265177E-07 -1.64810220E-05
 -1.22225825E-05  1.66946024E-04  7.23901950E-05  7.61705741E-05 -1.06014400E-03
 -4.62413922E-04  1.20070419E-07  1.56712397E-05 -1.00622674E-05  1.37158761E-04
  5.93655683E-05  3.89176450E-05 -5.84842295E-04 -2.60216146E-04 -6.60878773E-05
 -1.28185119E-04  1.11028424E-02 -5.11216245E-03 -4.11030927E-04  3.39825036E-05
 -1.47716576E-04  7.58797346E-03 -5.66195108E-05  1.41158128E-03  3.40842225E-04
  1.78546377E-04 -6.01737450E-05 -4.37304034E-04 -1.40171521E-04 -3.01207662E-03
 -1.03184606E-02  7.46640865E-04  1.73463194E-03  4.72787546E-03 -2.55538754E-03
 -9.13805343E-03  3.94743478E-03 -2.67080888E-02  3.90942581E-03  5.64850572E-01
 -2.84306433E-01  7.51112911E-01 -3.01112609E-02  1.51559069E-02 -4.00402707E-02
  1.73404138E-02 -8.72853799E-03  2.30579227E-02  8.18643776E-04 -4.12249864E-04
  1.08826284E-03  8.72591254E-05  1.11588243E-04 -1.36988776E-04  1.26040181E-04
 -2.57252309E-05 -2.71898915E-03 -7.40451787E-03  1.32621817E-03  7.35677775E-04
  3.29303459E-03 -6.60920919E-05 -1.28332166E-04  1.10918558E-02 -5.11239519E-03
 -2.21149259E-06  1.74182065E-04 -4.01849304E-04 -1.30606056E-03 -3.10708593E-03
  6.94189133E-03 -2.24671507E-04  4.58212104E-04  2.43182961E-04  2.56542584E-05
 -2.03708256E-04 -3.74382595E-03 -9.96536064E-03  1.13984106E-03  2.33381962E-03
  4.64856287E-03  9.00555490E-05 -1.26195864E-02 -9.77644512E-05 -5.29751122E-05
  1.05630200E-04  3.48955215E-03 -1.72875115E-03  4.57574462E-03  6.95897259E-05