0003_q000_m01_k00_opt_uwb97xd_def2svpd/0003_q000_m01_k00_force_uwb97xd_d
Force     UwB97XD                                                     Gen                 
Number of atoms                            I                7
Info1-9                                    I   N=           9
          13           9           0           0           0         100
           5          18       -5802
Full Title                                 C   N=           8
0003_q000_m01_k00_opt_uwb97xd_def2svpd/0003_q000_m01_k00_for
ce_uwb97xd_def2tzvpd stable-force   
Route                                      C   N=          15
#p uwb97xd/chkbasis force guess=read geom=check scf=(maxcycl
e=900,verytightlineq,xqc) integral=grid=ultrafine symmetry=N
one density=current pop=(cm5,hlygat,mbs,npa) output=wfx     
Charge                                     I                0
Multiplicity                               I                1
Number of electrons                        I               32
Number of alpha electrons                  I               16
Number of beta electrons                   I               16
Number of basis functions                  I              156
Number of independent functions            I              156
Number of point charges in /Mol/           I                0
Number of translation vectors              I                0
Atomic numbers                             I   N=           7
           6          16           6           1           1           1
           1
Nuclear charges                            R   N=           7
  6.00000000E+00  1.60000000E+01  6.00000000E+00  1.00000000E+00  1.00000000E+00
  1.00000000E+00  1.00000000E+00
Current cartesian coordinates              R   N=          21
  1.85917402E+00 -6.15268432E-02  9.23282726E-02  4.92676194E+00  1.87460277E-01
  3.55239128E-02  6.09875638E+00  1.39121255E+00 -2.54358053E+00  1.07793953E+00
 -8.64605860E-01  1.81365494E+00  6.49701559E-01  5.25765681E-01 -1.46546666E+00
  4.94204756E+00  1.99646575E+00 -4.13423228E+00  8.14558359E+00  1.55646016E+00
 -2.58103217E+00
Number of symbols in /Mol/                 I                0
Int Atom Types                             I   N=           7
           0           0           0           0           0           0
           0
Force Field                                I                0
Atom Types                                 C   N=           7
                                                            
                        
MM charges                                 R   N=           7
  0.00000000E+00  0.00000000E+00  0.00000000E+00  0.00000000E+00  0.00000000E+00
  0.00000000E+00  0.00000000E+00
Integer atomic weights                     I   N=           7
          12          32          12           1           1           1
           1
Real atomic weights                        R   N=           7
  1.20000000E+01  3.19720718E+01  1.20000000E+01  1.00782504E+00  1.00782504E+00
  1.00782504E+00  1.00782504E+00
Atom fragment info                         I   N=           7
           0           0           0           0           0           0
           0
Atom residue num                           I   N=           7
           0           0           0           0           0           0
           0
Nuclear spins                              I   N=           7
           0           0           0           1           1           1
           1
Nuclear ZEff                               R   N=           7
 -3.60000000E+00 -1.36000000E+01 -3.60000000E+00 -1.00000000E+00 -1.00000000E+00
 -1.00000000E+00 -1.00000000E+00
Nuclear ZNuc                               R   N=           7
  6.00000000E+00  1.60000000E+01  6.00000000E+00  1.00000000E+00  1.00000000E+00
  1.00000000E+00  1.00000000E+00
Nuclear QMom                               R   N=           7
  0.00000000E+00  0.00000000E+00  0.00000000E+00  0.00000000E+00  0.00000000E+00
  0.00000000E+00  0.00000000E+00
Nuclear GFac                               R   N=           7
  0.00000000E+00  0.00000000E+00  0.00000000E+00  2.79284600E+00  2.79284600E+00
  2.79284600E+00  2.79284600E+00
MicOpt                                     I   N=           7
          -1          -1          -1          -1          -1          -1
          -1
Number of residues                         I                0
Number of secondary structures             I                0
Number of contracted shells                I               62
Number of primitive shells                 I              102
Pure/Cartesian d shells                    I                0
Pure/Cartesian f shells                    I                0
Highest angular momentum                   I                3
Largest degree of contraction              I                7
Shell types                                I   N=          62
           0           0           0           0           0           0
           1           1           1          -2          -2          -2
          -3           0           0           0           0           0
           0           1           1           1           1           1
           1          -2          -2          -2          -3           0
           0           0           0           0           0           1
           1           1          -2          -2          -2          -3
           0           0           0           1           1           0
           0           0           1           1           0           0
           0           1           1           0           0           0
           1           1
Number of primitives per shell             I   N=          62
           6           2           1           1           1           1
           4           1           1           1           1           1
           1           7           3           2           1           1
           1           5           1           1           1           1
           1           2           1           1           1           6
           2           1           1           1           1           4
           1           1           1           1           1           1
           3           1           1           1           1           3
           1           1           1           1           3           1
           1           1           1           3           1           1
           1           1
Shell to atom map                          I   N=          62
           1           1           1           1           1           1
           1           1           1           1           1           1
           1           2           2           2           2           2
           2           2           2           2           2           2
           2           2           2           2           2           3
           3           3           3           3           3           3
           3           3           3           3           3           3
           4           4           4           4           4           5
           5           5           5           5           6           6
           6           6           6           7           7           7
           7           7
Primitive exponents                        R   N=         102
  1.35753497E+04  2.03523337E+03  4.63225624E+02  1.31200196E+02  4.28530159E+01
  1.55841858E+01  6.20671385E+00  2.57648965E+00  5.76963394E-01  2.29728314E-01
  9.51644400E-02  4.84754014E-02  3.46972322E+01  7.95826228E+00  2.37808269E+00
  8.14332082E-01  2.88875473E-01  1.00568237E-01  1.09700000E+00  3.18000000E-01
  9.09853364E-02  7.61000000E-01  6.07009281E+04  9.10261069E+03  2.07141660E+03
  5.86024768E+02  1.90553950E+02  6.76303843E+01  2.51273069E+01  1.12574630E+02
  3.47955542E+01  6.51155562E+00  3.23990323E+00  1.54771609E+00  4.05410301E-01
  1.45506511E-01  5.01788395E-02  5.64367160E+02  1.33426244E+02  4.24682712E+01
  1.56165276E+01  6.10939885E+00  2.44041602E+00  8.38822013E-01  3.12887469E-01
  1.07701090E-01  3.03598336E-02  3.75600000E+00  8.12000000E-01  2.73000000E-01
  8.15470250E-02  5.57000000E-01  1.35753497E+04  2.03523337E+03  4.63225624E+02
  1.31200196E+02  4.28530159E+01  1.55841858E+01  6.20671385E+00  2.57648965E+00
  5.76963394E-01  2.29728314E-01  9.51644400E-02  4.84754014E-02  3.46972322E+01
  7.95826228E+00  2.37808269E+00  8.14332082E-01  2.88875473E-01  1.00568237E-01
  1.09700000E+00  3.18000000E-01  9.09853364E-02  7.61000000E-01  3.40613410E+01
  5.12357460E+00  1.16466260E+00  3.27230410E-01  1.03072410E-01  8.00000000E-01
  9.57741296E-02  3.40613410E+01  5.12357460E+00  1.16466260E+00  3.27230410E-01
  1.03072410E-01  8.00000000E-01  9.57741296E-02  3.40613410E+01  5.12357460E+00
  1.16466260E+00  3.27230410E-01  1.03072410E-01  8.00000000E-01  9.57741296E-02
  3.40613410E+01  5.12357460E+00  1.16466260E+00  3.27230410E-01  1.03072410E-01
  8.00000000E-01  9.57741296E-02
Contraction coefficients                   R   N=         102
  6.06455036E-04  4.69790889E-03  2.43324776E-02  9.73999683E-02  3.01955843E-01
  6.62336091E-01  6.55953085E-01  3.75856333E-01  1.00000000E+00  1.00000000E+00
  1.00000000E+00  1.00000000E+00  1.13272200E-02  7.61696592E-02  3.01922522E-01
  7.27850273E-01  1.00000000E+00  1.00000000E+00  1.00000000E+00  1.00000000E+00
  1.00000000E+00  1.00000000E+00  5.23800749E-04  4.05063268E-03  2.08270042E-02
  8.14968503E-02  2.37491138E-01  4.47261715E-01  3.48919184E-01  1.00455699E-01
  4.33911729E-01 -1.20843306E+00  6.74981294E-01  3.47087958E-01  1.00000000E+00
  1.00000000E+00  1.00000000E+00  3.48869236E-03  2.76851268E-02  1.26594002E-01
  3.61659257E-01  6.12220344E-01  1.00000000E+00  1.00000000E+00  1.00000000E+00
  1.00000000E+00  1.00000000E+00  1.82851975E-01  9.14259873E-01  1.00000000E+00
  1.00000000E+00  1.00000000E+00  6.06455036E-04  4.69790889E-03  2.43324776E-02
  9.73999683E-02  3.01955843E-01  6.62336091E-01  6.55953085E-01  3.75856333E-01
  1.00000000E+00  1.00000000E+00  1.00000000E+00  1.00000000E+00  1.13272200E-02
  7.61696592E-02  3.01922522E-01  7.27850273E-01  1.00000000E+00  1.00000000E+00
  1.00000000E+00  1.00000000E+00  1.00000000E+00  1.00000000E+00  2.54393072E-02
  1.90085949E-01  8.52441130E-01  1.00000000E+00  1.00000000E+00  1.00000000E+00
  1.00000000E+00  2.54393072E-02  1.90085949E-01  8.52441130E-01  1.00000000E+00
  1.00000000E+00  1.00000000E+00  1.00000000E+00  2.54393072E-02  1.90085949E-01
  8.52441130E-01  1.00000000E+00  1.00000000E+00  1.00000000E+00  1.00000000E+00
  2.54393072E-02  1.90085949E-01  8.52441130E-01  1.00000000E+00  1.00000000E+00
  1.00000000E+00  1.00000000E+00
Coordinates of each shell                  R   N=         186
  1.85917402E+00 -6.15268432E-02  9.23282726E-02  1.85917402E+00 -6.15268432E-02
  9.23282726E-02  1.85917402E+00 -6.15268432E-02  9.23282726E-02  1.85917402E+00
 -6.15268432E-02  9.23282726E-02  1.85917402E+00 -6.15268432E-02  9.23282726E-02
  1.85917402E+00 -6.15268432E-02  9.23282726E-02  1.85917402E+00 -6.15268432E-02
  9.23282726E-02  1.85917402E+00 -6.15268432E-02  9.23282726E-02  1.85917402E+00
 -6.15268432E-02  9.23282726E-02  1.85917402E+00 -6.15268432E-02  9.23282726E-02
  1.85917402E+00 -6.15268432E-02  9.23282726E-02  1.85917402E+00 -6.15268432E-02
  9.23282726E-02  1.85917402E+00 -6.15268432E-02  9.23282726E-02  4.92676194E+00
  1.87460277E-01  3.55239128E-02  4.92676194E+00  1.87460277E-01  3.55239128E-02
  4.92676194E+00  1.87460277E-01  3.55239128E-02  4.92676194E+00  1.87460277E-01
  3.55239128E-02  4.92676194E+00  1.87460277E-01  3.55239128E-02  4.92676194E+00
  1.87460277E-01  3.55239128E-02  4.92676194E+00  1.87460277E-01  3.55239128E-02
  4.92676194E+00  1.87460277E-01  3.55239128E-02  4.92676194E+00  1.87460277E-01
  3.55239128E-02  4.92676194E+00  1.87460277E-01  3.55239128E-02  4.92676194E+00
  1.87460277E-01  3.55239128E-02  4.92676194E+00  1.87460277E-01  3.55239128E-02
  4.92676194E+00  1.87460277E-01  3.55239128E-02  4.92676194E+00  1.87460277E-01
  3.55239128E-02  4.92676194E+00  1.87460277E-01  3.55239128E-02  4.92676194E+00
  1.87460277E-01  3.55239128E-02  6.09875638E+00  1.39121255E+00 -2.54358053E+00
  6.09875638E+00  1.39121255E+00 -2.54358053E+00  6.09875638E+00  1.39121255E+00
 -2.54358053E+00  6.09875638E+00  1.39121255E+00 -2.54358053E+00  6.09875638E+00
  1.39121255E+00 -2.54358053E+00  6.09875638E+00  1.39121255E+00 -2.54358053E+00
  6.09875638E+00  1.39121255E+00 -2.54358053E+00  6.09875638E+00  1.39121255E+00
 -2.54358053E+00  6.09875638E+00  1.39121255E+00 -2.54358053E+00  6.09875638E+00
  1.39121255E+00 -2.54358053E+00  6.09875638E+00  1.39121255E+00 -2.54358053E+00
  6.09875638E+00  1.39121255E+00 -2.54358053E+00  6.09875638E+00  1.39121255E+00
 -2.54358053E+00  1.07793953E+00 -8.64605860E-01  1.81365494E+00  1.07793953E+00
 -8.64605860E-01  1.81365494E+00  1.07793953E+00 -8.64605860E-01  1.81365494E+00
  1.07793953E+00 -8.64605860E-01  1.81365494E+00  1.07793953E+00 -8.64605860E-01
  1.81365494E+00  6.49701559E-01  5.25765681E-01 -1.46546666E+00  6.49701559E-01
  5.25765681E-01 -1.46546666E+00  6.49701559E-01  5.25765681E-01 -1.46546666E+00
  6.49701559E-01  5.25765681E-01 -1.46546666E+00  6.49701559E-01  5.25765681E-01
 -1.46546666E+00  4.94204756E+00  1.99646575E+00 -4.13423228E+00  4.94204756E+00
  1.99646575E+00 -4.13423228E+00  4.94204756E+00  1.99646575E+00 -4.13423228E+00
  4.94204756E+00  1.99646575E+00 -4.13423228E+00  4.94204756E+00  1.99646575E+00
 -4.13423228E+00  8.14558359E+00  1.55646016E+00 -2.58103217E+00  8.14558359E+00
  1.55646016E+00 -2.58103217E+00  8.14558359E+00  1.55646016E+00 -2.58103217E+00
  8.14558359E+00  1.55646016E+00 -2.58103217E+00  8.14558359E+00  1.55646016E+00
 -2.58103217E+00
Num ILSW                                   I              100
ILSW                                       I   N=         100
           1           0           0           0           2           0
           0           0           0           0        4639          -1
           5           0           0           0           2           0
           0           0           0           0           1           0
           1           1           0           0           0           0
           0           0      100000           0          -1           0
           0           0           0           0           0           0
           0           0           0           1           0           0
           0 -2000000000           1           0           0           0
           0           0         121          52           0           0
           0           0          58           0           0           0
           0           0           0           7           0           1
           0           0           0           0           0           0
           0           0           0           0           0           0
           0           0           0           0           0           0
           0           0           0           0           0           0
           0           0           0           0
Num RLSW                                   I               52
RLSW                                       R   N=          52
  1.00000000E+00  1.00000000E+00  1.00000000E+00  1.00000000E+00  1.00000000E+00
  0.00000000E+00  2.00000000E-01  2.22036000E-01  0.00000000E+00  7.77964000E-01
  0.00000000E+00  2.00000000E-01  0.00000000E+00  0.00000000E+00  1.00000000E+00
  0.00000000E+00  0.00000000E+00  1.00000000E+00  0.00000000E+00  0.00000000E+00
  0.00000000E+00  0.00000000E+00  1.00000000E+00  0.00000000E+00  0.00000000E+00
  0.00000000E+00  0.00000000E+00  1.00000000E+00  0.00000000E+00  0.00000000E+00
  0.00000000E+00  0.00000000E+00  1.00000000E+00  0.00000000E+00  0.00000000E+00
  0.00000000E+00  0.00000000E+00  0.00000000E+00  1.00000000E+00  1.00000000E+00
  0.00000000E+00  1.00000000E+00  0.00000000E+00  0.00000000E+00  0.00000000E+00
  0.00000000E+00  0.00000000E+00  0.00000000E+00  0.00000000E+00  0.00000000E+00
  0.00000000E+00  0.00000000E+00
MxBond                                     I                3
NBond                                      I   N=           7
           3           2           3           1           1           1
           1
IBond                                      I   N=          21
           2           4           5           1           3           0
           2           6           7           1           0           0
           1           0           0           3           0           0
           3           0           0
RBond                                      R   N=          21
  2.00000000E+00  1.00000000E+00  1.00000000E+00  2.00000000E+00  2.00000000E+00
  0.00000000E+00  2.00000000E+00  1.00000000E+00  1.00000000E+00  1.00000000E+00
  0.00000000E+00  0.00000000E+00  1.00000000E+00  0.00000000E+00  0.00000000E+00
  1.00000000E+00  0.00000000E+00  0.00000000E+00  1.00000000E+00  0.00000000E+00
  0.00000000E+00
Virial Ratio                               R      2.002501128321277E+00
SCF Energy                                 R     -4.767353158531739E+02
Total Energy                               R     -4.767353158531739E+02
S**2                                       R     -2.486899575160351E-14
S**2 after annihilation                    R     -8.810729923425117E-13
RMS Force                                  R      4.149588908164149E-03
RMS Density                                R      4.704131062911296E-10
Job Status                                 I                1
Nuclear derivative order                   I                1
External E-field                           R   N=          35
  0.00000000E+00  0.00000000E+00  0.00000000E+00  0.00000000E+00  0.00000000E+00
  0.00000000E+00  0.00000000E+00  0.00000000E+00  0.00000000E+00  0.00000000E+00
  0.00000000E+00  0.00000000E+00  0.00000000E+00  0.00000000E+00  0.00000000E+00
  0.00000000E+00  0.00000000E+00  0.00000000E+00  0.00000000E+00  0.00000000E+00
  0.00000000E+00  0.00000000E+00  0.00000000E+00  0.00000000E+00  0.00000000E+00
  0.00000000E+00  0.00000000E+00  0.00000000E+00  0.00000000E+00  0.00000000E+00
  0.00000000E+00  0.00000000E+00  0.00000000E+00  0.00000000E+00  0.00000000E+00
IOpCl                                      I                1
IROHF                                      I                0
Alpha Orbital Energies                     R   N=         156
 -8.90869904E+01 -1.02985381E+01 -1.02985224E+01 -8.11552953E+00 -6.06174839E+00
 -6.06132176E+00 -6.05798991E+00 -9.50271197E-01 -7.94648570E-01 -6.64725298E-01
 -5.57852135E-01 -5.46533215E-01 -4.87107374E-01 -4.46421101E-01 -4.15701058E-01
 -2.74344532E-01  1.01521631E-02  6.20256049E-02  6.67239331E-02  7.62031382E-02
  8.65106731E-02  1.20160528E-01  1.29146780E-01  1.37264769E-01  1.44607784E-01
  1.68113739E-01  1.88098363E-01  2.04289756E-01  2.05697480E-01  2.20075977E-01
  2.31046367E-01  2.38659286E-01  2.61382228E-01  2.62282510E-01  2.68965614E-01
  2.69330183E-01  2.92437932E-01  3.10908757E-01  3.21148492E-01  3.33189596E-01
  3.55397446E-01  3.60544949E-01  3.62930412E-01  3.65436131E-01  3.67799989E-01
  3.94211695E-01  4.01555320E-01  4.20605772E-01  4.27343505E-01  4.30612995E-01
  4.47051379E-01  4.51039790E-01  4.56414877E-01  4.68921891E-01  4.90686705E-01
  5.16056486E-01  5.24103349E-01  5.48672175E-01  5.69019489E-01  5.77207237E-01
  5.86681681E-01  5.97661037E-01  6.02434311E-01  6.19186078E-01  6.58355064E-01
  6.90575284E-01  6.92697043E-01  7.19032540E-01  7.56145913E-01  7.71079505E-01
  7.71789573E-01  7.81810139E-01  8.00585310E-01  8.32267262E-01  8.95768823E-01
  9.16160753E-01  9.25048539E-01  9.92149580E-01  1.04036313E+00  1.06327582E+00
  1.06919108E+00  1.15853101E+00  1.19330395E+00  1.20308112E+00  1.23338844E+00
  1.27960355E+00  1.31747037E+00  1.62699518E+00  1.64432981E+00  1.65701176E+00
  1.67418236E+00  1.70087044E+00  1.70835032E+00  1.71490801E+00  1.74867035E+00
  1.78918977E+00  1.81083753E+00  1.85694267E+00  1.91837369E+00  1.92740490E+00
  1.93870794E+00  1.95544584E+00  1.95618432E+00  1.97032120E+00  2.02573365E+00
  2.03739288E+00  2.08412360E+00  2.16100975E+00  2.18353299E+00  2.20368226E+00
  2.21497521E+00  2.28055628E+00  2.28734634E+00  2.30481937E+00  2.48388077E+00
  2.49376397E+00  2.57979510E+00  2.60818240E+00  2.65972670E+00  2.73854194E+00
  2.77009813E+00  2.81539361E+00  2.86809018E+00  2.89013702E+00  2.92196751E+00
  2.99861067E+00  3.15323406E+00  3.19640238E+00  3.20085215E+00  3.22482770E+00
  3.25769957E+00  3.28677548E+00  3.29865979E+00  3.40419374E+00  3.40988568E+00
  3.46594207E+00  3.49637298E+00  3.50158414E+00  3.57411643E+00  3.57889121E+00
  3.64169064E+00  3.72425957E+00  3.78020425E+00  3.80119567E+00  3.96320676E+00
  4.01973474E+00  4.29566260E+00  4.31542216E+00  4.69193058E+00  4.70649115E+00
  9.04796069E+00  9.34005668E+00  9.68879552E+00  2.08286458E+01  2.23272999E+01
  2.23739456E+01
Beta Orbital Energies                      R   N=         156
 -8.90869904E+01 -1.02985381E+01 -1.02985224E+01 -8.11552953E+00 -6.06174839E+00
 -6.06132176E+00 -6.05798991E+00 -9.50271197E-01 -7.94648570E-01 -6.64725298E-01
 -5.57852135E-01 -5.46533215E-01 -4.87107374E-01 -4.46421101E-01 -4.15701058E-01
 -2.74344532E-01  1.01521631E-02  6.20256049E-02  6.67239331E-02  7.62031382E-02
  8.65106731E-02  1.20160528E-01  1.29146780E-01  1.37264769E-01  1.44607784E-01
  1.68113739E-01  1.88098363E-01  2.04289756E-01  2.05697480E-01  2.20075977E-01
  2.31046367E-01  2.38659286E-01  2.61382228E-01  2.62282510E-01  2.68965614E-01
  2.69330183E-01  2.92437932E-01  3.10908757E-01  3.21148492E-01  3.33189596E-01
  3.55397446E-01  3.60544949E-01  3.62930412E-01  3.65436131E-01  3.67799989E-01
  3.94211695E-01  4.01555320E-01  4.20605772E-01  4.27343505E-01  4.30612995E-01
  4.47051379E-01  4.51039790E-01  4.56414877E-01  4.68921891E-01  4.90686705E-01
  5.16056486E-01  5.24103349E-01  5.48672175E-01  5.69019489E-01  5.77207237E-01
  5.86681681E-01  5.97661037E-01  6.02434311E-01  6.19186078E-01  6.58355064E-01
  6.90575284E-01  6.92697043E-01  7.19032540E-01  7.56145913E-01  7.71079505E-01
  7.71789573E-01  7.81810139E-01  8.00585310E-01  8.32267262E-01  8.95768823E-01
  9.16160753E-01  9.25048539E-01  9.92149580E-01  1.04036313E+00  1.06327582E+00
  1.06919108E+00  1.15853101E+00  1.19330395E+00  1.20308112E+00  1.23338844E+00
  1.27960355E+00  1.31747037E+00  1.62699518E+00  1.64432981E+00  1.65701176E+00
  1.67418236E+00  1.70087044E+00  1.70835032E+00  1.71490801E+00  1.74867035E+00
  1.78918977E+00  1.81083753E+00  1.85694267E+00  1.91837369E+00  1.92740490E+00
  1.93870794E+00  1.95544584E+00  1.95618432E+00  1.97032120E+00  2.02573365E+00
  2.03739288E+00  2.08412360E+00  2.16100975E+00  2.18353299E+00  2.20368226E+00
  2.21497521E+00  2.28055628E+00  2.28734634E+00  2.30481937E+00  2.48388077E+00
  2.49376397E+00  2.57979510E+00  2.60818240E+00  2.65972670E+00  2.73854194E+00
  2.77009813E+00  2.81539361E+00  2.86809018E+00  2.89013702E+00  2.92196751E+00
  2.99861067E+00  3.15323406E+00  3.19640238E+00  3.20085215E+00  3.22482770E+00
  3.25769957E+00  3.28677548E+00  3.29865979E+00  3.40419374E+00  3.40988568E+00
  3.46594207E+00  3.49637298E+00  3.50158414E+00  3.57411643E+00  3.57889121E+00
  3.64169064E+00  3.72425957E+00  3.78020425E+00  3.80119567E+00  3.96320676E+00
  4.01973474E+00  4.29566260E+00  4.31542216E+00  4.69193058E+00  4.70649115E+00
  9.04796069E+00  9.34005668E+00  9.68879552E+00  2.08286458E+01  2.23272999E+01
  2.23739456E+01
Alpha MO coefficients                      R   N=       24336
  3.91274055E-06 -2.14581140E-05  9.70684782E-04 -3.27894420E-03 -8.77248241E-04
 -1.05475314E-04  2.61702450E-04  2.40424006E-05 -1.13138138E-05 -2.79437222E-03
 -2.26367431E-04  5.08031725E-05  1.17239783E-04 -2.81980969E-05  8.49962756E-05
  3.25810462E-05  3.98838523E-06  7.21418376E-06 -6.83872175E-05 -1.20301633E-05
  8.19545466E-04  2.86673110E-05 -9.27612785E-05 -1.22704569E-03 -1.89993174E-04
 -7.60868446E-04 -4.88750146E-04  3.39281162E-04  5.79056618E-04  2.87196626E-04
 -2.20225746E-05  2.50971861E-04  2.18516293E-05  2.60191968E-05  2.05406092E-05
 -3.38893382E-04 -9.10874642E-05  9.99259501E-01 -3.16956884E-02 -1.12974089E-02
  5.10989734E-03  1.13730578E-03 -5.27185756E-04 -5.59472793E-05  2.81930068E-05
 -7.44550916E-05  2.54239850E-05 -1.28135691E-05  3.38333078E-05  2.07507846E-04
 -1.04594970E-04  2.76303870E-04 -1.67828798E-03  8.46303023E-04 -2.23543596E-03
  1.82588302E-04 -9.08988122E-05  2.40421162E-04  1.36018512E-05 -6.82466401E-06
  1.80564361E-05  2.08572593E-05 -1.17736720E-04 -1.40025481E-04  2.00080415E-04
  8.52046640E-05  3.67768544E-05 -7.99080217E-04 -6.86502740E-04  1.04921350E-03
  5.24439437E-04 -1.30855698E-05  2.48356245E-05  5.15945330E-05 -6.82563367E-05
 -2.24801672E-05 -9.00301188E-05  4.53607954E-04  2.36041702E-04  2.35678095E-05
 -1.84816894E-04 -3.18877766E-04 -4.13861559E-05  3.90717466E-06 -2.14422680E-05
  9.71037931E-04 -3.28120685E-03 -8.80103205E-04 -1.05452267E-04 -1.06636151E-04
 -1.02180669E-04  2.17728096E-04  1.06744230E-03  1.09738226E-03 -2.35143167E-03
  4.43682830E-05 -5.27877686E-05  1.29168146E-04 -4.09105649E-05  4.03739608E-05
  4.66884984E-05 -8.29422260E-06 -2.02961664E-05 -8.40297619E-04  8.50065996E-04
  7.98284841E-04  1.30882300E-04 -3.76778220E-04  2.70869711E-04 -9.99539970E-04
 -2.14340511E-04 -2.65074694E-04  4.03661863E-04 -8.10976144E-05  2.47850304E-04
  2.64804907E-04 -1.29891895E-05 -2.15292596E-04 -3.17813153E-05  5.12408879E-05
 -3.38762745E-06 -2.57590359E-04  6.94363283E-04 -6.12467360E-05 -5.43143430E-06
  2.20306273E-06  7.17225617E-04 -7.99354013E-05  3.05064252E-04  9.54082742E-06
 -2.02161978E-04  1.44118978E-03 -9.09877785E-05 -2.01068316E-05  3.10139244E-05
  3.98180113E-04  1.32583067E-04 -2.39116131E-04  9.52442896E-06 -2.02357539E-04
  1.44176461E-03  6.48119375E-05  3.32907206E-05 -6.58907322E-05 -3.89538127E-04
 -1.37059600E-04  2.50768538E-04 -3.40899310E-06 -2.57732375E-04  6.94825036E-04
  2.45149172E-05  2.39595106E-05 -5.11192041E-05  5.19690620E-05 -3.07970534E-04
  7.19072364E-04  3.33535198E-01  4.34365143E-01  2.72075247E-02 -2.60114277E-02
  6.97653247E-02  3.31937520E-04  6.23446665E-04  5.85797510E-05 -2.90167052E-05
 -3.31240594E-03 -3.36263618E-04  2.17375063E-04 -8.46876488E-03 -5.33895962E-04
 -1.90929685E-04  1.84932865E-04  5.43816169E-05 -3.68884533E-04  3.76628033E-04
  4.33369905E-05  1.26162974E-03  1.33953720E-04 -8.23450084E-04 -6.11255093E-04
 -1.22388101E-04  7.06506544E-03 -2.99340412E-03 -6.54657034E-03 -5.87342189E-04
  1.42762639E-03  1.44406059E-04 -4.30070580E-04 -9.99508836E-05 -2.13244627E-04
  3.61130757E-04 -4.90320900E-05  6.87625373E-05 -1.41297308E-07  6.77912711E-08
 -2.32688097E-07 -7.41706335E-06  1.90533295E-04 -6.03471697E-06  3.20335090E-05
  1.07768697E-05 -1.94688784E-05 -5.94976740E-05 -1.98430183E-05  3.57783713E-05
 -6.75367331E-05 -2.43222834E-05  4.45582563E-05 -2.26290659E-03 -7.61675839E-04
  1.37576694E-03 -2.14437292E-03 -6.87317234E-04  1.22033050E-03 -5.37655313E-04
 -1.81825465E-04  3.27985715E-04 -2.16994247E-05  8.46320817E-06  1.15477163E-05
  1.74547435E-05 -1.50590075E-06 -6.84819568E-04  3.45430566E-04  3.61870079E-04
  5.72402742E-04 -7.79606028E-05 -1.32591617E-03  7.03844747E-04  7.28357050E-04
  1.06509039E-03 -1.73635476E-04 -1.74551103E-04 -4.35961437E-05  2.64362133E-04
  9.74610139E-05 -1.56329558E-04  2.84666605E-04  5.84262704E-05 -3.27240227E-01
 -4.26167689E-01 -2.66870963E-02  2.55278951E-02 -6.84092631E-02 -3.55188214E-04
  2.50098993E-04  2.37577612E-04 -5.05672647E-04 -1.38976912E-03 -1.25940444E-03
  2.67129563E-03 -2.57125861E-03 -3.24952067E-03  7.06672380E-03 -1.33523159E-04
 -7.75164328E-05  3.35149367E-04 -4.06865525E-04 -3.64670439E-05  6.44115001E-04
 -1.05200701E-03 -1.93369500E-04 -9.54001599E-04  3.24928763E-04  4.36841829E-03
 -2.53498384E-03  3.77225901E-04 -8.68487166E-03 -1.81786293E-04  5.35636724E-05
  4.65173757E-04 -1.93481249E-04  9.79750655E-05 -1.82605060E-04 -2.60104022E-04
 -1.28021520E-04 -3.11111211E-04 -1.25761434E-03 -3.52776749E-02 -4.93421926E-04
 -4.50874162E-04  9.57203050E-04 -2.01454422E-03 -1.41934860E-03  2.94209413E-03
 -2.21555796E-04 -1.70546316E-03 -2.62658774E-02 -8.22055351E-04  2.91110328E-04
 -8.09669100E-04 -5.70666211E-03  2.30341406E-04 -1.49071793E-03  2.14281861E-04
  1.69852267E-03  2.56957400E-02  5.19176311E-04 -3.84637910E-04  9.74512790E-04
 -5.40721023E-04 -2.33457558E-03  5.29381576E-03  3.05990686E-04  1.24072076E-03
  3.45024484E-02 -1.13827312E-03 -1.12855946E-04  6.92051691E-05 -3.61435573E-03
 -5.15467206E-04  5.88276828E-04  3.27245509E-01  4.26149348E-01  2.70629419E-02
 -2.50789382E-02  7.05446097E-02 -1.22361330E-03  7.62872532E-04  7.25276205E-05
 -3.76478415E-05 -3.68827577E-03 -4.79632379E-04  4.84429346E-04 -1.55306936E-02
 -5.56866560E-03  1.02346781E-02  1.43905120E-04  4.13218981E-05 -4.00352624E-04
  5.02603173E-04  6.85538119E-05  1.16867001E-03  7.03729637E-04 -3.23291965E-04
 -1.26459132E-03 -4.82602238E-04  7.36137443E-03  2.98564112E-03 -5.60192957E-03
 -1.65139727E-03 -1.36485659E-03  1.09719422E-05 -4.88814566E-04 -9.01291852E-05
 -4.85763328E-05  4.66654106E-04 -7.58958562E-05 -3.53143581E-05 -1.66324969E-05
  9.82367493E-06 -1.44348424E-05 -7.30744318E-04  1.98168767E-02 -6.50036682E-04
  2.39703211E-05 -1.23353847E-05  3.24923720E-05 -6.57852007E-05  3.36352835E-05
 -8.86699949E-05  1.34172384E-04 -6.69669817E-05  1.77056894E-04 -1.63501659E-03
  8.41483581E-04 -2.21682785E-03 -5.98942040E-03  3.03345902E-03 -8.00905131E-03
 -3.27363119E-04  1.69227951E-04 -4.45699138E-04 -7.17067235E-05 -1.98693688E-04
  3.27730910E-05  2.28109518E-05  8.88592387E-05  4.81784372E-04  4.72594263E-04
 -8.45128986E-04  8.32595823E-04 -5.64340924E-05  8.81223166E-04  4.57746335E-03
  1.22148356E-03 -2.86358410E-03 -2.45364591E-03  8.30181831E-05 -5.07390390E-04