0003_q000_m01_k00_opt_uwb97xd_def2svpd/0003_q000_m01_k00_force_uhf_def2t
Force     UHF                                                         Gen                 
Number of atoms                            I                7
Info1-9                                    I   N=           9
          13           9           0           0           0         100
           5           1           2
Full Title                                 C   N=           8
0003_q000_m01_k00_opt_uwb97xd_def2svpd/0003_q000_m01_k00_for
ce_uhf_def2tzvpd stable-force       
Route                                      C   N=          15
#p uhf/chkbasis force guess=read geom=check scf=(maxcycle=90
0,verytightlineq,xqc) integral=grid=ultrafine symmetry=None 
density=current pop=(cm5,hlygat,mbs,npa) output=wfx         
Charge                                     I                0
Multiplicity                               I                1
Number of electrons                        I               32
Number of alpha electrons                  I               16
Number of beta electrons                   I               16
Number of basis functions                  I              156
Number of independent functions            I              156
Number of point charges in /Mol/           I                0
Number of translation vectors              I                0
Atomic numbers                             I   N=           7
           6          16           6           1           1           1
           1
Nuclear charges                            R   N=           7
  6.00000000E+00  1.60000000E+01  6.00000000E+00  1.00000000E+00  1.00000000E+00
  1.00000000E+00  1.00000000E+00
Current cartesian coordinates              R   N=          21
  1.85917402E+00 -6.15268432E-02  9.23282726E-02  4.92676194E+00  1.87460277E-01
  3.55239128E-02  6.09875638E+00  1.39121255E+00 -2.54358053E+00  1.07793953E+00
 -8.64605860E-01  1.81365494E+00  6.49701559E-01  5.25765681E-01 -1.46546666E+00
  4.94204756E+00  1.99646575E+00 -4.13423228E+00  8.14558359E+00  1.55646016E+00
 -2.58103217E+00
Number of symbols in /Mol/                 I                0
Int Atom Types                             I   N=           7
           0           0           0           0           0           0
           0
Force Field                                I                0
Atom Types                                 C   N=           7
                                                            
                        
MM charges                                 R   N=           7
  0.00000000E+00  0.00000000E+00  0.00000000E+00  0.00000000E+00  0.00000000E+00
  0.00000000E+00  0.00000000E+00
Integer atomic weights                     I   N=           7
          12          32          12           1           1           1
           1
Real atomic weights                        R   N=           7
  1.20000000E+01  3.19720718E+01  1.20000000E+01  1.00782504E+00  1.00782504E+00
  1.00782504E+00  1.00782504E+00
Atom fragment info                         I   N=           7
           0           0           0           0           0           0
           0
Atom residue num                           I   N=           7
           0           0           0           0           0           0
           0
Nuclear spins                              I   N=           7
           0           0           0           1           1           1
           1
Nuclear ZEff                               R   N=           7
 -3.60000000E+00 -1.36000000E+01 -3.60000000E+00 -1.00000000E+00 -1.00000000E+00
 -1.00000000E+00 -1.00000000E+00
Nuclear ZNuc                               R   N=           7
  6.00000000E+00  1.60000000E+01  6.00000000E+00  1.00000000E+00  1.00000000E+00
  1.00000000E+00  1.00000000E+00
Nuclear QMom                               R   N=           7
  0.00000000E+00  0.00000000E+00  0.00000000E+00  0.00000000E+00  0.00000000E+00
  0.00000000E+00  0.00000000E+00
Nuclear GFac                               R   N=           7
  0.00000000E+00  0.00000000E+00  0.00000000E+00  2.79284600E+00  2.79284600E+00
  2.79284600E+00  2.79284600E+00
MicOpt                                     I   N=           7
          -1          -1          -1          -1          -1          -1
          -1
Number of residues                         I                0
Number of secondary structures             I                0
Number of contracted shells                I               62
Number of primitive shells                 I              102
Pure/Cartesian d shells                    I                0
Pure/Cartesian f shells                    I                0
Highest angular momentum                   I                3
Largest degree of contraction              I                7
Shell types                                I   N=          62
           0           0           0           0           0           0
           1           1           1          -2          -2          -2
          -3           0           0           0           0           0
           0           1           1           1           1           1
           1          -2          -2          -2          -3           0
           0           0           0           0           0           1
           1           1          -2          -2          -2          -3
           0           0           0           1           1           0
           0           0           1           1           0           0
           0           1           1           0           0           0
           1           1
Number of primitives per shell             I   N=          62
           6           2           1           1           1           1
           4           1           1           1           1           1
           1           7           3           2           1           1
           1           5           1           1           1           1
           1           2           1           1           1           6
           2           1           1           1           1           4
           1           1           1           1           1           1
           3           1           1           1           1           3
           1           1           1           1           3           1
           1           1           1           3           1           1
           1           1
Shell to atom map                          I   N=          62
           1           1           1           1           1           1
           1           1           1           1           1           1
           1           2           2           2           2           2
           2           2           2           2           2           2
           2           2           2           2           2           3
           3           3           3           3           3           3
           3           3           3           3           3           3
           4           4           4           4           4           5
           5           5           5           5           6           6
           6           6           6           7           7           7
           7           7
Primitive exponents                        R   N=         102
  1.35753497E+04  2.03523337E+03  4.63225624E+02  1.31200196E+02  4.28530159E+01
  1.55841858E+01  6.20671385E+00  2.57648965E+00  5.76963394E-01  2.29728314E-01
  9.51644400E-02  4.84754014E-02  3.46972322E+01  7.95826228E+00  2.37808269E+00
  8.14332082E-01  2.88875473E-01  1.00568237E-01  1.09700000E+00  3.18000000E-01
  9.09853364E-02  7.61000000E-01  6.07009281E+04  9.10261069E+03  2.07141660E+03
  5.86024768E+02  1.90553950E+02  6.76303843E+01  2.51273069E+01  1.12574630E+02
  3.47955542E+01  6.51155562E+00  3.23990323E+00  1.54771609E+00  4.05410301E-01
  1.45506511E-01  5.01788395E-02  5.64367160E+02  1.33426244E+02  4.24682712E+01
  1.56165276E+01  6.10939885E+00  2.44041602E+00  8.38822013E-01  3.12887469E-01
  1.07701090E-01  3.03598336E-02  3.75600000E+00  8.12000000E-01  2.73000000E-01
  8.15470250E-02  5.57000000E-01  1.35753497E+04  2.03523337E+03  4.63225624E+02
  1.31200196E+02  4.28530159E+01  1.55841858E+01  6.20671385E+00  2.57648965E+00
  5.76963394E-01  2.29728314E-01  9.51644400E-02  4.84754014E-02  3.46972322E+01
  7.95826228E+00  2.37808269E+00  8.14332082E-01  2.88875473E-01  1.00568237E-01
  1.09700000E+00  3.18000000E-01  9.09853364E-02  7.61000000E-01  3.40613410E+01
  5.12357460E+00  1.16466260E+00  3.27230410E-01  1.03072410E-01  8.00000000E-01
  9.57741296E-02  3.40613410E+01  5.12357460E+00  1.16466260E+00  3.27230410E-01
  1.03072410E-01  8.00000000E-01  9.57741296E-02  3.40613410E+01  5.12357460E+00
  1.16466260E+00  3.27230410E-01  1.03072410E-01  8.00000000E-01  9.57741296E-02
  3.40613410E+01  5.12357460E+00  1.16466260E+00  3.27230410E-01  1.03072410E-01
  8.00000000E-01  9.57741296E-02
Contraction coefficients                   R   N=         102
  6.06455036E-04  4.69790889E-03  2.43324776E-02  9.73999683E-02  3.01955843E-01
  6.62336091E-01  6.55953085E-01  3.75856333E-01  1.00000000E+00  1.00000000E+00
  1.00000000E+00  1.00000000E+00  1.13272200E-02  7.61696592E-02  3.01922522E-01
  7.27850273E-01  1.00000000E+00  1.00000000E+00  1.00000000E+00  1.00000000E+00
  1.00000000E+00  1.00000000E+00  5.23800749E-04  4.05063268E-03  2.08270042E-02
  8.14968503E-02  2.37491138E-01  4.47261715E-01  3.48919184E-01  1.00455699E-01
  4.33911729E-01 -1.20843306E+00  6.74981294E-01  3.47087958E-01  1.00000000E+00
  1.00000000E+00  1.00000000E+00  3.48869236E-03  2.76851268E-02  1.26594002E-01
  3.61659257E-01  6.12220344E-01  1.00000000E+00  1.00000000E+00  1.00000000E+00
  1.00000000E+00  1.00000000E+00  1.82851975E-01  9.14259873E-01  1.00000000E+00
  1.00000000E+00  1.00000000E+00  6.06455036E-04  4.69790889E-03  2.43324776E-02
  9.73999683E-02  3.01955843E-01  6.62336091E-01  6.55953085E-01  3.75856333E-01
  1.00000000E+00  1.00000000E+00  1.00000000E+00  1.00000000E+00  1.13272200E-02
  7.61696592E-02  3.01922522E-01  7.27850273E-01  1.00000000E+00  1.00000000E+00
  1.00000000E+00  1.00000000E+00  1.00000000E+00  1.00000000E+00  2.54393072E-02
  1.90085949E-01  8.52441130E-01  1.00000000E+00  1.00000000E+00  1.00000000E+00
  1.00000000E+00  2.54393072E-02  1.90085949E-01  8.52441130E-01  1.00000000E+00
  1.00000000E+00  1.00000000E+00  1.00000000E+00  2.54393072E-02  1.90085949E-01
  8.52441130E-01  1.00000000E+00  1.00000000E+00  1.00000000E+00  1.00000000E+00
  2.54393072E-02  1.90085949E-01  8.52441130E-01  1.00000000E+00  1.00000000E+00
  1.00000000E+00  1.00000000E+00
Coordinates of each shell                  R   N=         186
  1.85917402E+00 -6.15268432E-02  9.23282726E-02  1.85917402E+00 -6.15268432E-02
  9.23282726E-02  1.85917402E+00 -6.15268432E-02  9.23282726E-02  1.85917402E+00
 -6.15268432E-02  9.23282726E-02  1.85917402E+00 -6.15268432E-02  9.23282726E-02
  1.85917402E+00 -6.15268432E-02  9.23282726E-02  1.85917402E+00 -6.15268432E-02
  9.23282726E-02  1.85917402E+00 -6.15268432E-02  9.23282726E-02  1.85917402E+00
 -6.15268432E-02  9.23282726E-02  1.85917402E+00 -6.15268432E-02  9.23282726E-02
  1.85917402E+00 -6.15268432E-02  9.23282726E-02  1.85917402E+00 -6.15268432E-02
  9.23282726E-02  1.85917402E+00 -6.15268432E-02  9.23282726E-02  4.92676194E+00
  1.87460277E-01  3.55239128E-02  4.92676194E+00  1.87460277E-01  3.55239128E-02
  4.92676194E+00  1.87460277E-01  3.55239128E-02  4.92676194E+00  1.87460277E-01
  3.55239128E-02  4.92676194E+00  1.87460277E-01  3.55239128E-02  4.92676194E+00
  1.87460277E-01  3.55239128E-02  4.92676194E+00  1.87460277E-01  3.55239128E-02
  4.92676194E+00  1.87460277E-01  3.55239128E-02  4.92676194E+00  1.87460277E-01
  3.55239128E-02  4.92676194E+00  1.87460277E-01  3.55239128E-02  4.92676194E+00
  1.87460277E-01  3.55239128E-02  4.92676194E+00  1.87460277E-01  3.55239128E-02
  4.92676194E+00  1.87460277E-01  3.55239128E-02  4.92676194E+00  1.87460277E-01
  3.55239128E-02  4.92676194E+00  1.87460277E-01  3.55239128E-02  4.92676194E+00
  1.87460277E-01  3.55239128E-02  6.09875638E+00  1.39121255E+00 -2.54358053E+00
  6.09875638E+00  1.39121255E+00 -2.54358053E+00  6.09875638E+00  1.39121255E+00
 -2.54358053E+00  6.09875638E+00  1.39121255E+00 -2.54358053E+00  6.09875638E+00
  1.39121255E+00 -2.54358053E+00  6.09875638E+00  1.39121255E+00 -2.54358053E+00
  6.09875638E+00  1.39121255E+00 -2.54358053E+00  6.09875638E+00  1.39121255E+00
 -2.54358053E+00  6.09875638E+00  1.39121255E+00 -2.54358053E+00  6.09875638E+00
  1.39121255E+00 -2.54358053E+00  6.09875638E+00  1.39121255E+00 -2.54358053E+00
  6.09875638E+00  1.39121255E+00 -2.54358053E+00  6.09875638E+00  1.39121255E+00
 -2.54358053E+00  1.07793953E+00 -8.64605860E-01  1.81365494E+00  1.07793953E+00
 -8.64605860E-01  1.81365494E+00  1.07793953E+00 -8.64605860E-01  1.81365494E+00
  1.07793953E+00 -8.64605860E-01  1.81365494E+00  1.07793953E+00 -8.64605860E-01
  1.81365494E+00  6.49701559E-01  5.25765681E-01 -1.46546666E+00  6.49701559E-01
  5.25765681E-01 -1.46546666E+00  6.49701559E-01  5.25765681E-01 -1.46546666E+00
  6.49701559E-01  5.25765681E-01 -1.46546666E+00  6.49701559E-01  5.25765681E-01
 -1.46546666E+00  4.94204756E+00  1.99646575E+00 -4.13423228E+00  4.94204756E+00
  1.99646575E+00 -4.13423228E+00  4.94204756E+00  1.99646575E+00 -4.13423228E+00
  4.94204756E+00  1.99646575E+00 -4.13423228E+00  4.94204756E+00  1.99646575E+00
 -4.13423228E+00  8.14558359E+00  1.55646016E+00 -2.58103217E+00  8.14558359E+00
  1.55646016E+00 -2.58103217E+00  8.14558359E+00  1.55646016E+00 -2.58103217E+00
  8.14558359E+00  1.55646016E+00 -2.58103217E+00  8.14558359E+00  1.55646016E+00
 -2.58103217E+00
Num ILSW                                   I              100
ILSW                                       I   N=         100
           1           0           0           0           2           0
           0           0           0           0           0          -1
           5           0           0           0           2           0
           0           0           0           0           1           0
           1           1           0           0           0           0
           0           0      100000           0          -1           0
           0           0           0           0           0           0
           0           0           0           1           0           0
           0 -2000000000           1           0           0           0
           0           0           4          52           0           0
           0           0           0           0           0           0
           0           0           0           7           0           1
           0           0           0           0           0           0
           0           0           0           0           0           0
           0           0           0           0           0           0
           0           0           0           0           0           0
           0           0           0           0
Num RLSW                                   I               52
RLSW                                       R   N=          52
  1.00000000E+00  1.00000000E+00  1.00000000E+00  1.00000000E+00  1.00000000E+00
  0.00000000E+00  0.00000000E+00  1.00000000E+00  0.00000000E+00  0.00000000E+00
  0.00000000E+00  0.00000000E+00  1.00000000E+00  0.00000000E+00  0.00000000E+00
  0.00000000E+00  0.00000000E+00  1.00000000E+00  0.00000000E+00  0.00000000E+00
  0.00000000E+00  0.00000000E+00  1.00000000E+00  0.00000000E+00  0.00000000E+00
  0.00000000E+00  0.00000000E+00  1.00000000E+00  0.00000000E+00  0.00000000E+00
  0.00000000E+00  0.00000000E+00  1.00000000E+00  0.00000000E+00  0.00000000E+00
  0.00000000E+00  0.00000000E+00  0.00000000E+00  1.00000000E+00  1.00000000E+00
  0.00000000E+00  1.00000000E+00  0.00000000E+00  0.00000000E+00  0.00000000E+00
  0.00000000E+00  0.00000000E+00  0.00000000E+00  0.00000000E+00  0.00000000E+00
  0.00000000E+00  0.00000000E+00
MxBond                                     I                3
NBond                                      I   N=           7
           3           2           3           1           1           1
           1
IBond                                      I   N=          21
           2           4           5           1           3           0
           2           6           7           1           0           0
           1           0           0           3           0           0
           3           0           0
RBond                                      R   N=          21
  2.00000000E+00  1.00000000E+00  1.00000000E+00  2.00000000E+00  2.00000000E+00
  0.00000000E+00  2.00000000E+00  1.00000000E+00  1.00000000E+00  1.00000000E+00
  0.00000000E+00  0.00000000E+00  1.00000000E+00  0.00000000E+00  0.00000000E+00
  1.00000000E+00  0.00000000E+00  0.00000000E+00  1.00000000E+00  0.00000000E+00
  0.00000000E+00
Virial Ratio                               R      1.999881941649559E+00
SCF Energy                                 R     -4.755483011153210E+02
Total Energy                               R     -4.755483011153210E+02
S**2                                       R      7.220485901745235E-01
S**2 after annihilation                    R      1.406069388328738E-01
RMS Force                                  R      1.514754948762164E-02
RMS Density                                R      7.308462736554105E-11
Job Status                                 I                1
Nuclear derivative order                   I                1
External E-field                           R   N=          35
  0.00000000E+00  0.00000000E+00  0.00000000E+00  0.00000000E+00  0.00000000E+00
  0.00000000E+00  0.00000000E+00  0.00000000E+00  0.00000000E+00  0.00000000E+00
  0.00000000E+00  0.00000000E+00  0.00000000E+00  0.00000000E+00  0.00000000E+00
  0.00000000E+00  0.00000000E+00  0.00000000E+00  0.00000000E+00  0.00000000E+00
  0.00000000E+00  0.00000000E+00  0.00000000E+00  0.00000000E+00  0.00000000E+00
  0.00000000E+00  0.00000000E+00  0.00000000E+00  0.00000000E+00  0.00000000E+00
  0.00000000E+00  0.00000000E+00  0.00000000E+00  0.00000000E+00  0.00000000E+00
IOpCl                                      I                1
IROHF                                      I                0
Alpha Orbital Energies                     R   N=         156
 -9.19868644E+01 -1.12510881E+01 -1.12317853E+01 -8.99065259E+00 -6.67288230E+00
 -6.67131704E+00 -6.67119177E+00 -1.11336564E+00 -9.39854824E-01 -7.65808878E-01
 -6.35018951E-01 -6.18677901E-01 -5.55321182E-01 -4.93662827E-01 -4.51985823E-01
 -3.12812736E-01  6.47936838E-02  6.83033118E-02  7.86021060E-02  8.19013579E-02
  1.07510384E-01  1.23904074E-01  1.47163272E-01  1.51712481E-01  1.83907024E-01
  1.86706000E-01  2.04991710E-01  2.25521280E-01  2.44184384E-01  2.46762826E-01
  2.61850919E-01  2.75149090E-01  2.83725572E-01  2.86528991E-01  2.92846128E-01
  2.97581839E-01  3.14862632E-01  3.37831574E-01  3.56900298E-01  3.67876070E-01
  3.80962242E-01  3.96196736E-01  3.96427713E-01  4.02843354E-01  4.07787237E-01
  4.30991326E-01  4.43290522E-01  4.52029124E-01  4.62835786E-01  4.66704572E-01
  4.79078736E-01  4.94025660E-01  4.94470623E-01  5.01603782E-01  5.16318902E-01
  5.48300404E-01  5.52997609E-01  5.99490154E-01  6.25047401E-01  6.28804016E-01
  6.52872107E-01  6.75129060E-01  6.93483924E-01  7.24131983E-01  7.40657825E-01
  7.42223544E-01  7.53105629E-01  7.88559471E-01  8.48034800E-01  8.57027510E-01
  8.57784213E-01  8.98659481E-01  9.16239128E-01  9.24376041E-01  1.02233923E+00
  1.03798695E+00  1.05234964E+00  1.09874041E+00  1.14876950E+00  1.19074034E+00
  1.22071142E+00  1.28165787E+00  1.32059876E+00  1.35450717E+00  1.36918672E+00
  1.42190284E+00  1.46899597E+00  1.83036860E+00  1.87074671E+00  1.87661984E+00
  1.89486658E+00  1.92207774E+00  1.93656569E+00  1.93749099E+00  1.94528150E+00
  2.00403233E+00  2.01955452E+00  2.03109870E+00  2.11444067E+00  2.12107176E+00
  2.13276712E+00  2.13906413E+00  2.14873399E+00  2.18764555E+00  2.24188947E+00
  2.24665704E+00  2.27456792E+00  2.38184302E+00  2.40583787E+00  2.41665208E+00
  2.44006110E+00  2.48292383E+00  2.49108666E+00  2.50988983E+00  2.71313525E+00
  2.72276766E+00  2.80980974E+00  2.82518041E+00  2.88558635E+00  2.95493118E+00
  2.97817220E+00  3.04915714E+00  3.07780497E+00  3.11957775E+00  3.13708902E+00
  3.23095836E+00  3.39641745E+00  3.43113061E+00  3.44389692E+00  3.45314815E+00
  3.51745999E+00  3.52775926E+00  3.55811296E+00  3.65240364E+00  3.65291281E+00
  3.71598505E+00  3.75112234E+00  3.75701199E+00  3.81444880E+00  3.83442511E+00
  3.90944207E+00  3.98594712E+00  4.05111167E+00  4.06953503E+00  4.22934951E+00
  4.29965672E+00  4.56364105E+00  4.58502624E+00  4.98147237E+00  5.00131430E+00
  9.68823969E+00  9.97654417E+00  1.03299730E+01  2.14982723E+01  2.33199142E+01
  2.33681627E+01
Beta Orbital Energies                      R   N=         156
 -9.19868640E+01 -1.12510996E+01 -1.12317752E+01 -8.99065220E+00 -6.67288228E+00
 -6.67131638E+00 -6.67119052E+00 -1.11336061E+00 -9.39864573E-01 -7.65805510E-01
 -6.35019166E-01 -6.18676895E-01 -5.55320225E-01 -4.93653247E-01 -4.51986237E-01
 -3.12831066E-01  6.47936861E-02  6.83033969E-02  7.86019074E-02  8.19035691E-02
  1.07512007E-01  1.23904109E-01  1.47163118E-01  1.51712634E-01  1.83906513E-01
  1.86705614E-01  2.04991392E-01  2.25520956E-01  2.44184124E-01  2.46762844E-01
  2.61851482E-01  2.75147510E-01  2.83725379E-01  2.86528774E-01  2.92847310E-01
  2.97581687E-01  3.14863762E-01  3.37830267E-01  3.56901435E-01  3.67874839E-01
  3.80960395E-01  3.96196733E-01  3.96429253E-01  4.02843729E-01  4.07787754E-01
  4.30989567E-01  4.43292462E-01  4.52028779E-01  4.62835630E-01  4.66703982E-01
  4.79078971E-01  4.94025837E-01  4.94470347E-01  5.01603743E-01  5.16319481E-01
  5.48299750E-01  5.52998015E-01  5.99490224E-01  6.25047205E-01  6.28798338E-01
  6.52872740E-01  6.75128955E-01  6.93479168E-01  7.24143583E-01  7.40656301E-01
  7.42228270E-01  7.53106486E-01  7.88559370E-01  8.48033083E-01  8.57023254E-01
  8.57787765E-01  8.98657589E-01  9.16237714E-01  9.24381743E-01  1.02233691E+00
  1.03798704E+00  1.05235123E+00  1.09873880E+00  1.14876948E+00  1.19072679E+00
  1.22072570E+00  1.28165770E+00  1.32059741E+00  1.35451173E+00  1.36918113E+00
  1.42190165E+00  1.46899824E+00  1.83035312E+00  1.87074799E+00  1.87662670E+00
  1.89486851E+00  1.92207174E+00  1.93656800E+00  1.93749802E+00  1.94528768E+00
  2.00403267E+00  2.01955080E+00  2.03109961E+00  2.11445012E+00  2.12106669E+00
  2.13274682E+00  2.13906041E+00  2.14875288E+00  2.18764843E+00  2.24191039E+00
  2.24663861E+00  2.27456745E+00  2.38183686E+00  2.40583736E+00  2.41665258E+00
  2.44006791E+00  2.48291589E+00  2.49109116E+00  2.50989081E+00  2.71313203E+00
  2.72276985E+00  2.80981038E+00  2.82518014E+00  2.88558962E+00  2.95493060E+00
  2.97817111E+00  3.04915654E+00  3.07780134E+00  3.11955340E+00  3.13711627E+00
  3.23095687E+00  3.39641394E+00  3.43111784E+00  3.44391137E+00  3.45313417E+00
  3.51745207E+00  3.52775122E+00  3.55813044E+00  3.65240540E+00  3.65290863E+00
  3.71599007E+00  3.75112644E+00  3.75700965E+00  3.81440132E+00  3.83447262E+00
  3.90944144E+00  3.98593388E+00  4.05111226E+00  4.06954053E+00  4.22934941E+00
  4.29966006E+00  4.56362464E+00  4.58504177E+00  4.98145852E+00  5.00132721E+00
  9.68824089E+00  9.97654449E+00  1.03299734E+01  2.14982728E+01  2.33199041E+01
  2.33681718E+01
Alpha MO coefficients                      R   N=       24336
  2.43529363E-06 -1.24262949E-05  6.34810718E-04 -2.15098883E-03 -5.70226565E-04
 -6.77349087E-05  1.69525670E-04  1.54634909E-05 -7.07327014E-06 -1.83708634E-03
 -1.48065697E-04  3.16613098E-05  1.03201677E-04 -1.54184677E-05  5.30864952E-05
  2.29632122E-05  3.13969609E-06  4.76854468E-06 -4.75498222E-05 -8.51627736E-06
  5.39002981E-04  1.60998106E-05 -6.21354819E-05 -8.05468590E-04 -1.23492850E-04
 -5.09524689E-04 -3.18224853E-04  2.27718913E-04  3.88610363E-04  1.88478283E-04
 -1.45735267E-05  1.65006495E-04  1.44983409E-05  1.71447705E-05  1.35796340E-05
 -2.22925207E-04 -5.99217040E-05  9.98649612E-01 -2.86655858E-02 -7.71730729E-03
  3.42460554E-03  6.23164759E-04 -3.59926010E-04 -6.39769468E-05  3.29140183E-05
 -8.67084166E-05  3.98002296E-05 -2.00465398E-05  5.29509500E-05  1.20941038E-04
 -5.88135900E-05  1.56082717E-04 -1.09222947E-03  5.47856402E-04 -1.44809080E-03
  1.19979311E-04 -6.32122512E-05  1.66016712E-04  9.02402425E-06 -4.58480150E-06
  1.21112266E-05  1.38194238E-05 -7.92082095E-05 -9.29482863E-05  1.32646912E-04
  5.69947124E-05  2.15420898E-05 -5.25327468E-04 -4.48053226E-04  6.88243468E-04
  3.44446050E-04 -7.68215931E-06  2.04253818E-05  3.34508357E-05 -4.47684789E-05
 -1.65363641E-05 -5.87310030E-05  2.96109594E-04  1.53058036E-04  1.58561035E-05
 -1.19709634E-04 -2.09249909E-04 -2.77365979E-05  2.43503784E-06 -1.24669541E-05
  6.33549708E-04 -2.14511915E-03 -5.64797111E-04 -6.80107474E-05 -6.87270346E-05
 -6.60967456E-05  1.40882633E-04  6.98185668E-04  7.19329264E-04 -1.54161031E-03
  1.52371175E-05 -4.67935482E-05  1.10463359E-04 -2.83219711E-05  2.84627660E-05
  3.23330406E-05 -5.66134588E-06 -1.42627539E-05 -5.52111528E-04  5.55460274E-04
  5.23156460E-04  8.78869389E-05 -2.45901204E-04  1.87681217E-04 -6.62822805E-04
 -1.46223338E-04 -1.82023763E-04  2.66895537E-04 -5.31806862E-05  1.62960537E-04
  1.74018805E-04 -8.68200821E-06 -1.41554993E-04 -2.09310457E-05  3.37494195E-05
 -2.54316031E-06 -1.70855312E-04  4.80061002E-04 -3.94937334E-05 -3.62191689E-06
  1.69660164E-06  4.73444393E-04 -5.23278910E-05  2.00365663E-04  6.18579669E-06
 -1.32970459E-04  9.54399994E-04 -6.05070700E-05 -1.33559936E-05  2.05896365E-05
  2.65975422E-04  8.85442291E-05 -1.59683269E-04  6.27890989E-06 -1.32639561E-04
  9.54670957E-04  4.30897392E-05  2.20909308E-05 -4.37097116E-05 -2.60374002E-04
 -9.15883992E-05  1.67562029E-04 -2.42920732E-06 -1.70969133E-04  4.82241946E-04
  1.61319202E-05  1.54870983E-05 -3.29945736E-05  3.33148436E-05 -2.02910580E-04
  4.73614069E-04 -2.62429375E-04 -3.42780841E-04  5.11930312E-05  1.39051842E-04
 -3.26384616E-04 -3.90701758E-04  2.42731548E-05 -8.48865706E-07  6.06404885E-06
 -1.71997402E-04 -3.90723984E-05  6.10605985E-05 -2.04351642E-03 -1.16217189E-03
  2.33671868E-03 -7.83999691E-06  3.73651795E-06 -6.39063082E-06  2.60051517E-05
  2.39946030E-06  1.76898080E-05  9.54485395E-05  9.40768114E-05 -1.85470653E-04
 -7.18491845E-05  1.11635919E-04  1.51462622E-03  2.30887980E-04 -3.17039969E-04
 -7.14120730E-04 -2.67859926E-05 -6.98463829E-06  7.99401581E-07  3.41628949E-05
  2.03953137E-05 -9.76101007E-06 -2.26212653E-05 -1.59185544E-05  9.89886696E-06
  4.13262431E-06 -1.27092134E-04  4.31742020E-03 -3.07568590E-04 -1.77508056E-05
 -2.51533100E-05  5.50325701E-05  6.76148406E-06  1.79489813E-05 -4.02773137E-05
  4.81509411E-05 -4.49679878E-07  9.21496107E-06  1.06710151E-04  3.70790774E-04
 -8.37520869E-04 -1.43052061E-03  6.65367521E-04 -1.77550692E-03  3.60397623E-05
  5.81757846E-05 -1.27949973E-04 -8.72659252E-06 -4.14389707E-05  7.71248835E-06
 -7.52781529E-06  1.67010807E-05  2.28554786E-04  8.10126928E-06 -2.79083971E-04
  1.26591065E-04  2.40065627E-05  4.34454612E-04  9.32327565E-04  1.32793266E-04
 -8.05817260E-04 -5.28727505E-04  4.82566173E-05 -7.97206380E-05 -6.60365233E-05
 -4.03721299E-05  7.37192811E-05 -1.35863433E-05  5.17497869E-06  4.67232716E-01
  6.12244566E-01  2.22079941E-02 -1.43242663E-02  3.74472494E-02 -3.16442225E-04
 -2.63279542E-04 -2.56884760E-04  5.47935195E-04  5.60152036E-04  4.79650400E-04
 -1.01177863E-03  4.33747501E-03  1.91688397E-03 -3.69343457E-03 -4.89065843E-05
 -1.85750707E-05  1.74211003E-04 -2.42271878E-04 -3.29330376E-05 -1.49721581E-04
  3.85963709E-04  8.30500708E-05  1.79417256E-04 -1.44666277E-04 -1.45608692E-03
  2.39385864E-03 -2.67428136E-04  3.46342117E-03 -5.26955847E-04  3.86696892E-05
 -3.88544390E-04  8.48915497E-06 -1.05125328E-04  1.80055587E-04  1.87473414E-04
  9.02311897E-05  9.30972803E-06  3.88423492E-05 -1.02723376E-03 -5.25456141E-06
  3.34247531E-07 -1.67929943E-06 -8.21232658E-04 -2.24771492E-04  3.79224248E-04
 -3.69984798E-05  3.14017541E-04 -1.12162261E-03  3.11555041E-05  4.09175393E-06
 -4.17886920E-06  2.66290192E-04  3.80692377E-05 -4.21328305E-05 -5.88346928E-06
  2.00786296E-04 -1.44281493E-02 -1.18590186E-04  7.23155340E-05 -1.86756699E-04
  4.18350364E-05  1.11744636E-03 -2.57068894E-03  4.77823596E-06  2.36745546E-04
 -1.92045498E-02  2.20195743E-04  1.65617246E-05 -1.23037827E-06  2.79454122E-03
  5.92442767E-04 -8.99203011E-04  4.67807780E-01  6.12806416E-01  1.87072581E-02
 -1.01841294E-02  2.33771048E-02 -3.47561530E-04  6.25002415E-04  5.64670174E-05
 -2.38182858E-05 -8.74885904E-04 -1.06074501E-04  9.70245167E-05 -2.84099002E-03
 -9.25436364E-04  1.65796366E-03  2.62504663E-04  7.46569862E-05 -6.44242184E-04
  7.57361389E-04  9.91696829E-05  2.54572302E-04  1.18828456E-04 -1.77731295E-04
 -8.36878874E-05 -5.85611285E-05  2.14863286E-03  1.06732562E-05 -1.86633824E-03
 -2.25587152E-04  2.19114355E-05  7.65358161E-05 -4.48294386E-04 -7.74965402E-05
 -1.22334149E-04  2.91859644E-04  1.03104874E-04  6.10184753E-05 -1.95829044E-05
  1.46034869E-05  2.09251986E-05 -4.87376562E-06  2.89078755E-03 -1.04625429E-04
  6.13352246E-05  1.34007958E-06  7.24597374E-06 -3.13942495E-05  2.09317856E-06
 -1.01151682E-05 -9.96847944E-05 -2.98749071E-05  5.20612737E-05 -3.67905281E-04
  9.06433834E-05 -2.71016419E-04 -6.68316695E-04  6.32436612E-04 -1.57228782E-03
 -1.61255310E-04 -1.45842649E-05  6.31284923E-06 -1.06002850E-05 -2.59058115E-05
  2.19247818E-05 -2.75608773E-05  6.53000307E-06  1.36904435E-04  7.74736503E-05
 -1.40930442E-04  4.16757248E-05 -2.31469535E-05 -1.55978156E-05  8.21755768E-04
  2.57687603E-04 -2.87160912E-04 -4.08379990E-04 -2.63133514E-05 -1.27829788E-04