0003_q000_m01_k00_opt_uwb97xd_def2svpd/0003_q000_m01_k00_force_uhf_def2t
Force     UHF                                                         Gen                 
Number of atoms                            I                7
Info1-9                                    I   N=           9
          13           9           0           0           0         100
           5           1           2
Full Title                                 C   N=           8
0003_q000_m01_k00_opt_uwb97xd_def2svpd/0003_q000_m01_k00_for
ce_uhf_def2tzvp stable-force        
Route                                      C   N=          15
#p uhf/chkbasis force guess=read geom=check scf=(maxcycle=90
0,verytightlineq,xqc) integral=grid=ultrafine symmetry=None 
density=current pop=(cm5,hlygat,mbs,npa) output=wfx         
Charge                                     I                0
Multiplicity                               I                1
Number of electrons                        I               32
Number of alpha electrons                  I               16
Number of beta electrons                   I               16
Number of basis functions                  I              123
Number of independent functions            I              123
Number of point charges in /Mol/           I                0
Number of translation vectors              I                0
Atomic numbers                             I   N=           7
           6          16           6           1           1           1
           1
Nuclear charges                            R   N=           7
  6.00000000E+00  1.60000000E+01  6.00000000E+00  1.00000000E+00  1.00000000E+00
  1.00000000E+00  1.00000000E+00
Current cartesian coordinates              R   N=          21
  1.85917402E+00 -6.15268432E-02  9.23282726E-02  4.92676194E+00  1.87460277E-01
  3.55239128E-02  6.09875638E+00  1.39121255E+00 -2.54358053E+00  1.07793953E+00
 -8.64605860E-01  1.81365494E+00  6.49701559E-01  5.25765681E-01 -1.46546666E+00
  4.94204756E+00  1.99646575E+00 -4.13423228E+00  8.14558359E+00  1.55646016E+00
 -2.58103217E+00
Number of symbols in /Mol/                 I                0
Int Atom Types                             I   N=           7
           0           0           0           0           0           0
           0
Force Field                                I                0
Atom Types                                 C   N=           7
                                                            
                        
MM charges                                 R   N=           7
  0.00000000E+00  0.00000000E+00  0.00000000E+00  0.00000000E+00  0.00000000E+00
  0.00000000E+00  0.00000000E+00
Integer atomic weights                     I   N=           7
          12          32          12           1           1           1
           1
Real atomic weights                        R   N=           7
  1.20000000E+01  3.19720718E+01  1.20000000E+01  1.00782504E+00  1.00782504E+00
  1.00782504E+00  1.00782504E+00
Atom fragment info                         I   N=           7
           0           0           0           0           0           0
           0
Atom residue num                           I   N=           7
           0           0           0           0           0           0
           0
Nuclear spins                              I   N=           7
           0           0           0           1           1           1
           1
Nuclear ZEff                               R   N=           7
 -3.60000000E+00 -1.36000000E+01 -3.60000000E+00 -1.00000000E+00 -1.00000000E+00
 -1.00000000E+00 -1.00000000E+00
Nuclear ZNuc                               R   N=           7
  6.00000000E+00  1.60000000E+01  6.00000000E+00  1.00000000E+00  1.00000000E+00
  1.00000000E+00  1.00000000E+00
Nuclear QMom                               R   N=           7
  0.00000000E+00  0.00000000E+00  0.00000000E+00  0.00000000E+00  0.00000000E+00
  0.00000000E+00  0.00000000E+00
Nuclear GFac                               R   N=           7
  0.00000000E+00  0.00000000E+00  0.00000000E+00  2.79284600E+00  2.79284600E+00
  2.79284600E+00  2.79284600E+00
MicOpt                                     I   N=           7
          -1          -1          -1          -1          -1          -1
          -1
Number of residues                         I                0
Number of secondary structures             I                0
Number of contracted shells                I               51
Number of primitive shells                 I               91
Pure/Cartesian d shells                    I                0
Pure/Cartesian f shells                    I                0
Highest angular momentum                   I                3
Largest degree of contraction              I                7
Shell types                                I   N=          51
           0           0           0           0           0           1
           1           1          -2          -2          -3           0
           0           0           0           0           1           1
           1           1           1          -2          -2          -3
           0           0           0           0           0           1
           1           1          -2          -2          -3           0
           0           0           1           0           0           0
           1           0           0           0           1           0
           0           0           1
Number of primitives per shell             I   N=          51
           6           2           1           1           1           4
           1           1           1           1           1           7
           3           2           1           1           5           1
           1           1           1           2           1           1
           6           2           1           1           1           4
           1           1           1           1           1           3
           1           1           1           3           1           1
           1           3           1           1           1           3
           1           1           1
Shell to atom map                          I   N=          51
           1           1           1           1           1           1
           1           1           1           1           1           2
           2           2           2           2           2           2
           2           2           2           2           2           2
           3           3           3           3           3           3
           3           3           3           3           3           4
           4           4           4           5           5           5
           5           6           6           6           6           7
           7           7           7
Primitive exponents                        R   N=          91
  1.35753497E+04  2.03523337E+03  4.63225624E+02  1.31200196E+02  4.28530159E+01
  1.55841858E+01  6.20671385E+00  2.57648965E+00  5.76963394E-01  2.29728314E-01
  9.51644400E-02  3.46972322E+01  7.95826228E+00  2.37808269E+00  8.14332082E-01
  2.88875473E-01  1.00568237E-01  1.09700000E+00  3.18000000E-01  7.61000000E-01
  6.07009281E+04  9.10261069E+03  2.07141660E+03  5.86024768E+02  1.90553950E+02
  6.76303843E+01  2.51273069E+01  1.12574630E+02  3.47955542E+01  6.51155562E+00
  3.23990323E+00  1.54771609E+00  4.05410301E-01  1.45506511E-01  5.64367160E+02
  1.33426244E+02  4.24682712E+01  1.56165276E+01  6.10939885E+00  2.44041602E+00
  8.38822013E-01  3.12887469E-01  1.07701090E-01  3.75600000E+00  8.12000000E-01
  2.73000000E-01  5.57000000E-01  1.35753497E+04  2.03523337E+03  4.63225624E+02
  1.31200196E+02  4.28530159E+01  1.55841858E+01  6.20671385E+00  2.57648965E+00
  5.76963394E-01  2.29728314E-01  9.51644400E-02  3.46972322E+01  7.95826228E+00
  2.37808269E+00  8.14332082E-01  2.88875473E-01  1.00568237E-01  1.09700000E+00
  3.18000000E-01  7.61000000E-01  3.40613410E+01  5.12357460E+00  1.16466260E+00
  3.27230410E-01  1.03072410E-01  8.00000000E-01  3.40613410E+01  5.12357460E+00
  1.16466260E+00  3.27230410E-01  1.03072410E-01  8.00000000E-01  3.40613410E+01
  5.12357460E+00  1.16466260E+00  3.27230410E-01  1.03072410E-01  8.00000000E-01
  3.40613410E+01  5.12357460E+00  1.16466260E+00  3.27230410E-01  1.03072410E-01
  8.00000000E-01
Contraction coefficients                   R   N=          91
  6.06455036E-04  4.69790889E-03  2.43324776E-02  9.73999683E-02  3.01955843E-01
  6.62336091E-01  6.55953085E-01  3.75856333E-01  1.00000000E+00  1.00000000E+00
  1.00000000E+00  1.13272200E-02  7.61696592E-02  3.01922522E-01  7.27850273E-01
  1.00000000E+00  1.00000000E+00  1.00000000E+00  1.00000000E+00  1.00000000E+00
  5.23800749E-04  4.05063268E-03  2.08270042E-02  8.14968503E-02  2.37491138E-01
  4.47261715E-01  3.48919184E-01  1.00455699E-01  4.33911729E-01 -1.20843306E+00
  6.74981294E-01  3.47087958E-01  1.00000000E+00  1.00000000E+00  3.48869236E-03
  2.76851268E-02  1.26594002E-01  3.61659257E-01  6.12220344E-01  1.00000000E+00
  1.00000000E+00  1.00000000E+00  1.00000000E+00  1.82851975E-01  9.14259873E-01
  1.00000000E+00  1.00000000E+00  6.06455036E-04  4.69790889E-03  2.43324776E-02
  9.73999683E-02  3.01955843E-01  6.62336091E-01  6.55953085E-01  3.75856333E-01
  1.00000000E+00  1.00000000E+00  1.00000000E+00  1.13272200E-02  7.61696592E-02
  3.01922522E-01  7.27850273E-01  1.00000000E+00  1.00000000E+00  1.00000000E+00
  1.00000000E+00  1.00000000E+00  2.54393072E-02  1.90085949E-01  8.52441130E-01
  1.00000000E+00  1.00000000E+00  1.00000000E+00  2.54393072E-02  1.90085949E-01
  8.52441130E-01  1.00000000E+00  1.00000000E+00  1.00000000E+00  2.54393072E-02
  1.90085949E-01  8.52441130E-01  1.00000000E+00  1.00000000E+00  1.00000000E+00
  2.54393072E-02  1.90085949E-01  8.52441130E-01  1.00000000E+00  1.00000000E+00
  1.00000000E+00
Coordinates of each shell                  R   N=         153
  1.85917402E+00 -6.15268432E-02  9.23282726E-02  1.85917402E+00 -6.15268432E-02
  9.23282726E-02  1.85917402E+00 -6.15268432E-02  9.23282726E-02  1.85917402E+00
 -6.15268432E-02  9.23282726E-02  1.85917402E+00 -6.15268432E-02  9.23282726E-02
  1.85917402E+00 -6.15268432E-02  9.23282726E-02  1.85917402E+00 -6.15268432E-02
  9.23282726E-02  1.85917402E+00 -6.15268432E-02  9.23282726E-02  1.85917402E+00
 -6.15268432E-02  9.23282726E-02  1.85917402E+00 -6.15268432E-02  9.23282726E-02
  1.85917402E+00 -6.15268432E-02  9.23282726E-02  4.92676194E+00  1.87460277E-01
  3.55239128E-02  4.92676194E+00  1.87460277E-01  3.55239128E-02  4.92676194E+00
  1.87460277E-01  3.55239128E-02  4.92676194E+00  1.87460277E-01  3.55239128E-02
  4.92676194E+00  1.87460277E-01  3.55239128E-02  4.92676194E+00  1.87460277E-01
  3.55239128E-02  4.92676194E+00  1.87460277E-01  3.55239128E-02  4.92676194E+00
  1.87460277E-01  3.55239128E-02  4.92676194E+00  1.87460277E-01  3.55239128E-02
  4.92676194E+00  1.87460277E-01  3.55239128E-02  4.92676194E+00  1.87460277E-01
  3.55239128E-02  4.92676194E+00  1.87460277E-01  3.55239128E-02  4.92676194E+00
  1.87460277E-01  3.55239128E-02  6.09875638E+00  1.39121255E+00 -2.54358053E+00
  6.09875638E+00  1.39121255E+00 -2.54358053E+00  6.09875638E+00  1.39121255E+00
 -2.54358053E+00  6.09875638E+00  1.39121255E+00 -2.54358053E+00  6.09875638E+00
  1.39121255E+00 -2.54358053E+00  6.09875638E+00  1.39121255E+00 -2.54358053E+00
  6.09875638E+00  1.39121255E+00 -2.54358053E+00  6.09875638E+00  1.39121255E+00
 -2.54358053E+00  6.09875638E+00  1.39121255E+00 -2.54358053E+00  6.09875638E+00
  1.39121255E+00 -2.54358053E+00  6.09875638E+00  1.39121255E+00 -2.54358053E+00
  1.07793953E+00 -8.64605860E-01  1.81365494E+00  1.07793953E+00 -8.64605860E-01
  1.81365494E+00  1.07793953E+00 -8.64605860E-01  1.81365494E+00  1.07793953E+00
 -8.64605860E-01  1.81365494E+00  6.49701559E-01  5.25765681E-01 -1.46546666E+00
  6.49701559E-01  5.25765681E-01 -1.46546666E+00  6.49701559E-01  5.25765681E-01
 -1.46546666E+00  6.49701559E-01  5.25765681E-01 -1.46546666E+00  4.94204756E+00
  1.99646575E+00 -4.13423228E+00  4.94204756E+00  1.99646575E+00 -4.13423228E+00
  4.94204756E+00  1.99646575E+00 -4.13423228E+00  4.94204756E+00  1.99646575E+00
 -4.13423228E+00  8.14558359E+00  1.55646016E+00 -2.58103217E+00  8.14558359E+00
  1.55646016E+00 -2.58103217E+00  8.14558359E+00  1.55646016E+00 -2.58103217E+00
  8.14558359E+00  1.55646016E+00 -2.58103217E+00
Num ILSW                                   I              100
ILSW                                       I   N=         100
           1           0           0           0           2           0
           0           0           0           0           0          -1
           5           0           0           0           2           0
           0           0           0           0           1           0
           1           1           0           0           0           0
           0           0      100000           0          -1           0
           0           0           0           0           0           0
           0           0           0           1           0           0
           0 -2000000000           1           0           0           0
           0           0           4          52           0           0
           0           0           0           0           0           0
           0           0           0           7           0           1
           0           0           0           0           0           0
           0           0           0           0           0           0
           0           0           0           0           0           0
           0           0           0           0           0           0
           0           0           0           0
Num RLSW                                   I               52
RLSW                                       R   N=          52
  1.00000000E+00  1.00000000E+00  1.00000000E+00  1.00000000E+00  1.00000000E+00
  0.00000000E+00  0.00000000E+00  1.00000000E+00  0.00000000E+00  0.00000000E+00
  0.00000000E+00  0.00000000E+00  1.00000000E+00  0.00000000E+00  0.00000000E+00
  0.00000000E+00  0.00000000E+00  1.00000000E+00  0.00000000E+00  0.00000000E+00
  0.00000000E+00  0.00000000E+00  1.00000000E+00  0.00000000E+00  0.00000000E+00
  0.00000000E+00  0.00000000E+00  1.00000000E+00  0.00000000E+00  0.00000000E+00
  0.00000000E+00  0.00000000E+00  1.00000000E+00  0.00000000E+00  0.00000000E+00
  0.00000000E+00  0.00000000E+00  0.00000000E+00  1.00000000E+00  1.00000000E+00
  0.00000000E+00  1.00000000E+00  0.00000000E+00  0.00000000E+00  0.00000000E+00
  0.00000000E+00  0.00000000E+00  0.00000000E+00  0.00000000E+00  0.00000000E+00
  0.00000000E+00  0.00000000E+00
MxBond                                     I                3
NBond                                      I   N=           7
           3           2           3           1           1           1
           1
IBond                                      I   N=          21
           2           4           5           1           3           0
           2           6           7           1           0           0
           1           0           0           3           0           0
           3           0           0
RBond                                      R   N=          21
  2.00000000E+00  1.00000000E+00  1.00000000E+00  2.00000000E+00  2.00000000E+00
  0.00000000E+00  2.00000000E+00  1.00000000E+00  1.00000000E+00  1.00000000E+00
  0.00000000E+00  0.00000000E+00  1.00000000E+00  0.00000000E+00  0.00000000E+00
  1.00000000E+00  0.00000000E+00  0.00000000E+00  1.00000000E+00  0.00000000E+00
  0.00000000E+00
Virial Ratio                               R      1.999859253802819E+00
SCF Energy                                 R     -4.755475195853759E+02
Total Energy                               R     -4.755475195853759E+02
S**2                                       R      7.209944338690164E-01
S**2 after annihilation                    R      1.344737160822249E-01
RMS Force                                  R      1.510635359230346E-02
RMS Density                                R      3.880597452443595E-11
Job Status                                 I                1
Nuclear derivative order                   I                1
External E-field                           R   N=          35
  0.00000000E+00  0.00000000E+00  0.00000000E+00  0.00000000E+00  0.00000000E+00
  0.00000000E+00  0.00000000E+00  0.00000000E+00  0.00000000E+00  0.00000000E+00
  0.00000000E+00  0.00000000E+00  0.00000000E+00  0.00000000E+00  0.00000000E+00
  0.00000000E+00  0.00000000E+00  0.00000000E+00  0.00000000E+00  0.00000000E+00
  0.00000000E+00  0.00000000E+00  0.00000000E+00  0.00000000E+00  0.00000000E+00
  0.00000000E+00  0.00000000E+00  0.00000000E+00  0.00000000E+00  0.00000000E+00
  0.00000000E+00  0.00000000E+00  0.00000000E+00  0.00000000E+00  0.00000000E+00
IOpCl                                      I                1
IROHF                                      I                0
Alpha Orbital Energies                     R   N=         123
 -9.19851464E+01 -1.12500735E+01 -1.12306789E+01 -8.98904660E+00 -6.67125732E+00
 -6.66968498E+00 -6.66956621E+00 -1.11232391E+00 -9.39001179E-01 -7.64979802E-01
 -6.34278867E-01 -6.17766416E-01 -5.54553390E-01 -4.92851833E-01 -4.51178134E-01
 -3.12002472E-01  1.11256504E-01  1.67168970E-01  1.79755905E-01  1.89477775E-01
  2.19513642E-01  2.22530722E-01  2.74381556E-01  2.94571379E-01  3.36904011E-01
  3.37311529E-01  3.58317025E-01  3.88902466E-01  3.94968621E-01  4.06833835E-01
  4.59415999E-01  4.77842854E-01  5.58388123E-01  5.69085477E-01  5.94995106E-01
  6.05476469E-01  6.18198712E-01  6.38731415E-01  6.77307322E-01  7.30326874E-01
  7.68299689E-01  8.34465658E-01  8.78190872E-01  8.78749260E-01  9.46962461E-01
  9.67616261E-01  1.10966300E+00  1.15536549E+00  1.18522237E+00  1.19255285E+00
  1.20444962E+00  1.21846268E+00  1.31612643E+00  1.31826547E+00  1.57985435E+00
  1.67332981E+00  1.72470012E+00  1.76753580E+00  1.77565689E+00  1.81083777E+00
  1.83706842E+00  1.85015763E+00  1.85925449E+00  1.86629176E+00  1.87457100E+00
  1.91980330E+00  1.92321522E+00  1.97543513E+00  1.97572588E+00  2.03588253E+00
  2.04712387E+00  2.05958254E+00  2.09451562E+00  2.18486776E+00  2.22651894E+00
  2.25004195E+00  2.33659850E+00  2.36313576E+00  2.38534015E+00  2.43589886E+00
  2.45555904E+00  2.58220583E+00  2.61936701E+00  2.65579982E+00  2.76076939E+00
  2.82540977E+00  2.82796174E+00  2.88524152E+00  2.96247765E+00  3.00413829E+00
  3.03540104E+00  3.07520169E+00  3.16592692E+00  3.26179608E+00  3.31678374E+00
  3.39919270E+00  3.41190852E+00  3.45337019E+00  3.50015420E+00  3.53112228E+00
  3.58427307E+00  3.63515468E+00  3.63999932E+00  3.64652697E+00  3.67106281E+00
  3.80287268E+00  3.82180442E+00  3.83377836E+00  3.92127262E+00  3.94652468E+00
  4.01150055E+00  4.11020005E+00  4.24876191E+00  4.44783647E+00  4.45678543E+00
  4.78901150E+00  4.85646256E+00  9.56297618E+00  9.84579758E+00  1.02954796E+01
  2.13430379E+01  2.30024756E+01  2.30830131E+01
Beta Orbital Energies                      R   N=         123
 -9.19851468E+01 -1.12500619E+01 -1.12306891E+01 -8.98904700E+00 -6.67125735E+00
 -6.66968565E+00 -6.66956751E+00 -1.11232897E+00 -9.38991434E-01 -7.64983236E-01
 -6.34278625E-01 -6.17767437E-01 -5.54554371E-01 -4.92861466E-01 -4.51177755E-01
 -3.11984190E-01  1.11251597E-01  1.67170534E-01  1.79756659E-01  1.89477137E-01
  2.19518879E-01  2.22525708E-01  2.74381353E-01  2.94571052E-01  3.36903009E-01
  3.37311444E-01  3.58318096E-01  3.88904127E-01  3.94976850E-01  4.06833054E-01
  4.59413596E-01  4.77841109E-01  5.58388896E-01  5.69092441E-01  5.94994894E-01
  6.05461949E-01  6.18204196E-01  6.38726441E-01  6.77307108E-01  7.30328323E-01
  7.68299085E-01  8.34470410E-01  8.78188575E-01  8.78748487E-01  9.46966754E-01
  9.67609681E-01  1.10966326E+00  1.15538233E+00  1.18522177E+00  1.19253575E+00
  1.20444476E+00  1.21846918E+00  1.31613596E+00  1.31825619E+00  1.57985441E+00
  1.67333223E+00  1.72471952E+00  1.76753290E+00  1.77565046E+00  1.81082948E+00
  1.83706705E+00  1.85015798E+00  1.85925388E+00  1.86630191E+00  1.87455729E+00
  1.91979957E+00  1.92322023E+00  1.97542803E+00  1.97572977E+00  2.03588206E+00
  2.04714439E+00  2.05956361E+00  2.09451159E+00  2.18486755E+00  2.22651880E+00
  2.25004240E+00  2.33661393E+00  2.36311899E+00  2.38534132E+00  2.43590042E+00
  2.45555824E+00  2.58220828E+00  2.61936465E+00  2.65579972E+00  2.76077326E+00
  2.82539844E+00  2.82796803E+00  2.88523979E+00  2.96248071E+00  3.00414514E+00
  3.03539940E+00  3.07519603E+00  3.16593023E+00  3.26180047E+00  3.31678713E+00
  3.39922269E+00  3.41188015E+00  3.45337784E+00  3.50016095E+00  3.53111381E+00
  3.58427782E+00  3.63515038E+00  3.63999606E+00  3.64652210E+00  3.67106415E+00
  3.80292352E+00  3.82175305E+00  3.83377905E+00  3.92130814E+00  3.94649798E+00
  4.01150063E+00  4.11019844E+00  4.24875936E+00  4.44787462E+00  4.45674818E+00
  4.78901636E+00  4.85645873E+00  9.56297491E+00  9.84579726E+00  1.02954792E+01
  2.13430374E+01  2.30024846E+01  2.30830049E+01
Alpha MO coefficients                      R   N=       15129
  3.02427494E-06 -1.46106988E-05  7.14536325E-04 -2.49926661E-03 -1.45774457E-04
  1.84347310E-04  1.57939738E-05 -5.33923890E-06 -2.02229048E-03 -1.62803870E-04
  3.44202994E-05 -2.58325057E-04  2.43588016E-05 -9.97107245E-05  2.85104203E-05
  8.89103524E-06  6.17971765E-06 -5.85236774E-05 -1.26785793E-05  5.53889597E-04
 -1.62848640E-05 -5.19799305E-05 -8.56203492E-04 -1.17165168E-04 -1.81967777E-05
  1.76442235E-04  1.60888274E-05  2.20422512E-05  1.19226600E-05 -2.33394467E-04
 -6.47304514E-05  9.98641592E-01 -2.86415860E-02 -7.66458668E-03  3.07454125E-03
  2.85080540E-03 -6.24308127E-05  3.07835600E-05 -8.15341166E-05  2.58629669E-05
 -1.30173746E-05  3.43816008E-05  1.63830144E-04 -8.46875693E-05  2.23012054E-04
 -1.23334028E-03  6.24409511E-04 -1.64849804E-03 -1.38282335E-04  7.07691317E-05
 -1.86633799E-04  1.78490343E-05 -8.37229350E-05 -1.07866609E-04  1.52464088E-04
  6.23446325E-05  1.33369469E-05 -5.95282445E-04 -4.73820991E-04  7.36107659E-04
  3.82820059E-04 -6.58631532E-05  3.34604624E-04  1.71445336E-04  1.86373905E-05
 -1.38362329E-04 -2.31499417E-04 -3.05956218E-05  3.00741793E-06 -1.45160644E-05
  7.15818160E-04 -2.50627976E-03 -1.48646668E-04 -7.24865862E-05 -7.22840352E-05
  1.54523908E-04  7.71382648E-04  7.96124203E-04 -1.70642461E-03 -8.06327509E-06
  1.10533870E-04 -2.56284580E-04 -3.22895965E-05  3.90435422E-05  3.88105733E-05
 -8.75713816E-06 -1.95346847E-05 -6.00705281E-04  5.55435056E-04  5.68163637E-04
  8.78637832E-05 -2.47322861E-04 -5.37569890E-05  1.75747692E-04  1.80338996E-04
 -9.91969147E-06 -1.51317262E-04 -2.38438414E-05  3.53180745E-05 -5.74413785E-06
 -1.43258514E-04  5.89104273E-05 -2.65239396E-05 -3.00695546E-06  2.46518970E-06
  7.24644144E-06 -8.71625333E-05 -1.16540873E-04 -5.31765915E-05 -1.60836458E-05
  2.81074057E-05  7.09295748E-06 -8.73913537E-05 -1.16500787E-04  4.80700987E-05
  1.86642335E-05 -3.49713094E-05 -5.91257035E-06 -1.43133917E-04  5.90114095E-05
  1.21168203E-05  1.01890153E-05 -2.14489359E-05  4.67215991E-01  6.12358235E-01
  2.06692264E-02 -7.71610020E-03  4.55737473E-03  6.65258378E-04  6.21056403E-05
 -3.01662670E-05 -1.11847758E-03 -1.60660240E-04  1.81540738E-04  2.67709304E-05
  6.26521282E-05 -1.39480155E-04 -8.13847233E-05  1.72241502E-05  1.56986523E-04
 -1.47657919E-04 -3.41806153E-05  3.77190504E-04  8.89371104E-05 -2.86450645E-04
 -9.85558506E-05 -4.42600031E-05  8.74461270E-05 -4.96913597E-04 -8.99611085E-05
 -1.34868422E-04  3.11251270E-04  1.32997339E-04  7.18453551E-05 -1.42094289E-05
  6.22486670E-06 -8.10489864E-06  2.15259135E-04  1.42883589E-03  6.44713660E-05
  1.69688783E-06  6.95339500E-06 -4.73735627E-05  5.12240861E-06 -1.98092039E-05
 -6.19118413E-05 -4.11463891E-05  8.44591008E-05 -4.85514031E-04  1.18952548E-04
 -3.56172082E-04  7.16179079E-05  3.24861949E-04 -7.37353817E-04 -1.22257976E-05
 -1.73808167E-05  3.21404018E-05 -4.19867732E-05  3.63389351E-07  2.14722693E-04
 -3.31927132E-06 -2.35026494E-04  6.64695009E-05  1.86553123E-05 -3.73352463E-05
 -1.57852376E-04  4.49366810E-05  1.57467872E-05  4.40863934E-06  1.91460604E-04
  4.12208372E-05 -2.59720155E-04 -3.43871379E-04  5.64796338E-05 -1.85864666E-04
 -1.64896370E-03 -1.61042541E-05 -1.77568861E-05  3.82381095E-05  3.70531038E-04
  1.99111114E-04 -3.96857459E-04  6.95935158E-04  1.59652799E-04 -2.51019773E-04
  1.50953607E-05  1.25510486E-06 -1.51362511E-05  2.38841082E-06  2.80298357E-07
 -7.83240752E-05  1.95315082E-04  9.68828623E-05 -6.30773359E-06 -8.91814513E-05
  3.01799600E-05 -1.31930672E-05  2.35340224E-07 -4.23538248E-05 -8.53522787E-06
  1.48174758E-05  2.76505246E-05 -1.05632703E-04 -1.75341227E-04 -7.15044918E-04
 -1.43170130E-04 -1.61021454E-04  3.47458087E-04 -9.29375033E-05 -1.57501746E-04
 -9.43332339E-04 -2.42739209E-04  1.09823067E-04 -2.94058223E-04 -3.22652308E-05
 -1.80021508E-06  4.11260957E-04 -1.02372593E-05  1.10737782E-05 -2.72471346E-05
 -2.61497097E-06 -2.03796772E-04 -6.12905040E-05  5.64192598E-05  4.16654258E-06
 -1.39776918E-07  2.64396371E-04  3.42145461E-04  9.27747996E-05 -3.13087661E-04
 -1.22934490E-03  4.57724388E-05  3.48240543E-06 -3.03189196E-07 -6.10535552E-04
 -1.17350874E-04  1.67772771E-04 -3.74098818E-04 -1.55867341E-04  2.96377319E-04
 -3.64497033E-06  1.34266019E-05 -8.16708337E-07  1.04093498E-05 -4.29882720E-06
  1.66787290E-04  7.56844488E-05 -5.10949061E-05 -1.76152508E-04 -5.72644610E-05
 -2.23245893E-05 -2.85730677E-05  5.15929431E-06  2.18809127E-05  3.48953824E-05
 -8.56738807E-06 -1.59142781E-05 -1.89749378E-05  1.32667603E-05  1.64381766E-05
  1.95037887E-04  1.10399215E-03 -1.34081605E-05 -2.56164472E-05  5.68329590E-05
 -8.20450732E-06  1.62790650E-05 -3.89339493E-05  1.41572661E-04  4.30017358E-05
 -7.53176716E-05 -3.90329003E-04  6.89434090E-05 -2.24905075E-04 -6.57985613E-04
  2.37577649E-06 -1.16491858E-04 -3.53057647E-05  5.46642393E-06  5.22564652E-05
 -3.51317105E-05 -9.21134117E-06 -1.87641244E-04  1.91546633E-04  4.71694930E-05
  2.72247934E-04 -4.49375074E-05  9.32243773E-05 -1.38172208E-04 -1.73989467E-04
 -4.65444562E-05  1.38461975E-04 -2.41637402E-05 -1.31332902E-05  4.67794642E-01
  6.12887610E-01  1.76603866E-02 -5.77581076E-03  3.09161755E-03 -2.52507243E-04
 -2.43523381E-04  5.18822368E-04  4.04938851E-04  2.76099419E-04 -5.68797239E-04
 -8.42280198E-05 -2.32341448E-05  3.93497203E-05  3.09185569E-04  6.24048600E-05
 -6.89283515E-04  7.58170037E-04  1.05784883E-04 -5.58838957E-05  2.31346100E-04
 -7.19329624E-05  2.74736542E-04 -5.83212713E-05  4.19518544E-05 -5.28259764E-04
  2.31489203E-05 -1.34723379E-04  2.40270909E-04  2.62870962E-04  1.21867861E-04
 -1.14995800E-05 -2.18973046E-04  2.29029442E-05 -1.99472913E-05 -2.31868853E-05
  5.01401923E-05 -2.88062744E-05 -5.99309748E-05  2.71522739E-04 -3.49755385E-05
  5.68621409E-06 -1.89726177E-05 -8.77232732E-05 -2.10529530E-04 -5.28753057E-04
 -2.27813316E-04  1.21751833E-04 -3.19154046E-04 -9.50033146E-05 -2.39911525E-04
 -4.07743513E-04  4.17382166E-04  2.71453615E-05  7.47845099E-06 -1.36134760E-04
 -2.28433082E-04  5.52455542E-04 -1.51118586E-03  8.00097236E-04  2.56136540E-04
  2.18870358E-05 -7.26890377E-06 -1.21290943E-03 -7.68953178E-05 -2.72267171E-05
  1.53150342E-04  2.69575398E-05 -3.62655035E-05 -7.74269931E-06 -1.94777626E-06
  4.67651355E-06  4.22592855E-06  1.32547196E-06  2.93000607E-04 -3.80922838E-05
 -3.50550751E-05 -4.44784022E-04 -4.77187713E-05  1.96449144E-05 -3.20031905E-05
 -8.72842719E-06 -2.81892426E-05  3.03593858E-05 -1.27458249E-05  9.47681838E-06
 -2.87517795E-01 -2.48175887E-01  8.05955706E-01  1.47981517E-02 -1.44112651E-03
 -1.68588885E-03  1.01909259E-03 -2.63542390E-03 -1.62935918E-03  8.22647974E-04
 -2.17231546E-03  7.25774999E-05  1.43044845E-04 -3.17761901E-04 -9.90017404E-04
  3.87693892E-04 -1.06138057E-03  1.32242405E-04 -1.36463848E-04  3.37102571E-04
 -1.45791485E-05 -3.31998922E-04 -1.58839865E-04  2.53116821E-04  1.87051381E-04
 -3.14414796E-05 -2.42038517E-04 -2.53352447E-04  4.74811256E-04  1.83355226E-04
 -8.05290932E-05  4.18301501E-04  1.44085538E-04  5.45335986E-05 -9.35618001E-05
 -3.86837768E-04 -9.32661339E-05 -1.40471099E-04 -2.37480692E-04  5.00960476E-04
 -1.22680882E-03  1.00237316E-03 -9.75444088E-05 -9.62954850E-05  2.05683079E-04
  3.37554812E-04  3.82665052E-04 -8.25802161E-04 -1.02751892E-04 -8.90919821E-05
  1.88135399E-04  9.27828155E-06 -1.33290043E-05 -7.90687699E-06 -3.90647474E-06
  5.49304950E-06 -2.77478870E-04  2.25605150E-04  2.53172913E-04  5.16187710E-05
 -9.88492743E-05 -1.07507929E-05 -3.48258616E-05  1.81808212E-05 -2.81796575E-07
  1.45025504E-05  2.01775342E-05  6.26464702E-06 -5.15246617E-05 -8.77123765E-05
 -1.51784476E-04  1.48698977E-05 -9.51781928E-06  2.44761428E-05 -5.10032127E-05
 -8.47873624E-05 -1.55683442E-04 -2.24820542E-05  6.37182555E-06 -1.84872157E-05
 -4.15776572E-05 -7.61654763E-05 -1.59075978E-04 -6.30012886E-06  8.62703311E-06
 -2.09702692E-05 -4.13580465E-05 -9.98899135E-05 -1.67896249E-04  2.06151759E-05
 -3.71789140E-06  1.20414164E-05 -1.08649704E-04 -2.04949955E-04 -9.80700184E-05
  4.04701729E-03 -3.90865674E-04  2.44236276E-04  2.99392396E-05 -2.78959829E-05
  3.87339142E-03 -1.56770391E-05  6.89068846E-04 -2.32963414E-04  1.22563580E-04
 -3.21836756E-04 -2.61536102E-05 -4.87924675E-05 -2.82314191E-05  8.74153999E-05
  3.50191790E-05 -9.85630221E-04  5.02611549E-04  4.44675202E-04  9.65903282E-04
 -9.12458495E-05  3.76937079E-05  6.33075675E-05 -4.40052317E-05 -2.17197099E-05
 -2.39300096E-06 -7.78814331E-05 -1.17035633E-05 -9.22451085E-04 -1.03870183E-03
  2.94327472E-03 -2.01718567E-03  2.88426897E-03 -3.22526172E-01 -2.72944743E-01
  5.74834512E-01 -1.57999941E-01 -1.33519886E-01  2.81160891E-01 -2.90439445E-02