0003_q000_m01_k00_opt_uwb97xd_def2svpd/0003_q000_m01_k00_force_uhf_def2s
Force     UHF                                                         Gen                 
Number of atoms                            I                7
Info1-9                                    I   N=           9
          13           9           0           0           0         100
           5           1           2
Full Title                                 C   N=           8
0003_q000_m01_k00_opt_uwb97xd_def2svpd/0003_q000_m01_k00_for
ce_uhf_def2svp stable-force         
Route                                      C   N=          15
#p uhf/chkbasis force guess=read geom=check scf=(maxcycle=90
0,verytightlineq,xqc) integral=grid=ultrafine symmetry=None 
density=current pop=(cm5,hlygat,mbs,npa) output=wfx         
Charge                                     I                0
Multiplicity                               I                1
Number of electrons                        I               32
Number of alpha electrons                  I               16
Number of beta electrons                   I               16
Number of basis functions                  I               66
Number of independent functions            I               66
Number of point charges in /Mol/           I                0
Number of translation vectors              I                0
Atomic numbers                             I   N=           7
           6          16           6           1           1           1
           1
Nuclear charges                            R   N=           7
  6.00000000E+00  1.60000000E+01  6.00000000E+00  1.00000000E+00  1.00000000E+00
  1.00000000E+00  1.00000000E+00
Current cartesian coordinates              R   N=          21
  1.85917402E+00 -6.15268432E-02  9.23282726E-02  4.92676194E+00  1.87460277E-01
  3.55239128E-02  6.09875638E+00  1.39121255E+00 -2.54358053E+00  1.07793953E+00
 -8.64605860E-01  1.81365494E+00  6.49701559E-01  5.25765681E-01 -1.46546666E+00
  4.94204756E+00  1.99646575E+00 -4.13423228E+00  8.14558359E+00  1.55646016E+00
 -2.58103217E+00
Number of symbols in /Mol/                 I                0
Int Atom Types                             I   N=           7
           0           0           0           0           0           0
           0
Force Field                                I                0
Atom Types                                 C   N=           7
                                                            
                        
MM charges                                 R   N=           7
  0.00000000E+00  0.00000000E+00  0.00000000E+00  0.00000000E+00  0.00000000E+00
  0.00000000E+00  0.00000000E+00
Integer atomic weights                     I   N=           7
          12          32          12           1           1           1
           1
Real atomic weights                        R   N=           7
  1.20000000E+01  3.19720718E+01  1.20000000E+01  1.00782504E+00  1.00782504E+00
  1.00782504E+00  1.00782504E+00
Atom fragment info                         I   N=           7
           0           0           0           0           0           0
           0
Atom residue num                           I   N=           7
           0           0           0           0           0           0
           0
Nuclear spins                              I   N=           7
           0           0           0           1           1           1
           1
Nuclear ZEff                               R   N=           7
 -3.60000000E+00 -1.36000000E+01 -3.60000000E+00 -1.00000000E+00 -1.00000000E+00
 -1.00000000E+00 -1.00000000E+00
Nuclear ZNuc                               R   N=           7
  6.00000000E+00  1.60000000E+01  6.00000000E+00  1.00000000E+00  1.00000000E+00
  1.00000000E+00  1.00000000E+00
Nuclear QMom                               R   N=           7
  0.00000000E+00  0.00000000E+00  0.00000000E+00  0.00000000E+00  0.00000000E+00
  0.00000000E+00  0.00000000E+00
Nuclear GFac                               R   N=           7
  0.00000000E+00  0.00000000E+00  0.00000000E+00  2.79284600E+00  2.79284600E+00
  2.79284600E+00  2.79284600E+00
MicOpt                                     I   N=           7
          -1          -1          -1          -1          -1          -1
          -1
Number of residues                         I                0
Number of secondary structures             I                0
Number of contracted shells                I               32
Number of primitive shells                 I               62
Pure/Cartesian d shells                    I                0
Pure/Cartesian f shells                    I                0
Highest angular momentum                   I                2
Largest degree of contraction              I                5
Shell types                                I   N=          32
           0           0           0           1           1          -2
           0           0           0           0           1           1
           1          -2           0           0           0           1
           1          -2           0           0           1           0
           0           1           0           0           1           0
           0           1
Number of primitives per shell             I   N=          32
           5           1           1           3           1           1
           5           3           1           1           5           1
           1           1           5           1           1           3
           1           1           3           1           1           3
           1           1           3           1           1           3
           1           1
Shell to atom map                          I   N=          32
           1           1           1           1           1           1
           2           2           2           2           2           2
           2           2           3           3           3           3
           3           3           4           4           4           5
           5           5           6           6           6           7
           7           7
Primitive exponents                        R   N=          62
  1.23840169E+03  1.86290050E+02  4.22511763E+01  1.16765579E+01  3.59305065E+00
  4.02451474E-01  1.30901827E-01  9.46809706E+00  2.01035451E+00  5.47710047E-01
  1.52686138E-01  8.00000000E-01  9.18493030E+03  1.38151055E+03  3.13871476E+02
  8.80538706E+01  2.70399149E+01  4.56487313E+01  4.96645223E+00  2.01162420E+00
  3.56610770E-01  1.35072215E-01  2.61982334E+02  6.13068947E+01  1.91037299E+01
  6.65677204E+00  2.39596352E+00  6.17761617E-01  1.69933769E-01  5.50000000E-01
  1.23840169E+03  1.86290050E+02  4.22511763E+01  1.16765579E+01  3.59305065E+00
  4.02451474E-01  1.30901827E-01  9.46809706E+00  2.01035451E+00  5.47710047E-01
  1.52686138E-01  8.00000000E-01  1.30107010E+01  1.96225720E+00  4.44537960E-01
  1.21949620E-01  8.00000000E-01  1.30107010E+01  1.96225720E+00  4.44537960E-01
  1.21949620E-01  8.00000000E-01  1.30107010E+01  1.96225720E+00  4.44537960E-01
  1.21949620E-01  8.00000000E-01  1.30107010E+01  1.96225720E+00  4.44537960E-01
  1.21949620E-01  8.00000000E-01
Contraction coefficients                   R   N=          62
  5.51736505E-03  4.10888286E-02  1.82253821E-01  4.68284594E-01  4.45758173E-01
  1.00000000E+00  1.00000000E+00  5.68883320E-02  3.12940593E-01  7.60650165E-01
  1.00000000E+00  1.00000000E+00 -5.47294661E-03 -4.09544022E-02 -1.84758290E-01
 -4.75672806E-01 -4.34951536E-01 -9.19040458E-02  5.56987772E-01  5.11154683E-01
  1.00000000E+00  1.00000000E+00 -9.18305466E-03 -6.59022265E-02 -2.45877845E-01
 -4.82314711E-01 -3.89563144E-01  1.00000000E+00  1.00000000E+00  1.00000000E+00
  5.51736505E-03  4.10888286E-02  1.82253821E-01  4.68284594E-01  4.45758173E-01
  1.00000000E+00  1.00000000E+00  5.68883320E-02  3.12940593E-01  7.60650165E-01
  1.00000000E+00  1.00000000E+00  3.34854848E-02  2.34721871E-01  8.13770285E-01
  1.00000000E+00  1.00000000E+00  3.34854848E-02  2.34721871E-01  8.13770285E-01
  1.00000000E+00  1.00000000E+00  3.34854848E-02  2.34721871E-01  8.13770285E-01
  1.00000000E+00  1.00000000E+00  3.34854848E-02  2.34721871E-01  8.13770285E-01
  1.00000000E+00  1.00000000E+00
Coordinates of each shell                  R   N=          96
  1.85917402E+00 -6.15268432E-02  9.23282726E-02  1.85917402E+00 -6.15268432E-02
  9.23282726E-02  1.85917402E+00 -6.15268432E-02  9.23282726E-02  1.85917402E+00
 -6.15268432E-02  9.23282726E-02  1.85917402E+00 -6.15268432E-02  9.23282726E-02
  1.85917402E+00 -6.15268432E-02  9.23282726E-02  4.92676194E+00  1.87460277E-01
  3.55239128E-02  4.92676194E+00  1.87460277E-01  3.55239128E-02  4.92676194E+00
  1.87460277E-01  3.55239128E-02  4.92676194E+00  1.87460277E-01  3.55239128E-02
  4.92676194E+00  1.87460277E-01  3.55239128E-02  4.92676194E+00  1.87460277E-01
  3.55239128E-02  4.92676194E+00  1.87460277E-01  3.55239128E-02  4.92676194E+00
  1.87460277E-01  3.55239128E-02  6.09875638E+00  1.39121255E+00 -2.54358053E+00
  6.09875638E+00  1.39121255E+00 -2.54358053E+00  6.09875638E+00  1.39121255E+00
 -2.54358053E+00  6.09875638E+00  1.39121255E+00 -2.54358053E+00  6.09875638E+00
  1.39121255E+00 -2.54358053E+00  6.09875638E+00  1.39121255E+00 -2.54358053E+00
  1.07793953E+00 -8.64605860E-01  1.81365494E+00  1.07793953E+00 -8.64605860E-01
  1.81365494E+00  1.07793953E+00 -8.64605860E-01  1.81365494E+00  6.49701559E-01
  5.25765681E-01 -1.46546666E+00  6.49701559E-01  5.25765681E-01 -1.46546666E+00
  6.49701559E-01  5.25765681E-01 -1.46546666E+00  4.94204756E+00  1.99646575E+00
 -4.13423228E+00  4.94204756E+00  1.99646575E+00 -4.13423228E+00  4.94204756E+00
  1.99646575E+00 -4.13423228E+00  8.14558359E+00  1.55646016E+00 -2.58103217E+00
  8.14558359E+00  1.55646016E+00 -2.58103217E+00  8.14558359E+00  1.55646016E+00
 -2.58103217E+00
Num ILSW                                   I              100
ILSW                                       I   N=         100
           1           0           0           0           2           0
           0           0           0           0           0          -1
           5           0           0           0           2           0
           0           0           0           0           1           0
           1           1           0           0           0           0
           0           0      100000           0          -1           0
           0           0           0           0           0           0
           0           0           0           1           0           0
           0 -2000000000           1           0           0           0
           0           0           4          52           0           0
           0           0           0           0           0           0
           0           0           0           7           0           1
           0           0           0           0           0           0
           0           0           0           0           0           0
           0           0           0           0           0           0
           0           0           0           0           0           0
           0           0           0           0
Num RLSW                                   I               52
RLSW                                       R   N=          52
  1.00000000E+00  1.00000000E+00  1.00000000E+00  1.00000000E+00  1.00000000E+00
  0.00000000E+00  0.00000000E+00  1.00000000E+00  0.00000000E+00  0.00000000E+00
  0.00000000E+00  0.00000000E+00  1.00000000E+00  0.00000000E+00  0.00000000E+00
  0.00000000E+00  0.00000000E+00  1.00000000E+00  0.00000000E+00  0.00000000E+00
  0.00000000E+00  0.00000000E+00  1.00000000E+00  0.00000000E+00  0.00000000E+00
  0.00000000E+00  0.00000000E+00  1.00000000E+00  0.00000000E+00  0.00000000E+00
  0.00000000E+00  0.00000000E+00  1.00000000E+00  0.00000000E+00  0.00000000E+00
  0.00000000E+00  0.00000000E+00  0.00000000E+00  1.00000000E+00  1.00000000E+00
  0.00000000E+00  1.00000000E+00  0.00000000E+00  0.00000000E+00  0.00000000E+00
  0.00000000E+00  0.00000000E+00  0.00000000E+00  0.00000000E+00  0.00000000E+00
  0.00000000E+00  0.00000000E+00
MxBond                                     I                3
NBond                                      I   N=           7
           3           2           3           1           1           1
           1
IBond                                      I   N=          21
           2           4           5           1           3           0
           2           6           7           1           0           0
           1           0           0           3           0           0
           3           0           0
RBond                                      R   N=          21
  2.00000000E+00  1.00000000E+00  1.00000000E+00  2.00000000E+00  2.00000000E+00
  0.00000000E+00  2.00000000E+00  1.00000000E+00  1.00000000E+00  1.00000000E+00
  0.00000000E+00  0.00000000E+00  1.00000000E+00  0.00000000E+00  0.00000000E+00
  1.00000000E+00  0.00000000E+00  0.00000000E+00  1.00000000E+00  0.00000000E+00
  0.00000000E+00
Virial Ratio                               R      2.000414125821158E+00
SCF Energy                                 R     -4.753132371422165E+02
Total Energy                               R     -4.753132371422165E+02
S**2                                       R      7.475438061895563E-01
S**2 after annihilation                    R      1.073841810528819E-01
RMS Force                                  R      1.741232655166158E-02
RMS Density                                R      9.259073784453444E-09
Job Status                                 I                1
Nuclear derivative order                   I                1
External E-field                           R   N=          35
  0.00000000E+00  0.00000000E+00  0.00000000E+00  0.00000000E+00  0.00000000E+00
  0.00000000E+00  0.00000000E+00  0.00000000E+00  0.00000000E+00  0.00000000E+00
  0.00000000E+00  0.00000000E+00  0.00000000E+00  0.00000000E+00  0.00000000E+00
  0.00000000E+00  0.00000000E+00  0.00000000E+00  0.00000000E+00  0.00000000E+00
  0.00000000E+00  0.00000000E+00  0.00000000E+00  0.00000000E+00  0.00000000E+00
  0.00000000E+00  0.00000000E+00  0.00000000E+00  0.00000000E+00  0.00000000E+00
  0.00000000E+00  0.00000000E+00  0.00000000E+00  0.00000000E+00  0.00000000E+00
IOpCl                                      I                1
IROHF                                      I                0
Alpha Orbital Energies                     R   N=          66
 -9.19502929E+01 -1.12544303E+01 -1.12330841E+01 -8.98738871E+00 -6.67597804E+00
 -6.67341428E+00 -6.67277639E+00 -1.11073085E+00 -9.30256234E-01 -7.59249902E-01
 -6.35596420E-01 -6.18514270E-01 -5.55058978E-01 -4.95406421E-01 -4.49076007E-01
 -3.10926576E-01  1.31449003E-01  1.96180878E-01  2.17155867E-01  2.23098420E-01
  2.58521850E-01  3.20552816E-01  3.77723927E-01  4.74907014E-01  5.74936767E-01
  5.79854624E-01  6.54451317E-01  6.78998089E-01  6.85440738E-01  7.32126564E-01
  7.87110503E-01  8.65564389E-01  8.68272443E-01  8.85860788E-01  8.94528259E-01
  9.07638734E-01  9.21403397E-01  9.90359987E-01  1.02619443E+00  1.03909844E+00
  1.15102719E+00  1.27246638E+00  1.37313688E+00  1.42369080E+00  1.46341343E+00
  1.47036276E+00  1.81811714E+00  1.82063513E+00  1.82979400E+00  1.84930600E+00
  1.94770550E+00  1.96098263E+00  2.26944429E+00  2.29763203E+00  2.32100576E+00
  2.33787271E+00  2.36926011E+00  2.41378009E+00  2.51794426E+00  2.55700556E+00
  2.69486244E+00  2.76105562E+00  3.18137053E+00  3.22568610E+00  3.24923559E+00
  3.26387745E+00
Beta Orbital Energies                      R   N=          66
 -9.19502932E+01 -1.12544188E+01 -1.12330943E+01 -8.98738909E+00 -6.67597819E+00
 -6.67341479E+00 -6.67277759E+00 -1.11073600E+00 -9.30246612E-01 -7.59253564E-01
 -6.35596037E-01 -6.18515303E-01 -5.55059795E-01 -4.95416287E-01 -4.49075867E-01
 -3.10907773E-01  1.31443608E-01  1.96183301E-01  2.17159571E-01  2.23094558E-01
  2.58524002E-01  3.20552833E-01  3.77721040E-01  4.74906660E-01  5.74939925E-01
  5.79851696E-01  6.54457948E-01  6.78998480E-01  6.85433331E-01  7.32126649E-01
  7.87127948E-01  8.65560786E-01  8.68277054E-01  8.85856819E-01  8.94514102E-01
  9.07636860E-01  9.21406465E-01  9.90363257E-01  1.02618885E+00  1.03909530E+00
  1.15102652E+00  1.27246620E+00  1.37313986E+00  1.42370051E+00  1.46340568E+00
  1.47035565E+00  1.81811430E+00  1.82064921E+00  1.82979700E+00  1.84929415E+00
  1.94771789E+00  1.96096833E+00  2.26945828E+00  2.29763225E+00  2.32104909E+00
  2.33786458E+00  2.36921972E+00  2.41378034E+00  2.51793044E+00  2.55702118E+00
  2.69487877E+00  2.76103983E+00  3.18137486E+00  3.22566911E+00  3.24925031E+00
  3.26387668E+00
Alpha MO coefficients                      R   N=        4356
  1.10377949E-04 -4.95009984E-04  2.74905391E-03 -3.78063551E-04 -3.16434653E-05
  9.19432418E-06  9.04588622E-04  3.24136524E-04 -5.94898269E-04  3.01979181E-04
 -5.10684379E-05 -2.08758178E-05 -4.89020140E-04 -4.90012783E-05  9.94291825E-01
 -2.15140602E-02  9.80904498E-03 -8.84909107E-03 -1.23406421E-04  6.22901196E-05
 -1.64504786E-04 -4.15564433E-04  2.10882470E-04 -5.56561706E-04  1.20281141E-03
 -6.05448360E-04  1.59947392E-03 -4.94023458E-05 -1.74385611E-04 -3.54270795E-06
  5.66262842E-05  8.44497453E-05  1.10523744E-04 -4.96514577E-04  2.75090260E-03
  1.47124829E-04  1.48515171E-04 -3.17818764E-04 -9.38610091E-04 -3.07230495E-04
  5.50641104E-04 -3.60505895E-04  2.76685475E-04  3.35133244E-04  5.23091595E-05
 -1.23596860E-04 -6.00351143E-05  2.62403461E-04  2.35734993E-05  4.57595111E-06
 -6.61599483E-06 -1.62142394E-04 -4.61767765E-04 -5.94248316E-05 -3.19394331E-05
  6.36325206E-05 -1.62200784E-04 -4.62365074E-04  8.69773300E-05  1.81627013E-05
 -2.72492904E-05 -5.99176259E-05  2.62244275E-04 -1.53683341E-05 -8.67841375E-06
  1.74511734E-05  9.90396833E-01  3.69394084E-02 -2.04800312E-02  1.27783529E-04
  4.98117076E-06  1.18950069E-05  7.00202808E-04 -1.87933432E-04  5.49412060E-04
  4.38087460E-04  1.93433522E-04 -6.62103057E-04  5.13150488E-04  1.20487693E-05
  6.72925365E-05  4.86228457E-04 -1.07322314E-03  2.83422546E-03  2.13288970E-04
  2.00064136E-05 -1.01507680E-05  9.44025129E-04  6.66627160E-05  5.52532487E-06
  6.01853637E-04  1.86849803E-04 -3.29220595E-04  7.86155570E-04 -4.03643570E-05
  8.27533351E-05 -1.50827820E-03 -2.06944840E-04 -6.51062760E-04 -4.57469431E-04
  2.32950868E-04  2.05376955E-04  5.42585376E-05 -9.05157913E-05 -1.59833499E-03
  2.40349896E-04 -8.23584843E-04  1.34957923E-05  1.34291316E-04 -3.80146272E-05
  7.38143045E-05 -4.64317646E-05 -2.57688576E-03  4.99954963E-03 -5.96435216E-04
 -5.27313456E-04  1.11642171E-03 -2.32708498E-03  5.57123008E-03 -8.04326858E-04
  3.93618754E-04 -1.04280531E-03 -4.34943346E-04 -8.93399570E-04  1.15870573E-05
  4.14652256E-05 -9.36513948E-05  3.31095776E-04  5.92277612E-04 -4.25935359E-06
 -2.96983962E-06  6.23002886E-06  7.18533071E-04 -3.63615972E-04  1.59596391E-04
 -1.48756693E-04 -6.61286736E-05  1.27534159E-04 -2.76982574E-04  6.28296669E-04
 -1.49607234E-03  9.60666675E-05  8.11251462E-05 -8.22086772E-05  3.53162995E-06
 -3.22279752E-05  6.63026214E-05  4.66802282E-04 -1.02139905E-03  2.59659385E-03
 -8.74786553E-05 -8.09343394E-05  1.71932339E-04 -3.36250194E-04 -3.66404688E-04
  7.88459127E-04 -5.66702017E-04 -2.14249439E-04  3.98646795E-04 -9.53024517E-04
  8.05415032E-04  1.01744701E-03 -9.03270931E-05 -3.96662982E-04  9.91247638E-01
  3.38593850E-02 -1.88968285E-02 -5.93528039E-05 -7.31008116E-05  1.57641476E-04
  2.61926951E-04 -3.41360297E-04  8.32368006E-04  5.07219248E-04  3.39954674E-04
 -1.26280508E-03  1.53519445E-03  1.16820482E-04  2.93173781E-04  5.29723622E-04
  5.29207029E-06 -1.36805271E-06  4.01381356E-06 -3.96464840E-04 -8.14089580E-04
 -8.94574163E-05  4.92348006E-06 -2.63054330E-05 -2.19550083E-03  5.17343401E-03
 -7.03928844E-04  3.74731294E-04 -9.82897741E-04 -2.43366126E-03  4.61759334E-03
  1.24923029E-03  1.37307426E-04 -1.07059872E-04 -1.53794056E-04 -6.65234044E-04
  3.07485866E-03 -2.40118552E-04 -6.45062786E-06 -2.56892465E-05  9.39106499E-04
  4.02292401E-04 -7.69394778E-04  5.21123999E-06 -9.59001101E-05  1.04793753E-04
 -2.21965116E-04  5.83848154E-06  3.07490746E-01  1.02802253E+00  3.13504413E-02
 -1.32586467E-02  3.50741819E-03 -2.00833258E-03  5.22451593E-03 -1.01238451E-03
  6.00188276E-04 -1.55518062E-03  1.53478272E-03 -7.15127232E-04  1.90838412E-03
 -1.15412648E-05 -3.92606482E-04 -1.62971709E-04  2.43548967E-04  2.12147390E-04
 -1.58607055E-04 -7.68612088E-04  3.17360070E-03  8.69144098E-05  1.17845477E-04
 -2.57189328E-04 -1.19050030E-03 -3.02178253E-04  4.96666051E-04 -1.80546359E-04
 -5.83876101E-06  2.20271652E-04 -9.94600598E-05 -1.90284416E-05  1.36415105E-04
  4.27487512E-04  2.05797456E-04  4.95367173E-05 -7.96255502E-05 -6.41794614E-05
 -5.20318924E-04  1.40330836E-04 -2.33257548E-05  7.74511314E-05 -7.44804593E-05
 -5.69833644E-04  3.93142760E-05 -6.03409996E-05  1.45788587E-04  1.46463495E-04
  4.20332195E-04 -1.56149320E-04 -7.14191964E-05  1.38508984E-04  9.31685582E-05
  3.25893996E-04 -1.38272714E-03  6.48918568E-04  6.29313312E-06  9.49954244E-05
 -1.13606149E-03  8.97243833E-04 -2.26082482E-03 -4.02792285E-04  1.98116579E-04
 -4.13057312E-05  8.05867478E-04  3.34251467E-05 -8.03713463E-04 -3.04119718E-03
  1.71865149E-03 -2.80810891E-03 -6.12454710E-01 -3.43779168E-01  6.89428445E-01
  2.81340666E-02  1.53835401E-02 -3.07287851E-02 -6.34987278E-03 -3.51244882E-03
  7.02951291E-03  1.11687303E-03 -5.58102768E-04 -5.78026773E-04 -9.54807946E-04
  1.21300656E-04 -1.43996387E-04 -5.86325814E-04  4.64585756E-03  1.87387611E-04
  3.18997414E-04 -7.04251244E-04  7.88918145E-04 -9.60180151E-04  2.34780234E-03
 -6.90220013E-04  5.46246477E-04  6.98173265E-04 -1.16497932E-06 -2.60485081E-04
  4.91832469E-04  2.36232009E-04 -2.66461919E-04 -3.93142877E-05  4.56163124E-05
 -5.73105237E-04 -1.03853520E-03 -8.06733159E-05  5.57277132E-05 -1.41956221E-04
  3.42672180E-04  5.50731464E-04  9.07428234E-05 -5.59492582E-05  1.44271045E-04
 -4.20845562E-04 -4.88935237E-04 -1.26962167E-04 -6.12206339E-05  1.19740904E-04
 -1.49618423E-04 -4.78818470E-04  6.64340901E-03 -3.90214374E-04 -1.76297686E-05
 -2.51981327E-05  2.24274775E-03  4.67952647E-04 -7.01856451E-04  3.74395148E-04
  2.27633327E-04  1.73687488E-05 -6.28601231E-04 -1.92110814E-04 -2.22334553E-03
 -8.37549641E-03  4.94238135E-03 -9.94878091E-03  7.67729600E-01 -1.96757116E-01
  5.84512786E-01 -3.36483901E-02  8.29564264E-03 -2.48598442E-02  7.88923676E-03
 -1.95167669E-03  5.84029462E-03 -1.14703627E-04  3.75802152E-04 -3.32060968E-05
  3.33123236E-04 -1.13736506E-04 -6.85807068E-05 -2.64264414E-04  4.80544606E-03
  4.27463932E-05  1.39492166E-06  4.16505332E-06 -2.34971801E-03 -3.33447726E-04
  3.71843277E-04  7.97551368E-05  3.20371454E-04  5.57578370E-06 -8.32593192E-05
 -1.52132381E-04 -2.29564278E-05 -5.56753802E-04 -1.13976380E-04  1.45053225E-05
 -5.26741045E-05 -2.82208128E-04 -5.93703075E-04  8.10560043E-05  2.30340251E-06
  8.52040259E-06 -5.55160230E-04 -1.08339329E-03 -8.19654966E-05 -3.95083633E-06
 -4.47849385E-06  2.58350297E-04 -3.27514009E-04  6.57714769E-05  9.61591505E-05
 -2.10477002E-04  7.61635345E-08  2.87454699E-07 -3.37908313E-06 -1.03327856E-06
  1.73918559E-05  7.55351892E-06  7.23188687E-05 -1.00294436E-03 -4.34485740E-04
 -1.21256591E-05  8.23704543E-05 -6.97764853E-06 -3.39653744E-05  1.86134813E-04
  9.18984878E-07  3.48253418E-06 -2.17975244E-06  4.41169290E-06 -6.63672490E-02
  9.01882648E-01  3.90760102E-01  2.78616354E-03 -3.78496469E-02 -1.63992762E-02
 -4.39746601E-04  5.95525958E-03  2.57942461E-03  2.35208840E-04 -1.06614343E-05
  2.55082833E-04  1.31236819E-04  3.85968999E-05  1.19913624E-08  8.82780707E-08
 -1.94612192E-06 -9.97177237E-06  1.36621325E-04  5.91357486E-05  7.39926858E-05
 -9.95818059E-04 -4.31683838E-04  1.43822169E-04 -5.62304030E-05  1.52690324E-04
  9.73413825E-05 -9.04454002E-05  9.02198917E-08  2.30347767E-07 -5.98859272E-06
  8.13708242E-05  3.52894052E-05  1.77136737E-07  3.52808019E-07 -8.42163946E-06
  1.14153101E-04  4.95311295E-05  3.57952199E-07  5.72229874E-07 -8.72715350E-06
  1.20433798E-04  5.22378675E-05 -2.58085936E-07  2.53130551E-07 -6.29230386E-06
  8.53315652E-05  3.72380588E-05 -1.45425507E-01  2.90363564E-01  6.78278893E-02
  1.01097158E-01  9.90147275E-03 -5.77862027E-03  1.12049813E-02 -1.85273209E-04
  2.31648512E-03 -8.92335410E-03 -1.93840687E-03  2.36820288E-03  1.05232003E-02
  2.31872654E-03 -6.07796034E-02 -3.80725208E-01  5.30707030E-01  2.21558065E-01
 -3.32580857E-02  1.36437783E-02 -3.70860407E-02 -5.12162406E-02  2.21456729E-02
 -5.97303738E-02 -2.79285702E-02  1.92885166E-02 -4.92056870E-02  1.76358729E-03
 -1.23068618E-02 -1.66067903E-02  2.52762342E-02  9.60896574E-03 -1.02647104E-01
  1.95466497E-01  1.55400137E-02 -4.04080049E-02 -3.61002499E-02  7.64500584E-02
 -1.42447697E-03 -2.06224197E-03  4.51730328E-03  7.99425548E-03 -9.09541598E-03
 -1.05408667E-02  4.00562664E-03  4.88708497E-03  6.67291785E-02  4.58169946E-03
  6.11298977E-03  4.20505419E-03 -8.67039905E-03  6.56892594E-02  5.41841374E-03
  7.12878174E-03 -2.63906010E-03  7.28692531E-03  4.81806591E-02  7.04530663E-03
  3.16200691E-03 -2.52072864E-03  6.34565859E-03  4.84817770E-02  8.36762887E-03
 -7.61562462E-03 -1.45347691E-03  2.07336694E-03 -1.88889313E-01  3.79100668E-01
  1.81570419E-01  5.84567599E-03 -8.10480493E-03  1.97033546E-02 -2.17814616E-03
  3.73722916E-03 -8.98453334E-03 -1.62507802E-03  2.71595266E-03  6.31607429E-04
  2.15502992E-03 -8.86012303E-04  1.37185562E-02  8.74130635E-02 -1.22145788E-01
 -1.01174136E-01 -9.07981375E-02 -3.23454593E-02  5.93019777E-02 -1.50071441E-01
 -5.35443537E-02  9.82080514E-02 -1.07609244E-01 -4.42157894E-02  8.38545352E-02
 -3.73600029E-02  2.08334127E-02  2.03689050E-02  3.04493508E-02 -5.25319333E-03
  1.61308940E-01 -3.13910852E-01 -7.16377678E-02  6.95448605E-03  2.77795551E-02
 -6.28774527E-02  8.26381049E-03 -9.11874070E-04  3.49844485E-03 -1.00370168E-02
  2.99501005E-03  1.39552989E-02 -8.03342455E-03 -2.92573660E-03  1.48383563E-01
  1.15259895E-02  5.45834613E-03  6.79394366E-03 -1.47544810E-02  1.24850567E-01
  2.52992651E-03  8.34920297E-03 -4.47627657E-03  1.17300047E-02 -1.01584847E-01
 -1.36080569E-02 -6.19398934E-03  3.57483610E-03 -9.28710085E-03 -1.29098162E-01
 -2.29359515E-02  1.39762439E-02  1.26667063E-03 -5.75935681E-04  9.29327880E-02
 -1.81694879E-01 -1.44738240E-01  1.88987280E-01  3.64003721E-03  2.34386944E-02
  4.71110325E-02  1.75408539E-03  3.88713569E-03 -8.94635049E-03 -9.19106940E-04
  2.67668389E-03  1.01957030E-02  1.81588144E-03 -4.03871414E-02 -2.59753155E-01
  3.85277634E-01  2.15769236E-01 -5.29280254E-03 -1.32342468E-02  2.96312051E-02
 -8.82794307E-03 -2.19207712E-02  4.90685397E-02 -5.37844756E-03 -2.63456509E-02
  5.98583197E-02 -8.74346053E-03  2.63851259E-03  5.66164240E-03  5.02249398E-03
 -5.89593432E-04  1.41479997E-01 -2.79193012E-01 -1.13048616E-01 -4.82824765E-02
 -5.90555800E-02  1.28122661E-01 -1.34229051E-02 -1.74787127E-02  3.80652495E-02
  1.14454340E-03 -8.73023403E-03  5.48477667E-03 -1.38419898E-02  1.60295801E-03
 -1.19536668E-01 -1.83709877E-02 -1.43912465E-03 -4.96251091E-03  1.12061083E-02
 -1.68307132E-01 -3.24529394E-02 -7.08581392E-03  5.08006898E-03 -1.29078585E-02
 -2.12982210E-01 -5.52931735E-02 -1.18878937E-02  4.76782881E-03 -1.29964777E-02
 -1.87580350E-01 -4.67615062E-02  1.66606586E-02  2.25491120E-04  2.27595607E-03
 -5.20746068E-03  8.00771850E-03  4.56066417E-02 -2.40007164E-02 -1.35033046E-01
  3.07406547E-01  3.87337516E-03 -6.07321900E-02  1.40736611E-01  4.97845366E-03
 -3.24191937E-03 -2.18297448E-03 -5.11845909E-03  7.29423148E-04 -3.47226829E-03
 -2.32506250E-02  3.96301793E-02 -5.00395814E-03  4.23180569E-02 -2.81057558E-02
  7.19432667E-02  7.25144922E-02 -4.89420325E-02  1.25079970E-01  8.73173619E-02
 -4.94995277E-02  1.28862018E-01 -1.41530656E-02 -3.49287701E-02  8.82791775E-03
  9.95436812E-04  1.50863528E-02 -1.43994607E-02  2.40837933E-02  5.15943512E-02
  2.37807987E-01  7.13522315E-03  2.35153244E-02  8.97564384E-02 -2.92841212E-03
  2.18387602E-02 -5.48803502E-03  4.60501655E-03  3.17187969E-03  4.44440203E-03
 -1.45975057E-03  2.46216516E-01  5.34358438E-02  8.69692520E-03  6.02946776E-03
 -1.24465661E-02 -1.89357609E-01 -5.07491930E-02 -1.10031963E-02  2.16759044E-03
 -6.85101194E-03 -1.10952878E-01 -3.81052709E-02  6.66914299E-04  3.03168854E-03
 -6.88099787E-03  2.17303449E-01  5.99736832E-02 -1.33358624E-02 -1.82040024E-03
  1.96190784E-03  1.78968728E-02 -2.62529082E-02 -7.54558550E-02  2.54721705E-01
 -4.48035353E-02  1.46252529E-01  8.83406529E-02 -1.83075485E-02  5.70997421E-02
 -9.84847553E-03 -2.82724681E-03  2.30677131E-03  1.20535761E-02  2.93355658E-03
  2.03763147E-03  1.37176134E-02 -2.31477204E-02 -1.38729815E-02 -1.16021991E-01
 -3.05766302E-02  5.09668929E-02 -2.03522433E-01 -5.42072764E-02  9.07203926E-02
 -1.81310073E-01 -4.37719870E-02  7.04018234E-02 -1.90278897E-02  1.61965500E-02
  7.51317931E-03  2.19056412E-02 -4.07500275E-03 -2.62341378E-02  4.65717652E-02
  4.56393492E-02 -1.30740288E-01  1.04408219E-01 -2.62802350E-01 -5.25259324E-02
  3.48018100E-02 -8.91032110E-02 -4.75094565E-03  1.04614030E-02  3.11361495E-03
  4.45315088E-03 -4.00410448E-03  1.23676688E-02  6.73219509E-03  3.86965579E-03
 -6.92485519E-04  2.24859198E-03 -2.28556783E-01 -5.76885712E-02 -8.68578020E-03
  5.28220908E-03 -1.36426051E-02  2.97423851E-01  9.48702930E-02  1.12573891E-02
 -5.72467146E-03  1.50983907E-02 -6.55646112E-02 -1.67850287E-02  1.82268939E-03
  2.35311622E-03 -5.12275044E-03 -1.00804324E-02  3.19587541E-02  6.44014490E-03
  2.18498465E-01  1.05535149E-01 -2.06770861E-01  8.84968661E-02  5.72512459E-02
 -1.17238729E-01 -1.18362896E-02  6.70524483E-03  5.04389912E-03  1.22684447E-02
 -1.28213491E-03  7.81842380E-04  5.38174979E-03 -8.25353211E-03 -2.03145613E-02