0003_q000_m01_k00_opt_uwb97xd_def2svpd/0003_q000_m01_k00_force_ub3lyp_de
Force     UB3LYP                                                      Gen                 
Number of atoms                            I                7
Info1-9                                    I   N=           9
          13           9           0           0           0         100
           5          18        -502
Full Title                                 C   N=           8
0003_q000_m01_k00_opt_uwb97xd_def2svpd/0003_q000_m01_k00_for
ce_ub3lyp_def2tzvp stable-force     
Route                                      C   N=          15
#p ub3lyp/chkbasis force guess=read geom=check scf=(maxcycle
=900,verytightlineq,xqc) integral=grid=ultrafine symmetry=No
ne density=current pop=(cm5,hlygat,mbs,npa) output=wfx      
Charge                                     I                0
Multiplicity                               I                1
Number of electrons                        I               32
Number of alpha electrons                  I               16
Number of beta electrons                   I               16
Number of basis functions                  I              123
Number of independent functions            I              123
Number of point charges in /Mol/           I                0
Number of translation vectors              I                0
Atomic numbers                             I   N=           7
           6          16           6           1           1           1
           1
Nuclear charges                            R   N=           7
  6.00000000E+00  1.60000000E+01  6.00000000E+00  1.00000000E+00  1.00000000E+00
  1.00000000E+00  1.00000000E+00
Current cartesian coordinates              R   N=          21
  1.85917402E+00 -6.15268432E-02  9.23282726E-02  4.92676194E+00  1.87460277E-01
  3.55239128E-02  6.09875638E+00  1.39121255E+00 -2.54358053E+00  1.07793953E+00
 -8.64605860E-01  1.81365494E+00  6.49701559E-01  5.25765681E-01 -1.46546666E+00
  4.94204756E+00  1.99646575E+00 -4.13423228E+00  8.14558359E+00  1.55646016E+00
 -2.58103217E+00
Number of symbols in /Mol/                 I                0
Int Atom Types                             I   N=           7
           0           0           0           0           0           0
           0
Force Field                                I                0
Atom Types                                 C   N=           7
                                                            
                        
MM charges                                 R   N=           7
  0.00000000E+00  0.00000000E+00  0.00000000E+00  0.00000000E+00  0.00000000E+00
  0.00000000E+00  0.00000000E+00
Integer atomic weights                     I   N=           7
          12          32          12           1           1           1
           1
Real atomic weights                        R   N=           7
  1.20000000E+01  3.19720718E+01  1.20000000E+01  1.00782504E+00  1.00782504E+00
  1.00782504E+00  1.00782504E+00
Atom fragment info                         I   N=           7
           0           0           0           0           0           0
           0
Atom residue num                           I   N=           7
           0           0           0           0           0           0
           0
Nuclear spins                              I   N=           7
           0           0           0           1           1           1
           1
Nuclear ZEff                               R   N=           7
 -3.60000000E+00 -1.36000000E+01 -3.60000000E+00 -1.00000000E+00 -1.00000000E+00
 -1.00000000E+00 -1.00000000E+00
Nuclear ZNuc                               R   N=           7
  6.00000000E+00  1.60000000E+01  6.00000000E+00  1.00000000E+00  1.00000000E+00
  1.00000000E+00  1.00000000E+00
Nuclear QMom                               R   N=           7
  0.00000000E+00  0.00000000E+00  0.00000000E+00  0.00000000E+00  0.00000000E+00
  0.00000000E+00  0.00000000E+00
Nuclear GFac                               R   N=           7
  0.00000000E+00  0.00000000E+00  0.00000000E+00  2.79284600E+00  2.79284600E+00
  2.79284600E+00  2.79284600E+00
MicOpt                                     I   N=           7
          -1          -1          -1          -1          -1          -1
          -1
Number of residues                         I                0
Number of secondary structures             I                0
Number of contracted shells                I               51
Number of primitive shells                 I               91
Pure/Cartesian d shells                    I                0
Pure/Cartesian f shells                    I                0
Highest angular momentum                   I                3
Largest degree of contraction              I                7
Shell types                                I   N=          51
           0           0           0           0           0           1
           1           1          -2          -2          -3           0
           0           0           0           0           1           1
           1           1           1          -2          -2          -3
           0           0           0           0           0           1
           1           1          -2          -2          -3           0
           0           0           1           0           0           0
           1           0           0           0           1           0
           0           0           1
Number of primitives per shell             I   N=          51
           6           2           1           1           1           4
           1           1           1           1           1           7
           3           2           1           1           5           1
           1           1           1           2           1           1
           6           2           1           1           1           4
           1           1           1           1           1           3
           1           1           1           3           1           1
           1           3           1           1           1           3
           1           1           1
Shell to atom map                          I   N=          51
           1           1           1           1           1           1
           1           1           1           1           1           2
           2           2           2           2           2           2
           2           2           2           2           2           2
           3           3           3           3           3           3
           3           3           3           3           3           4
           4           4           4           5           5           5
           5           6           6           6           6           7
           7           7           7
Primitive exponents                        R   N=          91
  1.35753497E+04  2.03523337E+03  4.63225624E+02  1.31200196E+02  4.28530159E+01
  1.55841858E+01  6.20671385E+00  2.57648965E+00  5.76963394E-01  2.29728314E-01
  9.51644400E-02  3.46972322E+01  7.95826228E+00  2.37808269E+00  8.14332082E-01
  2.88875473E-01  1.00568237E-01  1.09700000E+00  3.18000000E-01  7.61000000E-01
  6.07009281E+04  9.10261069E+03  2.07141660E+03  5.86024768E+02  1.90553950E+02
  6.76303843E+01  2.51273069E+01  1.12574630E+02  3.47955542E+01  6.51155562E+00
  3.23990323E+00  1.54771609E+00  4.05410301E-01  1.45506511E-01  5.64367160E+02
  1.33426244E+02  4.24682712E+01  1.56165276E+01  6.10939885E+00  2.44041602E+00
  8.38822013E-01  3.12887469E-01  1.07701090E-01  3.75600000E+00  8.12000000E-01
  2.73000000E-01  5.57000000E-01  1.35753497E+04  2.03523337E+03  4.63225624E+02
  1.31200196E+02  4.28530159E+01  1.55841858E+01  6.20671385E+00  2.57648965E+00
  5.76963394E-01  2.29728314E-01  9.51644400E-02  3.46972322E+01  7.95826228E+00
  2.37808269E+00  8.14332082E-01  2.88875473E-01  1.00568237E-01  1.09700000E+00
  3.18000000E-01  7.61000000E-01  3.40613410E+01  5.12357460E+00  1.16466260E+00
  3.27230410E-01  1.03072410E-01  8.00000000E-01  3.40613410E+01  5.12357460E+00
  1.16466260E+00  3.27230410E-01  1.03072410E-01  8.00000000E-01  3.40613410E+01
  5.12357460E+00  1.16466260E+00  3.27230410E-01  1.03072410E-01  8.00000000E-01
  3.40613410E+01  5.12357460E+00  1.16466260E+00  3.27230410E-01  1.03072410E-01
  8.00000000E-01
Contraction coefficients                   R   N=          91
  6.06455036E-04  4.69790889E-03  2.43324776E-02  9.73999683E-02  3.01955843E-01
  6.62336091E-01  6.55953085E-01  3.75856333E-01  1.00000000E+00  1.00000000E+00
  1.00000000E+00  1.13272200E-02  7.61696592E-02  3.01922522E-01  7.27850273E-01
  1.00000000E+00  1.00000000E+00  1.00000000E+00  1.00000000E+00  1.00000000E+00
  5.23800749E-04  4.05063268E-03  2.08270042E-02  8.14968503E-02  2.37491138E-01
  4.47261715E-01  3.48919184E-01  1.00455699E-01  4.33911729E-01 -1.20843306E+00
  6.74981294E-01  3.47087958E-01  1.00000000E+00  1.00000000E+00  3.48869236E-03
  2.76851268E-02  1.26594002E-01  3.61659257E-01  6.12220344E-01  1.00000000E+00
  1.00000000E+00  1.00000000E+00  1.00000000E+00  1.82851975E-01  9.14259873E-01
  1.00000000E+00  1.00000000E+00  6.06455036E-04  4.69790889E-03  2.43324776E-02
  9.73999683E-02  3.01955843E-01  6.62336091E-01  6.55953085E-01  3.75856333E-01
  1.00000000E+00  1.00000000E+00  1.00000000E+00  1.13272200E-02  7.61696592E-02
  3.01922522E-01  7.27850273E-01  1.00000000E+00  1.00000000E+00  1.00000000E+00
  1.00000000E+00  1.00000000E+00  2.54393072E-02  1.90085949E-01  8.52441130E-01
  1.00000000E+00  1.00000000E+00  1.00000000E+00  2.54393072E-02  1.90085949E-01
  8.52441130E-01  1.00000000E+00  1.00000000E+00  1.00000000E+00  2.54393072E-02
  1.90085949E-01  8.52441130E-01  1.00000000E+00  1.00000000E+00  1.00000000E+00
  2.54393072E-02  1.90085949E-01  8.52441130E-01  1.00000000E+00  1.00000000E+00
  1.00000000E+00
Coordinates of each shell                  R   N=         153
  1.85917402E+00 -6.15268432E-02  9.23282726E-02  1.85917402E+00 -6.15268432E-02
  9.23282726E-02  1.85917402E+00 -6.15268432E-02  9.23282726E-02  1.85917402E+00
 -6.15268432E-02  9.23282726E-02  1.85917402E+00 -6.15268432E-02  9.23282726E-02
  1.85917402E+00 -6.15268432E-02  9.23282726E-02  1.85917402E+00 -6.15268432E-02
  9.23282726E-02  1.85917402E+00 -6.15268432E-02  9.23282726E-02  1.85917402E+00
 -6.15268432E-02  9.23282726E-02  1.85917402E+00 -6.15268432E-02  9.23282726E-02
  1.85917402E+00 -6.15268432E-02  9.23282726E-02  4.92676194E+00  1.87460277E-01
  3.55239128E-02  4.92676194E+00  1.87460277E-01  3.55239128E-02  4.92676194E+00
  1.87460277E-01  3.55239128E-02  4.92676194E+00  1.87460277E-01  3.55239128E-02
  4.92676194E+00  1.87460277E-01  3.55239128E-02  4.92676194E+00  1.87460277E-01
  3.55239128E-02  4.92676194E+00  1.87460277E-01  3.55239128E-02  4.92676194E+00
  1.87460277E-01  3.55239128E-02  4.92676194E+00  1.87460277E-01  3.55239128E-02
  4.92676194E+00  1.87460277E-01  3.55239128E-02  4.92676194E+00  1.87460277E-01
  3.55239128E-02  4.92676194E+00  1.87460277E-01  3.55239128E-02  4.92676194E+00
  1.87460277E-01  3.55239128E-02  6.09875638E+00  1.39121255E+00 -2.54358053E+00
  6.09875638E+00  1.39121255E+00 -2.54358053E+00  6.09875638E+00  1.39121255E+00
 -2.54358053E+00  6.09875638E+00  1.39121255E+00 -2.54358053E+00  6.09875638E+00
  1.39121255E+00 -2.54358053E+00  6.09875638E+00  1.39121255E+00 -2.54358053E+00
  6.09875638E+00  1.39121255E+00 -2.54358053E+00  6.09875638E+00  1.39121255E+00
 -2.54358053E+00  6.09875638E+00  1.39121255E+00 -2.54358053E+00  6.09875638E+00
  1.39121255E+00 -2.54358053E+00  6.09875638E+00  1.39121255E+00 -2.54358053E+00
  1.07793953E+00 -8.64605860E-01  1.81365494E+00  1.07793953E+00 -8.64605860E-01
  1.81365494E+00  1.07793953E+00 -8.64605860E-01  1.81365494E+00  1.07793953E+00
 -8.64605860E-01  1.81365494E+00  6.49701559E-01  5.25765681E-01 -1.46546666E+00
  6.49701559E-01  5.25765681E-01 -1.46546666E+00  6.49701559E-01  5.25765681E-01
 -1.46546666E+00  6.49701559E-01  5.25765681E-01 -1.46546666E+00  4.94204756E+00
  1.99646575E+00 -4.13423228E+00  4.94204756E+00  1.99646575E+00 -4.13423228E+00
  4.94204756E+00  1.99646575E+00 -4.13423228E+00  4.94204756E+00  1.99646575E+00
 -4.13423228E+00  8.14558359E+00  1.55646016E+00 -2.58103217E+00  8.14558359E+00
  1.55646016E+00 -2.58103217E+00  8.14558359E+00  1.55646016E+00 -2.58103217E+00
  8.14558359E+00  1.55646016E+00 -2.58103217E+00
Num ILSW                                   I              100
ILSW                                       I   N=         100
           1           0           0           0           2           0
           0           0           0           0         402          -1
           5           0           0           0           2           0
           0           0           0           0           1           0
           1           1           0           0           0           0
           0           0      100000           0          -1           0
           0           0           0           0           0           0
           0           0           0           1           0           0
           0 -2000000000           1           0           0           0
           0           0           4          52           0           0
           0           0           5           0           0           0
           0           0           0           7           0           1
           0           0           0           0           0           0
           0           0           0           0           0           0
           0           0           0           0           0           0
           0           0           0           0           0           0
           0           0           0           0
Num RLSW                                   I               52
RLSW                                       R   N=          52
  8.00000000E-01  7.20000000E-01  1.00000000E+00  8.10000000E-01  2.00000000E-01
  0.00000000E+00  0.00000000E+00  1.00000000E+00  0.00000000E+00  0.00000000E+00
  0.00000000E+00  0.00000000E+00  1.00000000E+00  0.00000000E+00  0.00000000E+00
  0.00000000E+00  0.00000000E+00  1.00000000E+00  0.00000000E+00  0.00000000E+00
  0.00000000E+00  0.00000000E+00  1.00000000E+00  0.00000000E+00  0.00000000E+00
  0.00000000E+00  0.00000000E+00  1.00000000E+00  0.00000000E+00  0.00000000E+00
  0.00000000E+00  0.00000000E+00  1.00000000E+00  0.00000000E+00  0.00000000E+00
  0.00000000E+00  0.00000000E+00  0.00000000E+00  1.00000000E+00  1.00000000E+00
  0.00000000E+00  1.00000000E+00  0.00000000E+00  0.00000000E+00  0.00000000E+00
  0.00000000E+00  0.00000000E+00  0.00000000E+00  0.00000000E+00  0.00000000E+00
  0.00000000E+00  0.00000000E+00
MxBond                                     I                3
NBond                                      I   N=           7
           3           2           3           1           1           1
           1
IBond                                      I   N=          21
           2           4           5           1           3           0
           2           6           7           1           0           0
           1           0           0           3           0           0
           3           0           0
RBond                                      R   N=          21
  2.00000000E+00  1.00000000E+00  1.00000000E+00  2.00000000E+00  2.00000000E+00
  0.00000000E+00  2.00000000E+00  1.00000000E+00  1.00000000E+00  1.00000000E+00
  0.00000000E+00  0.00000000E+00  1.00000000E+00  0.00000000E+00  0.00000000E+00
  1.00000000E+00  0.00000000E+00  0.00000000E+00  1.00000000E+00  0.00000000E+00
  0.00000000E+00
Virial Ratio                               R      2.002495158201727E+00
SCF Energy                                 R     -4.767908528389843E+02
Total Energy                               R     -4.767908528389843E+02
S**2                                       R     -3.197442310920451E-14
S**2 after annihilation                    R     -1.779909553079035E-12
RMS Force                                  R      3.076522088254583E-03
RMS Density                                R      1.033649159468912E-09
Job Status                                 I                1
Nuclear derivative order                   I                1
External E-field                           R   N=          35
  0.00000000E+00  0.00000000E+00  0.00000000E+00  0.00000000E+00  0.00000000E+00
  0.00000000E+00  0.00000000E+00  0.00000000E+00  0.00000000E+00  0.00000000E+00
  0.00000000E+00  0.00000000E+00  0.00000000E+00  0.00000000E+00  0.00000000E+00
  0.00000000E+00  0.00000000E+00  0.00000000E+00  0.00000000E+00  0.00000000E+00
  0.00000000E+00  0.00000000E+00  0.00000000E+00  0.00000000E+00  0.00000000E+00
  0.00000000E+00  0.00000000E+00  0.00000000E+00  0.00000000E+00  0.00000000E+00
  0.00000000E+00  0.00000000E+00  0.00000000E+00  0.00000000E+00  0.00000000E+00
IOpCl                                      I                1
IROHF                                      I                0
Alpha Orbital Energies                     R   N=         123
 -8.89180985E+01 -1.01857194E+01 -1.01857143E+01 -7.99065979E+00 -5.95156429E+00
 -5.95109354E+00 -5.94795946E+00 -8.51305372E-01 -6.98979136E-01 -5.74044941E-01
 -4.71661977E-01 -4.62971109E-01 -4.07472937E-01 -3.61211827E-01 -3.36123224E-01
 -2.03310910E-01 -5.73040497E-02  4.84276659E-02  5.71942553E-02  7.22600240E-02
  9.33999043E-02  1.06238502E-01  1.42254874E-01  1.61533840E-01  2.09407530E-01
  2.12275719E-01  2.18110549E-01  2.56034115E-01  2.61650443E-01  2.63077674E-01
  2.98855665E-01  3.00685947E-01  3.85798689E-01  3.90197895E-01  4.04963969E-01
  4.24728493E-01  4.48353042E-01  4.55781719E-01  5.08307560E-01  5.45628126E-01
  5.56058600E-01  6.39306022E-01  6.61209490E-01  6.74931546E-01  7.26614789E-01
  7.50939463E-01  8.99367047E-01  9.40736452E-01  9.55310424E-01  9.72760440E-01
  9.76328126E-01  1.00627146E+00  1.07200639E+00  1.08686434E+00  1.32160300E+00
  1.41466274E+00  1.42960142E+00  1.43660675E+00  1.44345795E+00  1.46944552E+00
  1.53397156E+00  1.53586639E+00  1.54838239E+00  1.56000878E+00  1.57043347E+00
  1.62194775E+00  1.63000905E+00  1.67365070E+00  1.67839333E+00  1.71784552E+00
  1.76402420E+00  1.78244964E+00  1.78816748E+00  1.87370691E+00  1.92549034E+00
  1.97198220E+00  2.02431168E+00  2.04378996E+00  2.08581976E+00  2.13564440E+00
  2.16626722E+00  2.26880364E+00  2.29594693E+00  2.32605149E+00  2.44954506E+00
  2.50527891E+00  2.51424939E+00  2.57760778E+00  2.64061278E+00  2.68881031E+00
  2.72756327E+00  2.76935990E+00  2.84203772E+00  2.92678323E+00  2.97203528E+00
  3.05396845E+00  3.07387892E+00  3.12951507E+00  3.17628347E+00  3.18932472E+00
  3.24459883E+00  3.28941616E+00  3.30443675E+00  3.30672952E+00  3.32615043E+00
  3.47725027E+00  3.47759101E+00  3.47784347E+00  3.56868674E+00  3.57978891E+00
  3.65143691E+00  3.74654383E+00  3.88066367E+00  4.07751014E+00  4.08108181E+00
  4.40381950E+00  4.46605723E+00  8.80726696E+00  9.09157986E+00  9.53682311E+00
  2.05670018E+01  2.18849973E+01  2.19645034E+01
Beta Orbital Energies                      R   N=         123
 -8.89180985E+01 -1.01857194E+01 -1.01857143E+01 -7.99065979E+00 -5.95156429E+00
 -5.95109354E+00 -5.94795946E+00 -8.51305372E-01 -6.98979136E-01 -5.74044941E-01
 -4.71661977E-01 -4.62971109E-01 -4.07472937E-01 -3.61211827E-01 -3.36123224E-01
 -2.03310910E-01 -5.73040497E-02  4.84276659E-02  5.71942553E-02  7.22600240E-02
  9.33999043E-02  1.06238502E-01  1.42254874E-01  1.61533840E-01  2.09407530E-01
  2.12275719E-01  2.18110549E-01  2.56034115E-01  2.61650443E-01  2.63077674E-01
  2.98855665E-01  3.00685947E-01  3.85798689E-01  3.90197895E-01  4.04963969E-01
  4.24728493E-01  4.48353042E-01  4.55781719E-01  5.08307560E-01  5.45628126E-01
  5.56058600E-01  6.39306022E-01  6.61209490E-01  6.74931546E-01  7.26614789E-01
  7.50939463E-01  8.99367047E-01  9.40736452E-01  9.55310424E-01  9.72760440E-01
  9.76328126E-01  1.00627146E+00  1.07200639E+00  1.08686434E+00  1.32160300E+00
  1.41466274E+00  1.42960142E+00  1.43660675E+00  1.44345795E+00  1.46944552E+00
  1.53397156E+00  1.53586639E+00  1.54838239E+00  1.56000878E+00  1.57043347E+00
  1.62194775E+00  1.63000905E+00  1.67365070E+00  1.67839333E+00  1.71784552E+00
  1.76402420E+00  1.78244964E+00  1.78816748E+00  1.87370691E+00  1.92549034E+00
  1.97198220E+00  2.02431168E+00  2.04378996E+00  2.08581976E+00  2.13564440E+00
  2.16626722E+00  2.26880364E+00  2.29594693E+00  2.32605149E+00  2.44954506E+00
  2.50527891E+00  2.51424939E+00  2.57760778E+00  2.64061278E+00  2.68881031E+00
  2.72756327E+00  2.76935990E+00  2.84203772E+00  2.92678323E+00  2.97203528E+00
  3.05396845E+00  3.07387892E+00  3.12951507E+00  3.17628347E+00  3.18932472E+00
  3.24459883E+00  3.28941616E+00  3.30443675E+00  3.30672952E+00  3.32615043E+00
  3.47725027E+00  3.47759101E+00  3.47784347E+00  3.56868674E+00  3.57978891E+00
  3.65143691E+00  3.74654383E+00  3.88066367E+00  4.07751014E+00  4.08108181E+00
  4.40381950E+00  4.46605723E+00  8.80726696E+00  9.09157986E+00  9.53682311E+00
  2.05670018E+01  2.18849973E+01  2.19645034E+01
Alpha MO coefficients                      R   N=       15129
  4.63512951E-06 -2.43697503E-05  1.08677597E-03 -3.79381399E-03 -2.40807498E-04
  2.83262099E-04  2.44998972E-05 -8.73721880E-06 -3.06550111E-03 -2.48411493E-04
  5.59222033E-05 -3.99753129E-04  3.63033792E-05 -1.51094279E-04  4.13389189E-05
  1.26405507E-05  9.18270804E-06 -8.53178330E-05 -1.83487627E-05  8.38549888E-04
 -2.11413026E-05 -7.74408620E-05 -1.29785341E-03 -1.79189428E-04 -2.71925363E-05
  2.66867320E-04  2.40313097E-05  3.30758002E-05  1.79683046E-05 -3.52964039E-04
 -9.77847168E-05  9.99254032E-01 -3.18009309E-02 -1.12999696E-02  4.59377052E-03
  4.39405234E-03 -5.19024624E-05  2.61504177E-05 -6.90651168E-05  5.35470269E-06
 -2.69739565E-06  7.11352582E-06  2.76697341E-04 -1.39451852E-04  3.68386208E-04
 -1.88720207E-03  9.51515122E-04 -2.51339241E-03 -2.14828949E-04  1.08504522E-04
 -2.86623863E-04  2.76620474E-05 -1.24528038E-04 -1.62181041E-04  2.28087898E-04
  9.29790866E-05  2.08363611E-05 -8.96874482E-04 -7.19473745E-04  1.11813530E-03
  5.78285770E-04 -1.00318209E-04  5.09197634E-04  2.60175715E-04  2.87215838E-05
 -2.08944993E-04 -3.54449962E-04 -4.74693567E-05  4.62705081E-06 -2.43455194E-05
  1.08704835E-03 -3.79582882E-03 -2.41288745E-04 -1.11816628E-04 -1.10876853E-04
  2.36918805E-04  1.17101822E-03  1.20367067E-03 -2.57916474E-03 -9.68515419E-06
  1.70111274E-04 -3.93962188E-04 -4.71149040E-05  5.64266124E-05  5.66854361E-05
 -1.29880464E-05 -2.82995047E-05 -9.06625258E-04  8.42415620E-04  8.59400064E-04
  1.29929327E-04 -3.75523735E-04 -8.14522368E-05  2.65646687E-04  2.72560792E-04
 -1.46840472E-05 -2.28808837E-04 -3.58032190E-05  5.32686153E-05 -8.61556981E-06
 -2.16015415E-04  9.12736684E-05 -4.13659885E-05 -4.62523829E-06  3.69593782E-06
  1.07007482E-05 -1.30872517E-04 -1.74927066E-04 -7.93000189E-05 -2.40746048E-05
  4.21221660E-05  1.06805618E-05 -1.30976642E-04 -1.75020607E-04  7.19473441E-05
  2.77596868E-05 -5.19378000E-05 -8.64619217E-06 -2.16068282E-04  9.13357280E-05
  1.88145614E-05  1.60032054E-05 -3.37255434E-05  3.50945120E-01  4.57799075E-01
  2.65318590E-02 -1.33809925E-02  1.06743671E-02  6.11145956E-04  6.29343244E-05
 -4.11251374E-05 -2.49273131E-03 -2.52516464E-04  1.62848828E-04  5.19863979E-04
  5.47994695E-04 -1.17552490E-03  2.36841359E-04  5.84762786E-05 -4.75421662E-04
  4.85718990E-04  6.09447363E-05  1.20469461E-03  7.93584317E-05 -9.42880251E-04
 -3.03738306E-04 -4.94754061E-05  2.10276829E-04 -6.69840022E-04 -1.77770762E-04
 -2.90952960E-04  5.19879312E-04  2.49939731E-06  1.02266215E-04 -5.82922934E-07
 -8.62452186E-07 -4.90861328E-06  5.57102989E-05  4.48072302E-04  2.25167189E-05
  6.23666850E-06 -1.05876184E-05 -3.98455400E-05 -8.16124387E-06  1.20857755E-05
 -3.54423009E-04 -1.30250491E-04  2.40718234E-04 -7.52715293E-04 -1.77271830E-04
  2.81906762E-04  1.12732485E-03  4.67164286E-04 -8.87594786E-04  5.04117453E-06
 -1.19054871E-05  2.63872977E-06 -1.58982875E-05  2.75030265E-06  5.70516442E-04
 -2.40092481E-04 -3.33100295E-04 -4.08625418E-04  5.51539236E-05 -3.01308208E-04
 -1.19103388E-04  4.79199989E-04  1.54774938E-04 -2.93213944E-04  5.73280489E-04
  1.31976833E-04 -3.07720057E-01 -4.01419213E-01 -2.32120546E-02  1.16164585E-02
 -1.00945639E-02  2.15413399E-04  1.96222709E-04 -4.16036348E-04 -7.40470687E-04
 -7.52711464E-04  1.61197244E-03  1.52835303E-03  1.59989846E-04 -1.11320377E-04
 -1.42577884E-04 -8.12644741E-05  3.77203863E-04 -4.69883430E-04 -4.53771711E-05
  4.39100182E-04 -7.15359349E-04  5.31041086E-05 -9.92229116E-04  1.64679996E-04
  6.41235011E-05  6.27522827E-04 -1.88696470E-04  9.83918081E-05 -2.56552709E-04
 -3.55882525E-04 -1.44457516E-04 -5.97679978E-04 -1.64604808E-03 -1.01351503E-03
 -6.59455321E-04 -6.30436057E-04  1.34354329E-03 -4.94637114E-04 -1.87837351E-03
 -2.38009956E-03 -1.01933422E-03  4.41111198E-04 -1.18877004E-03  4.16360942E-04
  1.64310634E-03  2.28000726E-03  7.34744374E-04 -4.34069555E-04  1.12484269E-03
  5.21579126E-04  1.34713938E-03  8.74919723E-04 -1.38676550E-03 -1.28550854E-04
  6.36777792E-05  3.07727281E-01  4.01375455E-01  2.36625673E-02 -1.26137025E-02
  3.73952988E-03  7.77205055E-04  8.83879421E-05 -7.19303267E-05 -4.21409123E-03
 -7.02628167E-04  9.10872775E-04 -1.17360232E-03 -3.82010794E-04  6.83651709E-04
  1.89773085E-04  7.56632137E-05 -4.44179570E-04  5.11896581E-04  5.63079583E-05
  1.47916379E-03  5.79234135E-04 -8.32944681E-04 -8.77994939E-04 -3.55230456E-04
  5.55342102E-05 -7.58230570E-04 -1.29778594E-04 -1.23535830E-04  6.35078888E-04
 -5.05589210E-06  5.64214779E-06 -9.23940486E-06 -1.25401515E-05 -7.26354672E-05
  8.52712150E-04  6.80379866E-03  2.52870310E-05 -1.38931439E-05  3.63137426E-05
 -9.69628736E-05  5.07067284E-05 -1.33332791E-04  1.82168794E-04 -7.13743234E-05
  1.95396462E-04 -1.40517318E-03  7.43714923E-04 -1.95270091E-03 -1.53535355E-03
  7.05245384E-04 -1.88601593E-03 -8.10732743E-05 -1.02757898E-04  1.25644550E-04
 -1.14030526E-04  2.39945908E-05  3.42000422E-04  4.76024593E-04 -5.90702527E-04
  6.01887385E-04 -1.00056782E-04  1.64104966E-04 -7.90428947E-04 -3.55396930E-04
 -9.50862138E-05  3.73034215E-04  4.56030707E-04  8.33613673E-05  3.50951371E-01
  4.57760591E-01  2.69271507E-02 -1.42532865E-02  5.10269423E-03 -3.87485913E-04
 -3.28832734E-04  6.92865150E-04  2.58169613E-03  1.69733639E-03 -3.48075598E-03
  9.34883382E-04  3.88284209E-04 -7.38266296E-04  2.30097866E-04  7.70379504E-05
 -5.08508491E-04  5.62054155E-04  6.48880424E-05 -6.77059824E-04  1.72249126E-03
  2.85801256E-04  9.72662500E-04 -6.17576698E-04  1.05601466E-04 -8.09084403E-04
  2.01151828E-04 -3.56028638E-04  2.57374366E-04  4.94529866E-04  3.21645975E-04
 -5.43322316E-04 -2.18051061E-03 -9.94136604E-04 -6.53046208E-04 -6.43734600E-04
  1.37527816E-03 -5.66668890E-04 -1.67861895E-03 -6.09056008E-04 -9.57628460E-04
  4.19734450E-04 -1.12895905E-03 -6.26445058E-04 -1.90954099E-03 -9.14927996E-04
 -9.12692255E-04  5.31883783E-04 -1.38034013E-03 -6.16780504E-04 -2.37691649E-03
 -1.11826069E-03  1.84290190E-03  1.61591886E-04 -6.32744997E-05 -7.25980199E-05
 -1.75135738E-04  3.77570554E-03 -1.36013424E-02  1.03551132E-03  9.11177052E-04
  7.51478725E-05 -1.96599284E-05 -1.09299449E-02 -8.37828485E-04  8.89235356E-05
 -8.52416500E-04  2.07409447E-04 -6.21765745E-04  1.37183167E-04  4.79012535E-05
  2.85952643E-05 -2.78470242E-04 -6.27388366E-05  2.93398237E-03 -1.25485032E-04
 -2.81911438E-04 -4.53101359E-03 -6.02720724E-04 -6.66891333E-05  7.11600672E-04
  6.30095285E-05  7.48894699E-05  8.71903104E-05 -1.00306641E-03 -2.70471283E-04
 -2.87845885E-01 -2.38841131E-01  8.06380436E-01  3.42596549E-02  9.68131736E-03
 -2.52858747E-03  1.27411780E-03 -3.36477424E-03 -1.72104121E-03  8.67200105E-04
 -2.29018805E-03  1.00777410E-03 -5.07815877E-04  1.34163442E-03 -6.98165929E-03
  3.51975238E-03 -9.29741084E-03 -1.86891656E-04  9.50519139E-05 -2.51109960E-04
  4.54613230E-06 -6.29621418E-04 -4.79895776E-04  7.55591601E-04  4.00848207E-04
  9.01060722E-05 -3.31232253E-03 -2.69049385E-03  4.16866709E-03  2.14249187E-03
 -3.92991920E-04  1.98591231E-03  1.02610264E-03  1.06580003E-04 -8.11304475E-04
 -1.39083218E-03 -1.82733938E-04 -7.26433905E-05 -1.75147074E-04  3.77648058E-03
 -1.36078780E-02  1.03415676E-03 -3.51018687E-04 -3.57343706E-04  7.65140673E-04
  4.06191348E-03  4.30059424E-03 -9.23562872E-03 -3.27791063E-04  3.87577715E-04
 -9.49123435E-04 -1.50929797E-04  1.90502895E-04  1.83299643E-04 -4.28403910E-05
 -9.51310830E-05 -3.19540957E-03  2.90742665E-03  3.00840018E-03  4.83778362E-04
 -1.29223178E-03 -2.32224134E-04  7.05763427E-04  7.89935954E-04 -5.61196157E-05
 -6.28475496E-04 -7.86007806E-05  1.65305068E-04 -8.94866335E-05 -7.43262424E-04
  3.28804100E-05 -8.92063976E-05 -2.07350422E-05  3.28105557E-05 -3.03871700E-05
 -5.16633789E-04 -9.17501910E-04 -2.73078462E-04 -6.98568443E-05  1.14959597E-04
 -3.04609052E-05 -5.17039268E-04 -9.17824215E-04  2.16916782E-04  9.80798556E-05
 -1.89788724E-04 -8.95959802E-05 -7.43514244E-04  3.31890563E-05  6.60587744E-05
  3.24780973E-05 -6.37267302E-05  1.34800945E-04  2.06684114E-04  1.68571809E-03
 -1.40850965E-02 -1.58006262E-03 -3.89103199E-05 -2.02565915E-05  4.00207951E-05
 -1.19334813E-02 -8.29774575E-04 -9.73844767E-05 -7.75056747E-04 -2.96541242E-04
  5.52065493E-04  6.24589918E-05  7.14586058E-05  5.56119799E-05 -1.95786713E-04
 -6.17109181E-05  2.53683952E-03  1.97023013E-05 -6.68031087E-04 -3.10720138E-03
 -4.43859636E-04 -2.29689963E-05 -2.61875083E-04  2.80779496E-05 -1.29573500E-05
  1.02512990E-04  1.70575392E-04  4.33093635E-05  1.42416496E-08  2.92047503E-09
 -7.11092641E-08 -3.07526497E-07 -1.05507637E-06  5.82046650E-01  1.99819021E-01
 -3.61734174E-01  2.77707483E-01  9.53391271E-02 -1.72590981E-01  6.55049939E-02