0003_q000_m01_k00_opt_uwb97xd_def2svpd/0003_q000_m01_k00_force_uhf_def2s
Force     UHF                                                         Gen                 
Number of atoms                            I                7
Info1-9                                    I   N=           9
          13           9           0           0           0         100
           5           1           2
Full Title                                 C   N=           8
0003_q000_m01_k00_opt_uwb97xd_def2svpd/0003_q000_m01_k00_for
ce_uhf_def2svpd stable-force        
Route                                      C   N=          15
#p uhf/chkbasis force guess=read geom=check scf=(maxcycle=90
0,verytightlineq,xqc) integral=grid=ultrafine symmetry=None 
density=current pop=(cm5,hlygat,mbs,npa) output=wfx         
Charge                                     I                0
Multiplicity                               I                1
Number of electrons                        I               32
Number of alpha electrons                  I               16
Number of beta electrons                   I               16
Number of basis functions                  I               99
Number of independent functions            I               99
Number of point charges in /Mol/           I                0
Number of translation vectors              I                0
Atomic numbers                             I   N=           7
           6          16           6           1           1           1
           1
Nuclear charges                            R   N=           7
  6.00000000E+00  1.60000000E+01  6.00000000E+00  1.00000000E+00  1.00000000E+00
  1.00000000E+00  1.00000000E+00
Current cartesian coordinates              R   N=          21
  1.85917402E+00 -6.15268432E-02  9.23282726E-02  4.92676194E+00  1.87460277E-01
  3.55239128E-02  6.09875638E+00  1.39121255E+00 -2.54358053E+00  1.07793953E+00
 -8.64605860E-01  1.81365494E+00  6.49701559E-01  5.25765681E-01 -1.46546666E+00
  4.94204756E+00  1.99646575E+00 -4.13423228E+00  8.14558359E+00  1.55646016E+00
 -2.58103217E+00
Number of symbols in /Mol/                 I                0
Int Atom Types                             I   N=           7
           0           0           0           0           0           0
           0
Force Field                                I                0
Atom Types                                 C   N=           7
                                                            
                        
MM charges                                 R   N=           7
  0.00000000E+00  0.00000000E+00  0.00000000E+00  0.00000000E+00  0.00000000E+00
  0.00000000E+00  0.00000000E+00
Integer atomic weights                     I   N=           7
          12          32          12           1           1           1
           1
Real atomic weights                        R   N=           7
  1.20000000E+01  3.19720718E+01  1.20000000E+01  1.00782504E+00  1.00782504E+00
  1.00782504E+00  1.00782504E+00
Atom fragment info                         I   N=           7
           0           0           0           0           0           0
           0
Atom residue num                           I   N=           7
           0           0           0           0           0           0
           0
Nuclear spins                              I   N=           7
           0           0           0           1           1           1
           1
Nuclear ZEff                               R   N=           7
 -3.60000000E+00 -1.36000000E+01 -3.60000000E+00 -1.00000000E+00 -1.00000000E+00
 -1.00000000E+00 -1.00000000E+00
Nuclear ZNuc                               R   N=           7
  6.00000000E+00  1.60000000E+01  6.00000000E+00  1.00000000E+00  1.00000000E+00
  1.00000000E+00  1.00000000E+00
Nuclear QMom                               R   N=           7
  0.00000000E+00  0.00000000E+00  0.00000000E+00  0.00000000E+00  0.00000000E+00
  0.00000000E+00  0.00000000E+00
Nuclear GFac                               R   N=           7
  0.00000000E+00  0.00000000E+00  0.00000000E+00  2.79284600E+00  2.79284600E+00
  2.79284600E+00  2.79284600E+00
MicOpt                                     I   N=           7
          -1          -1          -1          -1          -1          -1
          -1
Number of residues                         I                0
Number of secondary structures             I                0
Number of contracted shells                I               43
Number of primitive shells                 I               73
Pure/Cartesian d shells                    I                0
Pure/Cartesian f shells                    I                0
Highest angular momentum                   I                2
Largest degree of contraction              I                5
Shell types                                I   N=          43
           0           0           0           0           1           1
          -2          -2           0           0           0           0
           0           1           1           1           1          -2
          -2           0           0           0           0           1
           1          -2          -2           0           0           1
           1           0           0           1           1           0
           0           1           1           0           0           1
           1
Number of primitives per shell             I   N=          43
           5           1           1           1           3           1
           1           1           5           3           1           1
           1           5           1           1           1           1
           1           5           1           1           1           3
           1           1           1           3           1           1
           1           3           1           1           1           3
           1           1           1           3           1           1
           1
Shell to atom map                          I   N=          43
           1           1           1           1           1           1
           1           1           2           2           2           2
           2           2           2           2           2           2
           2           3           3           3           3           3
           3           3           3           4           4           4
           4           5           5           5           5           6
           6           6           6           7           7           7
           7
Primitive exponents                        R   N=          73
  1.23840169E+03  1.86290050E+02  4.22511763E+01  1.16765579E+01  3.59305065E+00
  4.02451474E-01  1.30901827E-01  6.70535403E-02  9.46809706E+00  2.01035451E+00
  5.47710047E-01  1.52686138E-01  8.00000000E-01  1.17131851E-01  9.18493030E+03
  1.38151055E+03  3.13871476E+02  8.80538706E+01  2.70399149E+01  4.56487313E+01
  4.96645223E+00  2.01162420E+00  3.56610770E-01  1.35072215E-01  4.49998235E-02
  2.61982334E+02  6.13068947E+01  1.91037299E+01  6.65677204E+00  2.39596352E+00
  6.17761617E-01  1.69933769E-01  4.17067937E-02  5.50000000E-01  1.01728537E-01
  1.23840169E+03  1.86290050E+02  4.22511763E+01  1.16765579E+01  3.59305065E+00
  4.02451474E-01  1.30901827E-01  6.70535403E-02  9.46809706E+00  2.01035451E+00
  5.47710047E-01  1.52686138E-01  8.00000000E-01  1.17131851E-01  1.30107010E+01
  1.96225720E+00  4.44537960E-01  1.21949620E-01  8.00000000E-01  1.17040991E-01
  1.30107010E+01  1.96225720E+00  4.44537960E-01  1.21949620E-01  8.00000000E-01
  1.17040991E-01  1.30107010E+01  1.96225720E+00  4.44537960E-01  1.21949620E-01
  8.00000000E-01  1.17040991E-01  1.30107010E+01  1.96225720E+00  4.44537960E-01
  1.21949620E-01  8.00000000E-01  1.17040991E-01
Contraction coefficients                   R   N=          73
  5.51736505E-03  4.10888286E-02  1.82253821E-01  4.68284594E-01  4.45758173E-01
  1.00000000E+00  1.00000000E+00  1.00000000E+00  5.68883320E-02  3.12940593E-01
  7.60650165E-01  1.00000000E+00  1.00000000E+00  1.00000000E+00 -5.47294661E-03
 -4.09544022E-02 -1.84758290E-01 -4.75672806E-01 -4.34951536E-01 -9.19040458E-02
  5.56987772E-01  5.11154683E-01  1.00000000E+00  1.00000000E+00  1.00000000E+00
 -9.18305466E-03 -6.59022265E-02 -2.45877845E-01 -4.82314711E-01 -3.89563144E-01
  1.00000000E+00  1.00000000E+00  1.00000000E+00  1.00000000E+00  1.00000000E+00
  5.51736505E-03  4.10888286E-02  1.82253821E-01  4.68284594E-01  4.45758173E-01
  1.00000000E+00  1.00000000E+00  1.00000000E+00  5.68883320E-02  3.12940593E-01
  7.60650165E-01  1.00000000E+00  1.00000000E+00  1.00000000E+00  3.34854848E-02
  2.34721871E-01  8.13770285E-01  1.00000000E+00  1.00000000E+00  1.00000000E+00
  3.34854848E-02  2.34721871E-01  8.13770285E-01  1.00000000E+00  1.00000000E+00
  1.00000000E+00  3.34854848E-02  2.34721871E-01  8.13770285E-01  1.00000000E+00
  1.00000000E+00  1.00000000E+00  3.34854848E-02  2.34721871E-01  8.13770285E-01
  1.00000000E+00  1.00000000E+00  1.00000000E+00
Coordinates of each shell                  R   N=         129
  1.85917402E+00 -6.15268432E-02  9.23282726E-02  1.85917402E+00 -6.15268432E-02
  9.23282726E-02  1.85917402E+00 -6.15268432E-02  9.23282726E-02  1.85917402E+00
 -6.15268432E-02  9.23282726E-02  1.85917402E+00 -6.15268432E-02  9.23282726E-02
  1.85917402E+00 -6.15268432E-02  9.23282726E-02  1.85917402E+00 -6.15268432E-02
  9.23282726E-02  1.85917402E+00 -6.15268432E-02  9.23282726E-02  4.92676194E+00
  1.87460277E-01  3.55239128E-02  4.92676194E+00  1.87460277E-01  3.55239128E-02
  4.92676194E+00  1.87460277E-01  3.55239128E-02  4.92676194E+00  1.87460277E-01
  3.55239128E-02  4.92676194E+00  1.87460277E-01  3.55239128E-02  4.92676194E+00
  1.87460277E-01  3.55239128E-02  4.92676194E+00  1.87460277E-01  3.55239128E-02
  4.92676194E+00  1.87460277E-01  3.55239128E-02  4.92676194E+00  1.87460277E-01
  3.55239128E-02  4.92676194E+00  1.87460277E-01  3.55239128E-02  4.92676194E+00
  1.87460277E-01  3.55239128E-02  6.09875638E+00  1.39121255E+00 -2.54358053E+00
  6.09875638E+00  1.39121255E+00 -2.54358053E+00  6.09875638E+00  1.39121255E+00
 -2.54358053E+00  6.09875638E+00  1.39121255E+00 -2.54358053E+00  6.09875638E+00
  1.39121255E+00 -2.54358053E+00  6.09875638E+00  1.39121255E+00 -2.54358053E+00
  6.09875638E+00  1.39121255E+00 -2.54358053E+00  6.09875638E+00  1.39121255E+00
 -2.54358053E+00  1.07793953E+00 -8.64605860E-01  1.81365494E+00  1.07793953E+00
 -8.64605860E-01  1.81365494E+00  1.07793953E+00 -8.64605860E-01  1.81365494E+00
  1.07793953E+00 -8.64605860E-01  1.81365494E+00  6.49701559E-01  5.25765681E-01
 -1.46546666E+00  6.49701559E-01  5.25765681E-01 -1.46546666E+00  6.49701559E-01
  5.25765681E-01 -1.46546666E+00  6.49701559E-01  5.25765681E-01 -1.46546666E+00
  4.94204756E+00  1.99646575E+00 -4.13423228E+00  4.94204756E+00  1.99646575E+00
 -4.13423228E+00  4.94204756E+00  1.99646575E+00 -4.13423228E+00  4.94204756E+00
  1.99646575E+00 -4.13423228E+00  8.14558359E+00  1.55646016E+00 -2.58103217E+00
  8.14558359E+00  1.55646016E+00 -2.58103217E+00  8.14558359E+00  1.55646016E+00
 -2.58103217E+00  8.14558359E+00  1.55646016E+00 -2.58103217E+00
Num ILSW                                   I              100
ILSW                                       I   N=         100
           1           0           0           0           2           0
           0           0           0           0           0          -1
           5           0           0           0           2           0
           0           0           0           0           1           0
           1           1           0           0           0           0
           0           0      100000           0          -1           0
           0           0           0           0           0           0
           0           0           0           1           0           0
           0 -2000000000           1           0           0           0
           0           0           4          52           0           0
           0           0           0           0           0           0
           0           0           0           7           0           1
           0           0           0           0           0           0
           0           0           0           0           0           0
           0           0           0           0           0           0
           0           0           0           0           0           0
           0           0           0           0
Num RLSW                                   I               52
RLSW                                       R   N=          52
  1.00000000E+00  1.00000000E+00  1.00000000E+00  1.00000000E+00  1.00000000E+00
  0.00000000E+00  0.00000000E+00  1.00000000E+00  0.00000000E+00  0.00000000E+00
  0.00000000E+00  0.00000000E+00  1.00000000E+00  0.00000000E+00  0.00000000E+00
  0.00000000E+00  0.00000000E+00  1.00000000E+00  0.00000000E+00  0.00000000E+00
  0.00000000E+00  0.00000000E+00  1.00000000E+00  0.00000000E+00  0.00000000E+00
  0.00000000E+00  0.00000000E+00  1.00000000E+00  0.00000000E+00  0.00000000E+00
  0.00000000E+00  0.00000000E+00  1.00000000E+00  0.00000000E+00  0.00000000E+00
  0.00000000E+00  0.00000000E+00  0.00000000E+00  1.00000000E+00  1.00000000E+00
  0.00000000E+00  1.00000000E+00  0.00000000E+00  0.00000000E+00  0.00000000E+00
  0.00000000E+00  0.00000000E+00  0.00000000E+00  0.00000000E+00  0.00000000E+00
  0.00000000E+00  0.00000000E+00
MxBond                                     I                3
NBond                                      I   N=           7
           3           2           3           1           1           1
           1
IBond                                      I   N=          21
           2           4           5           1           3           0
           2           6           7           1           0           0
           1           0           0           3           0           0
           3           0           0
RBond                                      R   N=          21
  2.00000000E+00  1.00000000E+00  1.00000000E+00  2.00000000E+00  2.00000000E+00
  0.00000000E+00  2.00000000E+00  1.00000000E+00  1.00000000E+00  1.00000000E+00
  0.00000000E+00  0.00000000E+00  1.00000000E+00  0.00000000E+00  0.00000000E+00
  1.00000000E+00  0.00000000E+00  0.00000000E+00  1.00000000E+00  0.00000000E+00
  0.00000000E+00
Virial Ratio                               R      2.000896233268281E+00
SCF Energy                                 R     -4.753226372306417E+02
Total Energy                               R     -4.753226372306417E+02
S**2                                       R      7.408172902625516E-01
S**2 after annihilation                    R      1.324730742774156E-01
RMS Force                                  R      1.779844045388409E-02
Job Status                                 I                1
Nuclear derivative order                   I                1
External E-field                           R   N=          35
  0.00000000E+00  0.00000000E+00  0.00000000E+00  0.00000000E+00  0.00000000E+00
  0.00000000E+00  0.00000000E+00  0.00000000E+00  0.00000000E+00  0.00000000E+00
  0.00000000E+00  0.00000000E+00  0.00000000E+00  0.00000000E+00  0.00000000E+00
  0.00000000E+00  0.00000000E+00  0.00000000E+00  0.00000000E+00  0.00000000E+00
  0.00000000E+00  0.00000000E+00  0.00000000E+00  0.00000000E+00  0.00000000E+00
  0.00000000E+00  0.00000000E+00  0.00000000E+00  0.00000000E+00  0.00000000E+00
  0.00000000E+00  0.00000000E+00  0.00000000E+00  0.00000000E+00  0.00000000E+00
IOpCl                                      I                1
IROHF                                      I                0
Alpha Orbital Energies                     R   N=          99
 -9.19654563E+01 -1.12588050E+01 -1.12376872E+01 -8.99711600E+00 -6.68595826E+00
 -6.68350114E+00 -6.68290860E+00 -1.11405678E+00 -9.33995660E-01 -7.62702097E-01
 -6.38674174E-01 -6.22493093E-01 -5.58530562E-01 -4.96929940E-01 -4.52996486E-01
 -3.13961847E-01  9.73867689E-02  1.00422911E-01  1.03813762E-01  1.06067383E-01
  1.31683971E-01  1.50143466E-01  1.55962859E-01  1.93877839E-01  2.20853687E-01
  2.47690558E-01  2.66778989E-01  2.73107964E-01  2.97394888E-01  3.12378199E-01
  3.23207928E-01  3.27138016E-01  3.35093082E-01  3.36283332E-01  3.50554052E-01
  3.52930588E-01  3.96870880E-01  4.11672016E-01  4.39973214E-01  4.44043555E-01
  4.55560102E-01  4.57927340E-01  4.77426044E-01  4.96219798E-01  4.99233370E-01
  5.08190556E-01  5.30246969E-01  5.55181671E-01  5.61974751E-01  5.67566549E-01
  5.78186731E-01  5.93575483E-01  6.42011387E-01  6.55816342E-01  6.74466548E-01
  7.37510881E-01  9.47794473E-01  9.61051584E-01  1.00878039E+00  1.02430281E+00
  1.03660226E+00  1.05338664E+00  1.07937690E+00  1.10325983E+00  1.13141050E+00
  1.16250862E+00  1.18769485E+00  1.20600207E+00  1.22364927E+00  1.27673431E+00
  1.30826226E+00  1.35803184E+00  1.36932341E+00  1.44369409E+00  1.52321874E+00
  1.57307172E+00  1.67017620E+00  1.73058249E+00  1.75993928E+00  1.87277832E+00
  1.89930570E+00  1.95314501E+00  2.01839676E+00  2.08884082E+00  2.12288524E+00
  2.34208066E+00  2.36438134E+00  2.40581097E+00  2.43845024E+00  2.44121288E+00
  2.48111642E+00  2.57811242E+00  2.61502785E+00  2.76458108E+00  2.85148768E+00
  3.31493123E+00  3.32503308E+00  3.35015310E+00  3.35503369E+00
Beta Orbital Energies                      R   N=          99
 -9.19654566E+01 -1.12587940E+01 -1.12376969E+01 -8.99711633E+00 -6.68595836E+00
 -6.68350162E+00 -6.68290963E+00 -1.11406180E+00 -9.33986222E-01 -7.62705463E-01
 -6.38674007E-01 -6.22494014E-01 -5.58531333E-01 -4.96939686E-01 -4.52996173E-01
 -3.13943115E-01  9.73864844E-02  1.00422846E-01  1.03814255E-01  1.06061814E-01
  1.31685185E-01  1.50144723E-01  1.55961663E-01  1.93877820E-01  2.20855359E-01
  2.47690972E-01  2.66779627E-01  2.73108245E-01  2.97395760E-01  3.12379252E-01
  3.23208507E-01  3.27138457E-01  3.35093096E-01  3.36282225E-01  3.50554097E-01
  3.52928847E-01  3.96870427E-01  4.11671688E-01  4.39974503E-01  4.44043087E-01
  4.55556091E-01  4.57931558E-01  4.77425072E-01  4.96219060E-01  4.99234685E-01
  5.08190013E-01  5.30246978E-01  5.55181547E-01  5.61974963E-01  5.67567616E-01
  5.78186993E-01  5.93575100E-01  6.42010933E-01  6.55817129E-01  6.74465310E-01
  7.37510110E-01  9.47799693E-01  9.61050837E-01  1.00877973E+00  1.02430630E+00
  1.03660237E+00  1.05337356E+00  1.07938079E+00  1.10326061E+00  1.13140994E+00
  1.16251090E+00  1.18769827E+00  1.20600323E+00  1.22364424E+00  1.27673030E+00
  1.30826708E+00  1.35802442E+00  1.36932532E+00  1.44369416E+00  1.52321803E+00
  1.57307069E+00  1.67017828E+00  1.73058142E+00  1.75993893E+00  1.87278912E+00
  1.89929654E+00  1.95314523E+00  2.01839678E+00  2.08884595E+00  2.12287858E+00
  2.34208080E+00  2.36440294E+00  2.40583625E+00  2.43842830E+00  2.44119575E+00
  2.48111648E+00  2.57809872E+00  2.61504350E+00  2.76459628E+00  2.85147327E+00
  3.31492805E+00  3.32503357E+00  3.35015297E+00  3.35503781E+00
Alpha MO coefficients                      R   N=        9801
  9.47304591E-05 -8.78285608E-04  1.33486662E-02  1.19401093E-02 -2.42105531E-04
 -3.18377742E-05  3.25327103E-05  2.62794712E-03  1.55109552E-03 -3.13306237E-03
  3.39650866E-04  1.90926718E-05 -8.65009559E-05 -4.18251988E-04 -6.70929747E-05
 -1.18392521E-04  3.41532662E-03 -6.67392507E-04  2.11499499E-03 -1.15658247E-03
  9.94231479E-01 -2.20637411E-02  1.49635346E-02 -2.95657158E-02 -1.10181192E-02
 -9.42024521E-05  4.75396880E-05 -1.25574653E-04 -2.95851692E-04  1.50375682E-04
 -3.96926990E-04  1.81192705E-03 -9.11684592E-04  2.40923832E-03  1.08106015E-03
 -5.44197227E-04  1.43814382E-03 -3.39899784E-05 -7.19638362E-05  3.39149128E-05
 -1.87322809E-05  2.75212168E-05  7.38297380E-04  5.32167079E-03  2.10696964E-03
 -4.10927889E-03 -2.99061713E-03  9.48800506E-05 -8.79502339E-04  1.33476339E-02
  1.19379218E-02  1.21722591E-04  9.30222950E-05 -1.94240470E-04 -4.16559274E-03
 -7.75778188E-04  1.08962248E-03 -3.03232020E-04  3.37115123E-04  2.58960463E-04
  1.07033724E-04 -1.39480778E-04  2.87179653E-03  1.93518231E-03 -2.27187281E-03
 -3.32246744E-04 -8.19687687E-04 -2.01922305E-04  5.22969257E-03 -1.57816518E-04
  1.38402246E-05 -5.86230973E-05  1.54211485E-03  6.69701449E-04 -1.28483121E-03
 -3.64652086E-04 -1.36392798E-02 -2.49962152E-04 -2.13239778E-08 -4.20567103E-05
 -4.65522225E-04  1.00958364E-03 -2.40486461E-03 -3.64358387E-04 -1.36398653E-02
  4.78412928E-05  1.01930585E-04 -2.27070211E-04 -2.29629336E-03  3.82621740E-04
 -1.26789421E-03 -2.01586209E-04  5.23451347E-03 -2.80895346E-06  6.69950193E-05
 -1.55068982E-04 -1.87663174E-03 -5.01703709E-04  8.41856893E-04  9.89887962E-01
  4.53801556E-02 -9.41463735E-02 -1.78299064E-02  4.21853323E-05 -2.75813442E-05
  7.24696165E-05  7.83127923E-03  2.08648885E-03 -3.50076696E-03  2.08112899E-04
  1.23696708E-04 -3.13446615E-04  2.47943530E-04 -7.50397586E-06 -5.90409415E-03
  3.06019061E-03  6.70791709E-03 -1.68871961E-03 -1.79560459E-03  5.96373409E-05
  4.21275982E-04 -1.56301414E-03  1.33637839E-02 -7.11911291E-04  1.36686771E-04
  1.37671159E-05 -8.62902853E-06  4.37943544E-04  9.16598818E-06  5.31130671E-05
  1.46987312E-04  6.13154371E-04 -1.39047431E-03 -9.18548946E-04 -6.57018079E-04
  1.35971443E-03  6.65790706E-04 -9.32185137E-05 -7.54030938E-05 -1.01983947E-03
 -1.07105085E-04 -6.74772472E-04 -9.07059728E-04  1.61915370E-04  6.75927122E-04
  4.90267430E-04 -1.03216126E-03 -1.12198590E-03  9.58548564E-04  1.21129620E-02
  1.15300482E-04  1.05138865E-04 -2.22803043E-04  4.28901472E-03  4.24113683E-04
 -2.58692474E-04 -3.22818281E-05  1.80861965E-04  2.11661611E-05  5.20375490E-05
 -7.18925496E-05 -5.90783497E-03 -2.47262516E-03  1.70228157E-03  6.48372611E-03
  1.97569084E-03 -8.76233736E-04  5.18267138E-02 -4.67397505E-04 -3.32288129E-04
  6.87943105E-04  5.57545665E-03  4.78043675E-03 -1.00959001E-02 -1.22972122E-03
  3.61484001E-02 -5.03728518E-04  2.77797475E-04 -7.25071837E-04  8.21658532E-03
 -1.65884876E-03  5.20684569E-03 -1.27158138E-04  6.70155812E-03  2.09508231E-04
  1.03377072E-04 -2.02968366E-04  3.65333551E-03  1.88384529E-04  1.80393046E-04
 -5.14033728E-04 -1.87230098E-02  2.96139147E-05 -5.03025572E-06  1.64122761E-05
  1.89832624E-03 -7.32893226E-04  2.00386373E-03  1.18569283E-03 -9.43672559E-04
  6.90761970E-04  1.10111584E-02 -2.46537040E-04 -2.55598961E-05  1.73704249E-05
 -1.55408742E-03 -1.45729217E-03  3.09947464E-03  1.24230366E-04  8.65947331E-05
 -6.71449027E-05 -7.14181768E-05 -4.61182088E-05  3.35493956E-03 -6.55329061E-03
 -3.14499483E-03 -1.22838596E-03  2.77651911E-03  5.91456966E-05  4.05466322E-04
 -1.37613195E-03  1.11104551E-02 -5.80981868E-04 -6.10796407E-05 -5.29649000E-05
  1.11861082E-04 -1.24209386E-04 -1.81553362E-04  3.97794353E-04 -1.48420264E-03
 -1.31645018E-04  5.29529203E-05  1.55851329E-03  2.34833223E-04 -2.78626516E-04
 -7.47910382E-04  6.11668625E-04  7.10499991E-04  8.79784581E-05 -2.76264703E-04
 -1.35513576E-05 -1.03487880E-03 -1.27658406E-04  5.28157094E-05  4.63282215E-04
  9.90780805E-01  4.14968081E-02 -8.52226421E-02 -1.67573020E-02  3.06721713E-05
 -4.10875027E-05  9.90125613E-05 -6.11907318E-03 -2.79007527E-03  5.40979066E-03
  4.40747638E-04  2.00434271E-04 -1.02534811E-03  1.18196408E-03  1.18426204E-04
  2.93148566E-03 -1.43841128E-03  1.65762482E-03 -8.37600425E-03 -6.54475841E-04
 -4.65154752E-04 -1.66809031E-02  6.30615469E-07 -1.20003869E-05  2.79630276E-05
  1.32495679E-03 -8.01354850E-04  2.07583087E-03 -1.34986530E-04  6.10660434E-03
 -2.60777951E-04 -5.95347353E-05  9.33155167E-05 -9.81770488E-04 -1.31419662E-03
  2.86533150E-03 -1.18992973E-03  3.32296453E-02 -5.06490994E-04  2.42562873E-04
 -6.44949199E-04  1.97784688E-03 -3.36896241E-03  8.10393732E-03 -8.68989539E-04
  4.77281951E-02  8.05314393E-04  1.24689287E-04 -1.52260494E-04 -1.12061039E-02
 -1.27048118E-03  1.05323984E-03 -1.96354374E-04 -6.72131542E-04  1.07839082E-02
  1.11879441E-02 -5.57017861E-05 -7.01617782E-06  6.68107486E-06  1.88088834E-03
  1.48998424E-03 -3.11842342E-03  3.46362744E-05 -2.45589102E-05  5.49389086E-05
 -1.66004936E-04 -1.54436323E-05  3.44635432E-04  3.41639393E-03 -6.83805005E-04
  1.35200977E-03 -1.26865424E-03  3.07430438E-01  1.02751918E+00  3.62572001E-02
 -2.98197407E-02 -1.02208718E-02  3.48970712E-03 -1.99568791E-03  5.19228814E-03
 -8.39351313E-04  4.97010384E-04 -1.28807925E-03  1.48023887E-03 -6.13537355E-04
  1.66521912E-03  1.15496084E-03 -5.50797450E-04  1.46581447E-03  1.89395897E-05
 -3.24275032E-04 -1.94580402E-04  2.63444774E-04  1.86285424E-04  7.75283943E-04
  5.26673060E-03  2.05272469E-03 -4.08304392E-03 -2.96113488E-03 -1.99071450E-04
 -7.62519338E-04  1.05022800E-02  1.08812298E-02  5.79415808E-05  4.80598036E-05
 -1.01231481E-04 -4.02469864E-03 -4.66274265E-04  3.99706827E-04 -1.28467969E-04
  5.23859646E-05  1.58407166E-04 -6.27309058E-05 -3.70426325E-05  2.42001818E-03
  2.23733121E-03 -1.77347199E-03 -4.20488026E-04 -9.80158855E-04  1.31104799E-05
  5.80184752E-03  6.13139896E-05  6.54126021E-05 -1.40646462E-04  1.37110742E-03
  7.92821368E-04 -1.59769027E-03 -2.31888543E-04 -1.27311168E-02 -5.27027378E-06
  1.61453511E-06 -4.58920287E-06 -5.78674127E-04  8.46209185E-04 -2.04729987E-03
 -2.12097479E-04 -1.26459872E-02  4.87911328E-06  1.71648398E-06 -3.16435388E-06
 -2.00960058E-03  3.94310319E-04 -1.24648435E-03  4.19805981E-05  6.23231309E-03
 -1.70932985E-04 -1.37730742E-05  2.97993343E-06 -2.19287989E-03 -4.65449250E-04
  7.05181809E-04  1.71796733E-04 -1.07736961E-04 -1.40946971E-02 -2.84766085E-03
  1.08621523E-04  6.35932583E-05 -1.28329963E-04 -1.43762686E-03 -1.25570847E-03
  2.65301811E-03 -4.15148476E-04  5.96661856E-05  3.95489355E-05  6.50068315E-04
  6.83049227E-05  8.82226461E-04 -1.14561820E-02 -1.21665595E-03 -1.53279718E-03
  4.80712835E-03 -7.78331200E-04 -2.92756675E-03  1.75055684E-03 -6.78687445E-03
  4.74371195E-04 -6.15068290E-01 -3.43005151E-01  6.87170252E-01  2.95253510E-02
  1.60335939E-02 -3.19921763E-02 -1.61997222E-02 -8.67070720E-03  1.72668033E-02
 -1.63387197E-03 -7.34727417E-04  1.41940206E-03  9.49604199E-04 -4.77020055E-04
 -4.77331705E-04 -8.38561868E-04  9.98703526E-05 -2.25702374E-03 -5.24183271E-04
  1.27601508E-03  1.40034907E-03  3.94452244E-04 -2.48652670E-04  4.15427918E-05
  1.95982917E-02  1.39966015E-03  1.09718183E-04  7.83518956E-05 -1.62265457E-04
 -4.05598500E-03 -1.78150509E-03  3.42620937E-03 -5.62405325E-04  5.34049320E-04
  5.21095017E-04  1.05071015E-04 -2.33923055E-04  5.95850237E-03  3.40234138E-03
 -2.86238474E-03 -4.24145275E-03 -2.01578038E-03 -8.07184379E-06 -1.12895190E-02
  5.61190840E-05  3.49904186E-06  1.47620847E-06  4.55326625E-03 -9.06521377E-04
  2.86177180E-03  2.86431968E-04  2.03661503E-02 -6.62672109E-05 -3.18683735E-05
  6.22316802E-05 -6.86867394E-04 -1.97097586E-03  4.42623649E-03 -2.57644425E-04
 -1.36326251E-02 -3.48617376E-05 -4.75974935E-06  4.94897763E-06 -4.33761908E-03
 -3.14902362E-05 -6.59303311E-04  3.88022604E-05  6.47889422E-03  7.80240309E-05
  3.93372375E-05 -7.74260777E-05  4.45819729E-05  1.27933888E-03 -2.93912715E-03
 -2.28510197E-04  3.82864633E-05  1.46415204E-02 -1.81354656E-03 -1.41140349E-04
  4.96072349E-05 -1.38158787E-04  7.19527876E-03  4.35683776E-04  2.07306590E-04
  3.47773629E-04  1.08132124E-04 -5.40525574E-05 -4.74520761E-04 -1.15034079E-04
 -2.81805606E-03 -4.27653948E-03  9.51705091E-04  2.22124841E-03  2.15815112E-03
 -2.17320882E-03 -8.11622290E-03  5.09947511E-03 -2.39132744E-02  1.54512759E-03
  7.65348609E-01 -1.97925333E-01  5.86853106E-01 -3.50290909E-02  8.70517326E-03
 -2.60406263E-02  1.88850294E-02 -4.49873822E-03  1.35763168E-02  1.27342100E-03
 -1.93978153E-04  6.61335088E-04 -7.73403862E-05  3.53192469E-04 -1.44285452E-05
  2.29949177E-04 -1.19716391E-04 -1.43193572E-03 -5.07255174E-03  9.92080577E-04
 -3.90713495E-04  2.12081785E-03 -9.28957969E-05 -6.79965127E-05  4.73815735E-03
 -2.95274106E-03 -1.49366749E-04  5.30824929E-05 -1.47146282E-04 -2.22935803E-04
 -2.17831416E-03  4.98053223E-03  1.04268237E-05  1.68505181E-04  1.35079065E-05
 -9.21741261E-06 -7.52888122E-05 -4.27159849E-03 -8.67920388E-03  1.41073247E-03
  2.98914899E-03  4.17678115E-03  5.03689238E-05 -6.00266286E-03 -1.24359957E-04
 -4.07023614E-05  7.29478872E-05  1.57358220E-03 -1.05498499E-03  2.69703460E-03
 -4.22852128E-05  6.94917807E-03 -7.75956192E-05 -2.14862037E-05  3.65429468E-05
  6.48247963E-04  1.76592443E-04 -3.00749726E-04  1.13001030E-04  1.69012069E-02
  1.02496878E-04  3.50486394E-05 -6.32547689E-05  2.19415516E-03 -2.30273922E-04
  8.99321185E-04  3.71827871E-05 -1.14134403E-02  8.87027354E-05  2.32492667E-05
 -3.84134871E-05  2.57140818E-03 -1.81247556E-03  4.61218400E-03  1.45919806E-07
 -3.51407233E-07 -6.96641889E-06  7.79048008E-06 -4.36895336E-06  5.96569284E-05
  2.59102907E-05  1.54615494E-04 -2.15071706E-03 -9.30308895E-04 -9.20062188E-07
  8.32205919E-05  5.27259433E-06 -2.81884961E-05  1.90911719E-04  7.38451176E-05
 -1.04229587E-03  6.84285902E-06  3.93564786E-04 -2.36505936E-03  9.33810997E-07
  3.48622889E-06 -1.92081453E-06  6.57001726E-06 -1.89425965E-06 -6.63774278E-02
  9.01725627E-01  3.90688343E-01  2.87152402E-03 -3.89895457E-02 -1.68929457E-02
 -8.44909175E-04  1.14091360E-02  4.94088363E-03  1.98517385E-05 -2.55298291E-04
 -1.12292645E-04  2.42082297E-04 -8.56499397E-06  2.62647914E-04  1.34221669E-04
  4.52173537E-05 -1.30394862E-03 -4.45507623E-04 -1.45465206E-03 -5.60135080E-04
 -1.37604118E-03  6.52131644E-09  1.13436479E-07 -1.22167050E-07 -3.57256114E-06
 -1.28320582E-05  1.78564075E-04  7.75603340E-05  1.50611778E-04 -2.12578899E-03
 -9.25345524E-04  1.52376339E-04 -5.18082168E-05  1.62189482E-04  1.00458649E-04
 -7.82718498E-05 -1.48157675E-03  5.84766111E-04 -1.57698450E-03 -1.00646889E-03
  9.20379948E-04  1.48067582E-07 -1.97059621E-06 -7.66315010E-06  1.06057929E-04
  4.60063372E-05  3.42349630E-05 -4.28304626E-04 -1.83794228E-04  4.19260301E-07