0004_q000_m01_k00_opt_uwb97xd_def2svpd/0004_q000_m01_k00_force_uwb97xd_d
Force     UwB97XD                                                     Gen                 
Number of atoms                            I                6
Info1-9                                    I   N=           9
          13           9           0           0           0         100
           5          18       -5802
Full Title                                 C   N=           8
0004_q000_m01_k00_opt_uwb97xd_def2svpd/0004_q000_m01_k00_for
ce_uwb97xd_def2svp stable-force     
Route                                      C   N=          15
#p uwb97xd/chkbasis force guess=read geom=check scf=(maxcycl
e=900,verytightlineq,xqc) integral=grid=ultrafine symmetry=N
one density=current pop=(cm5,hlygat,mbs,npa) output=wfx     
Charge                                     I                0
Multiplicity                               I                1
Number of electrons                        I               32
Number of alpha electrons                  I               16
Number of beta electrons                   I               16
Number of basis functions                  I               61
Number of independent functions            I               61
Number of point charges in /Mol/           I                0
Number of translation vectors              I                0
Atomic numbers                             I   N=           6
           6          16           7           1           1           1
Nuclear charges                            R   N=           6
  6.00000000E+00  1.60000000E+01  7.00000000E+00  1.00000000E+00  1.00000000E+00
  1.00000000E+00
Current cartesian coordinates              R   N=          18
  1.67863146E+00  2.68784369E-01  2.05840898E-01  4.73702225E+00  1.96852105E-01
  8.48289160E-02  6.24221873E+00  2.32416928E+00  1.45652951E+00  7.09165380E-01
 -1.25729983E+00 -7.80890272E-01  6.12793001E-01  1.72884379E+00  1.19782199E+00
  5.12841835E+00  3.62849725E+00  2.34675860E+00
Number of symbols in /Mol/                 I                0
Int Atom Types                             I   N=           6
           0           0           0           0           0           0
Force Field                                I                0
Atom Types                                 C   N=           6
                                                            
            
MM charges                                 R   N=           6
  0.00000000E+00  0.00000000E+00  0.00000000E+00  0.00000000E+00  0.00000000E+00
  0.00000000E+00
Integer atomic weights                     I   N=           6
          12          32          14           1           1           1
Real atomic weights                        R   N=           6
  1.20000000E+01  3.19720718E+01  1.40030740E+01  1.00782504E+00  1.00782504E+00
  1.00782504E+00
Atom fragment info                         I   N=           6
           0           0           0           0           0           0
Atom residue num                           I   N=           6
           0           0           0           0           0           0
Nuclear spins                              I   N=           6
           0           0           2           1           1           1
Nuclear ZEff                               R   N=           6
 -3.60000000E+00 -1.36000000E+01 -4.55000000E+00 -1.00000000E+00 -1.00000000E+00
 -1.00000000E+00
Nuclear ZNuc                               R   N=           6
  6.00000000E+00  1.60000000E+01  7.00000000E+00  1.00000000E+00  1.00000000E+00
  1.00000000E+00
Nuclear QMom                               R   N=           6
  0.00000000E+00  0.00000000E+00  2.04400000E+00  0.00000000E+00  0.00000000E+00
  0.00000000E+00
Nuclear GFac                               R   N=           6
  0.00000000E+00  0.00000000E+00  4.03761000E-01  2.79284600E+00  2.79284600E+00
  2.79284600E+00
MicOpt                                     I   N=           6
          -1          -1          -1          -1          -1          -1
Number of residues                         I                0
Number of secondary structures             I                0
Number of contracted shells                I               29
Number of primitive shells                 I               57
Pure/Cartesian d shells                    I                0
Pure/Cartesian f shells                    I                0
Highest angular momentum                   I                2
Largest degree of contraction              I                5
Shell types                                I   N=          29
           0           0           0           1           1          -2
           0           0           0           0           1           1
           1          -2           0           0           0           1
           1          -2           0           0           1           0
           0           1           0           0           1
Number of primitives per shell             I   N=          29
           5           1           1           3           1           1
           5           3           1           1           5           1
           1           1           5           1           1           3
           1           1           3           1           1           3
           1           1           3           1           1
Shell to atom map                          I   N=          29
           1           1           1           1           1           1
           2           2           2           2           2           2
           2           2           3           3           3           3
           3           3           4           4           4           5
           5           5           6           6           6
Primitive exponents                        R   N=          57
  1.23840169E+03  1.86290050E+02  4.22511763E+01  1.16765579E+01  3.59305065E+00
  4.02451474E-01  1.30901827E-01  9.46809706E+00  2.01035451E+00  5.47710047E-01
  1.52686138E-01  8.00000000E-01  9.18493030E+03  1.38151055E+03  3.13871476E+02
  8.80538706E+01  2.70399149E+01  4.56487313E+01  4.96645223E+00  2.01162420E+00
  3.56610770E-01  1.35072215E-01  2.61982334E+02  6.13068947E+01  1.91037299E+01
  6.65677204E+00  2.39596352E+00  6.17761617E-01  1.69933769E-01  5.50000000E-01
  1.71284159E+03  2.57648127E+02  5.84582459E+01  1.61983679E+01  5.00526008E+00
  5.87318566E-01  1.87645923E-01  1.35714702E+01  2.92573729E+00  7.99277508E-01
  2.19543480E-01  1.00000000E+00  1.30107010E+01  1.96225720E+00  4.44537960E-01
  1.21949620E-01  8.00000000E-01  1.30107010E+01  1.96225720E+00  4.44537960E-01
  1.21949620E-01  8.00000000E-01  1.30107010E+01  1.96225720E+00  4.44537960E-01
  1.21949620E-01  8.00000000E-01
Contraction coefficients                   R   N=          57
  5.51736505E-03  4.10888286E-02  1.82253821E-01  4.68284594E-01  4.45758173E-01
  1.00000000E+00  1.00000000E+00  5.68883320E-02  3.12940593E-01  7.60650165E-01
  1.00000000E+00  1.00000000E+00 -5.47294661E-03 -4.09544022E-02 -1.84758290E-01
 -4.75672806E-01 -4.34951536E-01 -9.19040458E-02  5.56987772E-01  5.11154683E-01
  1.00000000E+00  1.00000000E+00 -9.18305466E-03 -6.59022265E-02 -2.45877845E-01
 -4.82314711E-01 -3.89563144E-01  1.00000000E+00  1.00000000E+00  1.00000000E+00
 -5.44779958E-03 -4.06271746E-02 -1.81119623E-01 -4.68439756E-01 -4.46168463E-01
  1.00000000E+00  1.00000000E+00 -5.88481170E-02 -3.20246248E-01 -7.53282265E-01
  1.00000000E+00  1.00000000E+00  3.34854848E-02  2.34721871E-01  8.13770285E-01
  1.00000000E+00  1.00000000E+00  3.34854848E-02  2.34721871E-01  8.13770285E-01
  1.00000000E+00  1.00000000E+00  3.34854848E-02  2.34721871E-01  8.13770285E-01
  1.00000000E+00  1.00000000E+00
Coordinates of each shell                  R   N=          87
  1.67863146E+00  2.68784369E-01  2.05840898E-01  1.67863146E+00  2.68784369E-01
  2.05840898E-01  1.67863146E+00  2.68784369E-01  2.05840898E-01  1.67863146E+00
  2.68784369E-01  2.05840898E-01  1.67863146E+00  2.68784369E-01  2.05840898E-01
  1.67863146E+00  2.68784369E-01  2.05840898E-01  4.73702225E+00  1.96852105E-01
  8.48289160E-02  4.73702225E+00  1.96852105E-01  8.48289160E-02  4.73702225E+00
  1.96852105E-01  8.48289160E-02  4.73702225E+00  1.96852105E-01  8.48289160E-02
  4.73702225E+00  1.96852105E-01  8.48289160E-02  4.73702225E+00  1.96852105E-01
  8.48289160E-02  4.73702225E+00  1.96852105E-01  8.48289160E-02  4.73702225E+00
  1.96852105E-01  8.48289160E-02  6.24221873E+00  2.32416928E+00  1.45652951E+00
  6.24221873E+00  2.32416928E+00  1.45652951E+00  6.24221873E+00  2.32416928E+00
  1.45652951E+00  6.24221873E+00  2.32416928E+00  1.45652951E+00  6.24221873E+00
  2.32416928E+00  1.45652951E+00  6.24221873E+00  2.32416928E+00  1.45652951E+00
  7.09165380E-01 -1.25729983E+00 -7.80890272E-01  7.09165380E-01 -1.25729983E+00
 -7.80890272E-01  7.09165380E-01 -1.25729983E+00 -7.80890272E-01  6.12793001E-01
  1.72884379E+00  1.19782199E+00  6.12793001E-01  1.72884379E+00  1.19782199E+00
  6.12793001E-01  1.72884379E+00  1.19782199E+00  5.12841835E+00  3.62849725E+00
  2.34675860E+00  5.12841835E+00  3.62849725E+00  2.34675860E+00  5.12841835E+00
  3.62849725E+00  2.34675860E+00
Num ILSW                                   I              100
ILSW                                       I   N=         100
           1           0           0           0           2           0
           0           0           0           0        4639          -1
           5           0           0           0           2           0
           0           0           0           0           1           0
           1           1           0           0           0           0
           0           0      100000           0          -1           0
           0           0           0           0           0           0
           0           0           0           1           0           0
           0 -2000000000           1           0           0           0
           0           0         121          52           0           0
           0           0          58           0           0           0
           0           0           0           6           0           1
           0           0           0           0           0           0
           0           0           0           0           0           0
           0           0           0           0           0           0
           0           0           0           0           0           0
           0           0           0           0
Num RLSW                                   I               52
RLSW                                       R   N=          52
  1.00000000E+00  1.00000000E+00  1.00000000E+00  1.00000000E+00  1.00000000E+00
  0.00000000E+00  2.00000000E-01  2.22036000E-01  0.00000000E+00  7.77964000E-01
  0.00000000E+00  2.00000000E-01  0.00000000E+00  0.00000000E+00  1.00000000E+00
  0.00000000E+00  0.00000000E+00  1.00000000E+00  0.00000000E+00  0.00000000E+00
  0.00000000E+00  0.00000000E+00  1.00000000E+00  0.00000000E+00  0.00000000E+00
  0.00000000E+00  0.00000000E+00  1.00000000E+00  0.00000000E+00  0.00000000E+00
  0.00000000E+00  0.00000000E+00  1.00000000E+00  0.00000000E+00  0.00000000E+00
  0.00000000E+00  0.00000000E+00  0.00000000E+00  1.00000000E+00  1.00000000E+00
  0.00000000E+00  1.00000000E+00  0.00000000E+00  0.00000000E+00  0.00000000E+00
  0.00000000E+00  0.00000000E+00  0.00000000E+00  0.00000000E+00  0.00000000E+00
  0.00000000E+00  0.00000000E+00
MxBond                                     I                3
NBond                                      I   N=           6
           3           2           2           1           1           1
IBond                                      I   N=          18
           2           4           5           1           3           0
           2           6           0           1           0           0
           1           0           0           3           0           0
RBond                                      R   N=          18
  2.00000000E+00  1.00000000E+00  1.00000000E+00  2.00000000E+00  2.00000000E+00
  0.00000000E+00  2.00000000E+00  1.00000000E+00  0.00000000E+00  1.00000000E+00
  0.00000000E+00  0.00000000E+00  1.00000000E+00  0.00000000E+00  0.00000000E+00
  1.00000000E+00  0.00000000E+00  0.00000000E+00
Virial Ratio                               R      2.003634356149133E+00
SCF Energy                                 R     -4.925258330428451E+02
Total Energy                               R     -4.925258330428451E+02
S**2                                       R      7.105427357601002E-15
S**2 after annihilation                    R      1.598721155460238E-14
RMS Force                                  R      2.569025568584382E-03
RMS Density                                R      1.422298521307881E-09
Job Status                                 I                1
Nuclear derivative order                   I                1
External E-field                           R   N=          35
  0.00000000E+00  0.00000000E+00  0.00000000E+00  0.00000000E+00  0.00000000E+00
  0.00000000E+00  0.00000000E+00  0.00000000E+00  0.00000000E+00  0.00000000E+00
  0.00000000E+00  0.00000000E+00  0.00000000E+00  0.00000000E+00  0.00000000E+00
  0.00000000E+00  0.00000000E+00  0.00000000E+00  0.00000000E+00  0.00000000E+00
  0.00000000E+00  0.00000000E+00  0.00000000E+00  0.00000000E+00  0.00000000E+00
  0.00000000E+00  0.00000000E+00  0.00000000E+00  0.00000000E+00  0.00000000E+00
  0.00000000E+00  0.00000000E+00  0.00000000E+00  0.00000000E+00  0.00000000E+00
IOpCl                                      I                1
IROHF                                      I                0
Alpha Orbital Energies                     R   N=          61
 -8.91047137E+01 -1.44332530E+01 -1.03285209E+01 -8.15010074E+00 -6.10299727E+00
 -6.10104411E+00 -6.09735568E+00 -1.02650175E+00 -8.57272849E-01 -6.94456669E-01
 -5.82106537E-01 -5.55374726E-01 -4.75148728E-01 -4.38162209E-01 -3.68668701E-01
 -3.07874585E-01  3.85766793E-03  1.30727452E-01  1.50079764E-01  1.67016789E-01
  2.17279511E-01  2.86337999E-01  3.88818250E-01  4.86028954E-01  5.48668115E-01
  5.77841543E-01  5.81026735E-01  6.77223012E-01  6.79870625E-01  7.14127018E-01
  7.24428783E-01  7.30733240E-01  7.44974761E-01  7.98181768E-01  8.37094453E-01
  8.82487776E-01  9.08117128E-01  9.45381854E-01  1.03770243E+00  1.10855844E+00
  1.18323884E+00  1.24463217E+00  1.25839780E+00  1.49661786E+00  1.60014870E+00
  1.62897757E+00  1.66364395E+00  1.75202811E+00  2.06269258E+00  2.11005019E+00
  2.11289367E+00  2.18565291E+00  2.27375791E+00  2.39028919E+00  2.46845300E+00
  2.60911858E+00  2.61412848E+00  2.84111643E+00  2.94360382E+00  2.96257550E+00
  3.30591209E+00
Beta Orbital Energies                      R   N=          61
 -8.91047137E+01 -1.44332530E+01 -1.03285209E+01 -8.15010074E+00 -6.10299727E+00
 -6.10104411E+00 -6.09735568E+00 -1.02650175E+00 -8.57272849E-01 -6.94456669E-01
 -5.82106537E-01 -5.55374726E-01 -4.75148728E-01 -4.38162209E-01 -3.68668701E-01
 -3.07874585E-01  3.85766793E-03  1.30727452E-01  1.50079764E-01  1.67016789E-01
  2.17279511E-01  2.86337999E-01  3.88818250E-01  4.86028954E-01  5.48668115E-01
  5.77841543E-01  5.81026735E-01  6.77223012E-01  6.79870625E-01  7.14127018E-01
  7.24428783E-01  7.30733240E-01  7.44974761E-01  7.98181768E-01  8.37094453E-01
  8.82487776E-01  9.08117128E-01  9.45381854E-01  1.03770243E+00  1.10855844E+00
  1.18323884E+00  1.24463217E+00  1.25839780E+00  1.49661786E+00  1.60014870E+00
  1.62897757E+00  1.66364395E+00  1.75202811E+00  2.06269258E+00  2.11005019E+00
  2.11289367E+00  2.18565291E+00  2.27375791E+00  2.39028919E+00  2.46845300E+00
  2.60911858E+00  2.61412848E+00  2.84111643E+00  2.94360382E+00  2.96257550E+00
  3.30591209E+00
Alpha MO coefficients                      R   N=        3721
  1.30582985E-04 -5.61251509E-04  2.21406716E-03 -4.70288346E-04  4.34458946E-07
  1.15743692E-05  8.92594950E-04  2.04888765E-04  1.14183780E-04  3.13177818E-04
  7.41138184E-05  6.68063606E-06 -5.52511397E-04  7.23724270E-05  9.94248493E-01
 -2.17830289E-02  1.00388229E-02 -6.11726471E-03 -1.03350471E-04  1.46353857E-04
  9.93394419E-05 -3.72715441E-04  4.31262266E-04  2.94354449E-04  1.64353017E-03
  7.98951344E-05  1.34180485E-05 -1.51603057E-04  2.02524232E-04  2.20387602E-04
  5.88480947E-05  3.22792005E-04 -7.81209970E-05 -2.81977534E-05 -5.86426198E-04
 -1.56145197E-04 -1.88575448E-04 -1.21046984E-04  4.51219428E-04  8.34139825E-04
  5.41171183E-04  1.52627023E-04 -2.82495212E-04 -4.74099149E-04  1.61082244E-04
 -4.41773491E-04 -8.32085524E-05  2.89844682E-04  6.01888480E-05  2.56347566E-05
  1.55209247E-05 -8.75924474E-05 -1.79610072E-04 -4.23544717E-05 -6.95140044E-05
 -4.49940465E-05 -4.83533755E-05  2.37904943E-04 -1.59679106E-04 -1.68602408E-04
 -1.07730096E-04 -3.80188044E-05  9.90182777E-05  2.66662944E-03  3.36020495E-04
  5.39945549E-05  2.76412646E-05  1.24024375E-03  8.77040453E-04  5.50717472E-04
 -7.36511201E-05  1.70109790E-04 -1.01086838E-04  1.99689287E-04  2.66344414E-04
 -6.50145189E-05 -5.19929586E-04  1.73564219E-03 -1.05457868E-02  1.88861121E-04
  2.79027132E-04  1.80117920E-04  3.81468336E-04  8.51050578E-04  5.54037624E-04
 -8.16437583E-04 -4.41870041E-03 -2.90463782E-03 -4.17644846E-05  6.30062402E-04
  5.18271720E-04 -4.17469188E-04  9.51473257E-04  9.89022137E-01 -4.13110569E-02
  2.43672288E-02 -3.47977626E-03  4.25034899E-04  3.65324693E-04 -3.96100858E-03
 -2.99875138E-03 -1.88924653E-03  2.82906201E-04  6.33435655E-04 -1.08918909E-03
  3.85538848E-04  9.26329486E-04  7.58776403E-05  3.77784829E-06 -7.96203678E-05
 -5.68538093E-05 -3.57227314E-05 -1.66848011E-04 -1.27520094E-04  7.38954592E-05
 -7.25056456E-05 -4.97673947E-05  2.98746359E-03 -4.31794501E-03  2.40984845E-03
 -2.13263696E-03 -1.46977269E-03  9.88615632E-01  4.54391895E-02 -2.67477134E-02
 -5.77473431E-04 -7.35137108E-05 -3.45791545E-05  7.19812121E-04 -4.24510197E-04
 -2.98409196E-04 -1.17326559E-03 -1.74298407E-04  2.23972289E-03  1.39435241E-04
 -1.30559500E-04  8.85431389E-05  7.38523083E-04 -1.85326147E-03  4.33052450E-03
  4.25865484E-04 -7.44441280E-06 -1.51470367E-05  1.73851089E-03 -9.36342183E-05
 -1.03694297E-04  4.88034906E-04  6.29453843E-04  4.04892294E-04  1.33829436E-03
  2.46163490E-04 -8.75019523E-05 -2.25701590E-03  2.03752174E-04 -3.26126792E-05
 -2.09707615E-04 -7.19552835E-04 -2.58276531E-04 -5.21963125E-05 -2.83567027E-05
 -4.35034849E-04  5.41990258E-04  3.69115542E-04 -3.88705252E-05 -9.91229247E-05
  7.80891364E-05  8.67412444E-06 -1.45057808E-04 -4.32679569E-03  6.61397206E-03
 -1.33779030E-03 -1.95687212E-03 -1.26298091E-03 -4.14137131E-03  7.04656617E-03
 -1.39684869E-03  1.92693126E-03  1.30895739E-03 -3.65618475E-04  1.81613392E-04
 -1.28123638E-04 -5.14180778E-05 -3.09250539E-05  1.74022025E-04 -1.80387008E-03
  5.80808057E-03 -1.16996347E-03  2.86232498E-05  4.70162786E-05  2.24626255E-03
  6.89616041E-04  4.02523768E-04  5.35574706E-04  1.36375621E-04 -1.64652407E-04
 -7.96170703E-04  1.39476773E-04  3.06505247E-01  1.02114915E+00  4.89202941E-02
 -2.03831293E-02  3.38720748E-03 -6.28476577E-03 -4.24121704E-03 -1.26229504E-03
  1.60726211E-03  1.09418841E-03  3.91696990E-03 -1.42045287E-04 -1.88105902E-04
 -4.65267945E-04  5.70330227E-04  5.78457827E-04  2.67837213E-04  9.14039189E-04
 -7.70239461E-05 -4.64831524E-04 -8.11586942E-04 -4.07867790E-04 -4.86325075E-04
 -3.12038960E-04  1.12483839E-03  1.65515249E-03  1.06826442E-03  2.64844669E-04
 -3.58866592E-04 -8.02361425E-04  2.51928766E-04 -5.68816745E-04  5.48383902E-05
  8.72891555E-04  3.58226814E-04  1.25171865E-04  7.42396234E-05 -9.35708812E-05
 -5.30980783E-04  1.35521014E-04 -1.68174737E-04 -1.14566662E-04  1.37732488E-04
  7.99221068E-04 -3.46413069E-04 -5.05961274E-04 -3.26502371E-04  6.21260602E-05
 -1.12535156E-03  4.80996261E-03 -1.30703391E-03  1.42801985E-04  1.25891603E-04
  1.95803315E-03 -1.26453695E-03 -8.84106412E-04  7.18067859E-04  2.50735318E-04
 -6.17382428E-05 -1.20779012E-03  2.88198635E-04  3.81644260E-04  1.28891556E-03
  7.59117870E-04 -5.65253820E-03  8.27372924E-01  4.49474231E-01  2.77743322E-01
 -4.33221646E-02 -2.33535868E-02 -1.44226066E-02  8.96245872E-03  2.74096706E-03
  1.60007167E-03 -3.11803114E-04 -8.32543363E-04 -1.25059800E-03  1.66560170E-03
 -1.20713357E-03 -6.46728935E-05 -9.95830215E-05  2.01460423E-03  3.58214299E-04
  6.16435648E-04  3.99295667E-04 -2.74376962E-03 -7.78248037E-04 -4.49157724E-04
 -3.48852865E-04  5.07189210E-04  9.91291542E-04 -2.78957590E-04  8.01727267E-04
 -4.28730767E-04 -1.69452616E-04  2.49094296E-04  3.38419122E-05  1.64352965E-05
  3.72638252E-04  3.07421166E-04  5.28176050E-05 -1.64066582E-04 -1.09848182E-04
 -9.59799863E-04 -5.02600240E-04  1.27665230E-04  4.23854531E-04  2.77485435E-04
 -9.76263862E-09  2.17915788E-07 -1.26158251E-06  4.94514995E-06 -1.30296475E-04
  1.96851007E-04 -2.90423983E-05  7.90103779E-04 -1.19389960E-03 -1.53333507E-05
  3.12196258E-04  3.86915323E-06  6.42904293E-06 -2.06795118E-04  4.11255345E-07
  1.50509133E-06 -7.09828268E-07  1.47236353E-06  1.95156488E-02 -5.42118992E-01
  8.19180528E-01 -9.63560912E-04  2.67739003E-02 -4.04572481E-02  1.64689818E-04
 -4.58700676E-03  6.93190757E-03 -2.89580712E-04  1.34687653E-04 -1.36856834E-04
 -1.60732920E-04 -9.75389798E-05  9.50859299E-09  1.72171569E-08 -2.83589907E-07
 -3.77038323E-06  1.03748589E-04 -1.56842052E-04 -1.96163097E-05  5.50435890E-04
 -8.31553900E-04 -2.46784002E-04 -1.62069263E-04 -1.26836250E-04 -1.50048466E-04
  9.96349686E-05  2.39547461E-08  7.11372497E-08  2.45347707E-06 -6.79882424E-05
  1.02709030E-04  4.75718501E-08  1.22944077E-07  3.37475082E-06 -9.36132627E-05
  1.41442674E-04  1.45012665E-07 -1.42415889E-07  8.42270411E-07 -2.16519342E-05
  3.27567914E-05 -9.84673602E-06  8.25369878E-04 -6.22234596E-03  6.65778952E-04
  8.70926386E-05  4.16398958E-05 -2.03291186E-03 -1.54043869E-03 -9.70540850E-04
 -3.78488324E-04  1.89640254E-04 -5.46854044E-05  6.85336606E-04  3.33717190E-04
  2.79980414E-03  1.00852362E-02 -3.56547253E-03  7.22248562E-03 -5.28290216E-01
  6.84738437E-01  4.65733217E-01  2.67037825E-02 -3.43758595E-02 -2.33856173E-02
 -6.66938609E-03  7.13424152E-03  4.88060667E-03  2.32740222E-04  9.33648569E-05
 -4.09428986E-04 -6.19789636E-05  1.14239892E-04 -3.90109006E-05  2.70435549E-04
 -1.90613295E-03  2.94697766E-04  1.88787875E-04  1.17871178E-04  8.02258161E-04
 -8.97504637E-05 -7.84706654E-05 -2.25891325E-04  2.27361235E-04  2.06294137E-04
  1.97220647E-04  3.69702078E-04 -2.83270038E-04  3.36181388E-04  1.67240803E-04
 -8.07131012E-05 -5.74442284E-05  5.66829411E-04  9.44018213E-04 -8.22214612E-05
 -3.38889969E-05 -2.04903641E-05  5.29632863E-05 -7.23234638E-04  3.41012874E-04
  4.09992902E-04  2.63109717E-04 -7.12343094E-02  1.35413566E-01  1.21993990E-02
  6.93799555E-02  4.18514728E-03  1.10500647E-03  6.26374356E-03  2.87244136E-05
 -1.31371839E-04 -4.62828208E-03  5.64341035E-04 -3.67778838E-04  8.26309835E-03
  1.43366562E-03 -5.69875917E-02 -3.52320404E-01  4.99946671E-01  1.51843690E-01
  3.98453193E-03  5.50927510E-02  3.63649573E-02  8.55932673E-03  9.17139703E-02
  6.04909053E-02 -8.53898473E-03  4.67711489E-02  3.11598561E-02 -1.30066375E-02
  1.40700211E-02  2.82756445E-02 -2.64346684E-03  2.26479621E-02  1.84952965E-01
  3.68891327E-01  1.44714021E-01  1.08427167E-01  6.75284327E-02  4.20794925E-02
 -2.57678642E-02 -2.10771393E-02 -1.33289272E-02 -4.45744396E-03  5.63955610E-03
  8.36066370E-03  1.58626796E-04  9.00476901E-03  2.55179643E-02  6.81715162E-03
  4.23489838E-03  3.08050800E-03  1.93713949E-03  2.75053967E-02  4.66558878E-03
  3.56509544E-03 -3.01862517E-03 -2.08353977E-03  1.08151063E-01  2.10935814E-03
  5.32925781E-03 -1.21768970E-02 -8.18865834E-03 -1.88961912E-01  3.73960356E-01
  1.06409113E-01  9.56284940E-02 -1.74011724E-02 -1.38094682E-02  1.28669306E-02
  3.02701070E-04 -1.07710622E-04 -7.22795313E-03 -2.36904309E-03  3.06260354E-03
  1.00727329E-02 -2.68516446E-03 -2.79335408E-02 -1.74976412E-01  2.53239073E-01
  1.09552796E-01 -1.07454942E-01 -4.57948678E-02 -2.77277316E-02 -1.79053770E-01
 -7.63228023E-02 -4.62124528E-02 -1.10607416E-01 -4.86027747E-02 -2.95107135E-02
 -1.44840339E-02 -1.26637301E-02 -2.02835421E-02  4.32363799E-02 -1.71328286E-02
 -1.55744670E-01 -3.18632860E-01 -1.65399516E-01 -5.96117804E-02  7.40776505E-03
  6.34410505E-03  1.99723612E-02  3.28141456E-03  1.69002731E-03  1.60371431E-03
  2.54270644E-04 -5.55731060E-03  1.92654528E-03  2.18032836E-04  1.17070052E-01
  1.23176115E-02  6.79911458E-03  9.65132326E-03  6.22434046E-03  9.66652222E-02
  1.03461718E-02  6.39026993E-03 -8.21632622E-03 -5.59145086E-03 -1.33166502E-01
 -1.37552603E-02 -7.37247110E-03  1.03513771E-02  7.02952464E-03  1.40563116E-01
 -2.83642752E-01 -1.14288050E-01  1.34869498E-01 -1.97633006E-02 -1.63227000E-02
  3.84350458E-02 -7.64192206E-03 -5.98171879E-03  5.10894250E-04  1.33309686E-04
 -6.13890586E-03  4.31759110E-03  1.78505232E-04 -4.47879183E-02 -2.85785912E-01
  4.43952172E-01  1.81017616E-01  4.68608410E-02 -1.45792086E-02 -1.07761444E-02
  7.94938191E-02 -2.05699169E-02 -1.55261762E-02  7.93434386E-02 -3.92271543E-02
 -2.78698158E-02  3.34957032E-03  8.74070047E-03 -7.06120881E-03 -4.83539105E-04
  1.28033876E-02 -8.75865285E-02 -1.78891684E-01 -1.16847370E-01 -4.52378052E-02
  1.85109249E-01  1.23612115E-01  8.12542684E-03 -5.41097479E-02 -3.60101668E-02
  1.59239135E-03  6.93511589E-03  1.81791425E-03 -4.84230296E-03  1.02384939E-02
 -1.52759503E-01 -3.29297779E-02 -2.97443210E-03 -1.10465988E-02 -7.23961910E-03
 -1.84940216E-01 -4.20562792E-02 -5.82441431E-03  1.09167073E-02  7.36508160E-03
 -2.29726664E-01 -5.03634836E-02 -1.14294336E-02  1.23258736E-02  8.43487648E-03
  4.89547207E-02 -9.33920318E-02 -1.02325127E-01  2.91861632E-01 -8.42785691E-02
 -6.27861875E-02  8.50234782E-02 -2.13679591E-02 -1.61838590E-02 -5.18167009E-03
 -2.46994478E-03 -4.62461278E-03  1.30702862E-02 -3.04292140E-03 -5.59372961E-03
 -3.52209164E-02  4.71225152E-02  5.01164881E-02 -1.41190603E-01 -5.90666538E-02
 -3.56948096E-02 -2.54132628E-01 -1.08219002E-01 -6.55078279E-02 -2.00193070E-01
 -7.58327545E-02 -4.53691860E-02 -9.02607610E-04 -1.84112067E-02 -1.12884024E-02
  1.25979956E-02 -2.75644420E-02 -2.87014693E-03 -1.47436448E-02  5.68759406E-04
  5.93467973E-02 -2.62944809E-01 -1.75471471E-01 -2.61449689E-02  9.93913530E-02
  6.64166916E-02 -1.93210453E-03 -8.92508483E-03 -5.61991277E-03  8.81340700E-03
 -1.31687818E-02 -8.89431703E-02 -1.98620182E-02  2.05935163E-03 -7.23498476E-03
 -4.83768838E-03 -2.31347331E-01 -5.85200525E-02 -3.61514819E-03  1.17404362E-02
  7.85744253E-03  2.39731299E-01  6.61166637E-02  1.00907750E-02 -1.02952131E-02
 -7.05827535E-03  7.75375335E-03 -1.15272584E-02 -3.33540645E-02  1.26053257E-01
  3.31943932E-01  2.16671005E-01  3.92370584E-02  1.36463134E-01  8.93765270E-02
 -2.97576942E-03 -1.36137533E-03 -3.30942571E-03  8.05911219E-03 -1.65566711E-03
 -1.92356580E-04 -9.98519048E-04  9.13631333E-04  1.25131384E-02 -6.13282055E-02
  6.18868751E-02  4.24328251E-02 -1.10334138E-01  1.08144242E-01  7.42250834E-02
 -9.09511791E-02  1.27793223E-01  8.67645598E-02 -7.88324594E-04 -2.96282018E-02
  6.89612523E-03 -2.16121503E-03 -4.46049445E-02 -4.51552104E-02 -9.17105041E-02
 -1.27833422E-01  8.62937611E-02  1.89608423E-03 -8.18508467E-04 -4.14648248E-02
  7.67199771E-03  6.07307024E-03 -3.56537447E-03  2.25498479E-03 -1.09954677E-03
  6.91461185E-03  3.85454876E-03 -3.30457945E-01 -9.05658597E-02 -1.04245659E-02
 -9.34570090E-03 -5.93495383E-03  2.04768982E-01  6.06335793E-02  1.13407787E-02
 -2.24947971E-03 -1.76133902E-03 -6.48879272E-04  7.45859149E-03 -4.90348659E-03
 -1.61475777E-03 -9.50925634E-04  5.32297289E-06 -1.34153009E-05 -8.27670123E-06
  4.11667768E-03 -1.14331914E-01  1.72777477E-01  2.55214328E-03 -7.07484254E-02
  1.06906825E-01 -1.00716035E-03  1.59429454E-02  8.44518269E-05  1.82331267E-04
 -1.05699370E-02 -3.66947151E-06 -2.37022981E-05  2.98972035E-05  5.11441324E-05
  4.27526833E-03 -1.17354577E-01  1.77286080E-01  7.67486392E-03 -2.10655310E-01
  3.18232360E-01  8.55174507E-03 -2.34931176E-01  3.54921636E-01  3.65240183E-02
 -1.27668321E-02  1.74203787E-02  2.04460820E-02  9.53738410E-03 -8.56271294E-06
 -1.82975313E-05 -2.59657959E-05 -5.49180852E-03  1.50906497E-01 -2.28035901E-01
  3.62309108E-03 -9.95031063E-02  1.50353634E-01 -1.13807336E-02 -1.51737407E-02
 -6.12598652E-03 -7.29437532E-03  9.68409242E-03 -5.46543227E-06 -2.42140783E-06
  1.16709039E-04 -3.23165567E-03  4.88320829E-03  2.60234157E-05  9.53220175E-06
  1.16032669E-04 -3.18899508E-03  4.81637998E-03  1.90054662E-05  1.00227407E-05
  2.20482584E-04 -6.04533444E-03  9.13117241E-03 -2.10353120E-02  5.30273573E-02
  2.01649036E-02  1.28114423E-01 -1.42864882E-01 -9.76009190E-02  5.33847597E-02
 -6.67915087E-02 -4.54669037E-02 -3.70399048E-03  9.26965347E-03 -9.81830994E-04
  6.50140789E-03  1.44378502E-02  1.91940498E-02  1.24462419E-01 -1.60633388E-01
 -2.73914341E-01 -8.02630833E-02  1.62025421E-01  1.09188119E-01 -1.43154646E-01
  2.97509568E-01  2.00387452E-01 -1.74905359E-01  3.05128097E-01  2.06203601E-01
 -1.65599265E-02  1.51775265E-02  3.47062846E-02 -2.04329164E-03  2.47224089E-02
 -1.43190710E-02 -2.38965175E-02 -3.04210277E-02  1.90314582E-01  1.80963365E-01
  1.15162911E-01 -1.23481684E-01 -9.09016200E-02 -5.71701521E-02 -7.15204478E-03
  1.00359711E-02 -1.08445165E-03  1.24798917E-02  1.60362113E-02  1.24944484E-01
  5.02565135E-02  5.83273804E-03  1.38223872E-03  7.75629803E-04 -1.94675356E-01
 -8.11785779E-02 -2.86195728E-03  3.80072089E-03  2.58509048E-03 -1.10881224E-01
 -6.84840551E-02 -1.10479353E-02 -6.62061331E-04 -1.70487252E-04  4.78456716E-02
 -1.25340574E-01 -1.47505321E-01 -2.21752975E-01 -3.29739305E-02 -1.65387026E-02
 -1.07949443E-01  2.26774568E-02  1.75686109E-02  2.32757840E-03  3.85612176E-04