0004_q000_m01_k00_opt_uwb97xd_def2svpd/0004_q000_m01_k00_force_uhf_def2s
Force     UHF                                                         Gen                 
Number of atoms                            I                6
Info1-9                                    I   N=           9
          13           9           0           0           0         100
           5           1           2
Full Title                                 C   N=           8
0004_q000_m01_k00_opt_uwb97xd_def2svpd/0004_q000_m01_k00_for
ce_uhf_def2svp stable-force         
Route                                      C   N=          15
#p uhf/chkbasis force guess=read geom=check scf=(maxcycle=90
0,verytightlineq,xqc) integral=grid=ultrafine symmetry=None 
density=current pop=(cm5,hlygat,mbs,npa) output=wfx         
Charge                                     I                0
Multiplicity                               I                1
Number of electrons                        I               32
Number of alpha electrons                  I               16
Number of beta electrons                   I               16
Number of basis functions                  I               61
Number of independent functions            I               61
Number of point charges in /Mol/           I                0
Number of translation vectors              I                0
Atomic numbers                             I   N=           6
           6          16           7           1           1           1
Nuclear charges                            R   N=           6
  6.00000000E+00  1.60000000E+01  7.00000000E+00  1.00000000E+00  1.00000000E+00
  1.00000000E+00
Current cartesian coordinates              R   N=          18
  1.67863146E+00  2.68784369E-01  2.05840898E-01  4.73702225E+00  1.96852105E-01
  8.48289160E-02  6.24221873E+00  2.32416928E+00  1.45652951E+00  7.09165380E-01
 -1.25729983E+00 -7.80890272E-01  6.12793001E-01  1.72884379E+00  1.19782199E+00
  5.12841835E+00  3.62849725E+00  2.34675860E+00
Number of symbols in /Mol/                 I                0
Int Atom Types                             I   N=           6
           0           0           0           0           0           0
Force Field                                I                0
Atom Types                                 C   N=           6
                                                            
            
MM charges                                 R   N=           6
  0.00000000E+00  0.00000000E+00  0.00000000E+00  0.00000000E+00  0.00000000E+00
  0.00000000E+00
Integer atomic weights                     I   N=           6
          12          32          14           1           1           1
Real atomic weights                        R   N=           6
  1.20000000E+01  3.19720718E+01  1.40030740E+01  1.00782504E+00  1.00782504E+00
  1.00782504E+00
Atom fragment info                         I   N=           6
           0           0           0           0           0           0
Atom residue num                           I   N=           6
           0           0           0           0           0           0
Nuclear spins                              I   N=           6
           0           0           2           1           1           1
Nuclear ZEff                               R   N=           6
 -3.60000000E+00 -1.36000000E+01 -4.55000000E+00 -1.00000000E+00 -1.00000000E+00
 -1.00000000E+00
Nuclear ZNuc                               R   N=           6
  6.00000000E+00  1.60000000E+01  7.00000000E+00  1.00000000E+00  1.00000000E+00
  1.00000000E+00
Nuclear QMom                               R   N=           6
  0.00000000E+00  0.00000000E+00  2.04400000E+00  0.00000000E+00  0.00000000E+00
  0.00000000E+00
Nuclear GFac                               R   N=           6
  0.00000000E+00  0.00000000E+00  4.03761000E-01  2.79284600E+00  2.79284600E+00
  2.79284600E+00
MicOpt                                     I   N=           6
          -1          -1          -1          -1          -1          -1
Number of residues                         I                0
Number of secondary structures             I                0
Number of contracted shells                I               29
Number of primitive shells                 I               57
Pure/Cartesian d shells                    I                0
Pure/Cartesian f shells                    I                0
Highest angular momentum                   I                2
Largest degree of contraction              I                5
Shell types                                I   N=          29
           0           0           0           1           1          -2
           0           0           0           0           1           1
           1          -2           0           0           0           1
           1          -2           0           0           1           0
           0           1           0           0           1
Number of primitives per shell             I   N=          29
           5           1           1           3           1           1
           5           3           1           1           5           1
           1           1           5           1           1           3
           1           1           3           1           1           3
           1           1           3           1           1
Shell to atom map                          I   N=          29
           1           1           1           1           1           1
           2           2           2           2           2           2
           2           2           3           3           3           3
           3           3           4           4           4           5
           5           5           6           6           6
Primitive exponents                        R   N=          57
  1.23840169E+03  1.86290050E+02  4.22511763E+01  1.16765579E+01  3.59305065E+00
  4.02451474E-01  1.30901827E-01  9.46809706E+00  2.01035451E+00  5.47710047E-01
  1.52686138E-01  8.00000000E-01  9.18493030E+03  1.38151055E+03  3.13871476E+02
  8.80538706E+01  2.70399149E+01  4.56487313E+01  4.96645223E+00  2.01162420E+00
  3.56610770E-01  1.35072215E-01  2.61982334E+02  6.13068947E+01  1.91037299E+01
  6.65677204E+00  2.39596352E+00  6.17761617E-01  1.69933769E-01  5.50000000E-01
  1.71284159E+03  2.57648127E+02  5.84582459E+01  1.61983679E+01  5.00526008E+00
  5.87318566E-01  1.87645923E-01  1.35714702E+01  2.92573729E+00  7.99277508E-01
  2.19543480E-01  1.00000000E+00  1.30107010E+01  1.96225720E+00  4.44537960E-01
  1.21949620E-01  8.00000000E-01  1.30107010E+01  1.96225720E+00  4.44537960E-01
  1.21949620E-01  8.00000000E-01  1.30107010E+01  1.96225720E+00  4.44537960E-01
  1.21949620E-01  8.00000000E-01
Contraction coefficients                   R   N=          57
  5.51736505E-03  4.10888286E-02  1.82253821E-01  4.68284594E-01  4.45758173E-01
  1.00000000E+00  1.00000000E+00  5.68883320E-02  3.12940593E-01  7.60650165E-01
  1.00000000E+00  1.00000000E+00 -5.47294661E-03 -4.09544022E-02 -1.84758290E-01
 -4.75672806E-01 -4.34951536E-01 -9.19040458E-02  5.56987772E-01  5.11154683E-01
  1.00000000E+00  1.00000000E+00 -9.18305466E-03 -6.59022265E-02 -2.45877845E-01
 -4.82314711E-01 -3.89563144E-01  1.00000000E+00  1.00000000E+00  1.00000000E+00
 -5.44779958E-03 -4.06271746E-02 -1.81119623E-01 -4.68439756E-01 -4.46168463E-01
  1.00000000E+00  1.00000000E+00 -5.88481170E-02 -3.20246248E-01 -7.53282265E-01
  1.00000000E+00  1.00000000E+00  3.34854848E-02  2.34721871E-01  8.13770285E-01
  1.00000000E+00  1.00000000E+00  3.34854848E-02  2.34721871E-01  8.13770285E-01
  1.00000000E+00  1.00000000E+00  3.34854848E-02  2.34721871E-01  8.13770285E-01
  1.00000000E+00  1.00000000E+00
Coordinates of each shell                  R   N=          87
  1.67863146E+00  2.68784369E-01  2.05840898E-01  1.67863146E+00  2.68784369E-01
  2.05840898E-01  1.67863146E+00  2.68784369E-01  2.05840898E-01  1.67863146E+00
  2.68784369E-01  2.05840898E-01  1.67863146E+00  2.68784369E-01  2.05840898E-01
  1.67863146E+00  2.68784369E-01  2.05840898E-01  4.73702225E+00  1.96852105E-01
  8.48289160E-02  4.73702225E+00  1.96852105E-01  8.48289160E-02  4.73702225E+00
  1.96852105E-01  8.48289160E-02  4.73702225E+00  1.96852105E-01  8.48289160E-02
  4.73702225E+00  1.96852105E-01  8.48289160E-02  4.73702225E+00  1.96852105E-01
  8.48289160E-02  4.73702225E+00  1.96852105E-01  8.48289160E-02  4.73702225E+00
  1.96852105E-01  8.48289160E-02  6.24221873E+00  2.32416928E+00  1.45652951E+00
  6.24221873E+00  2.32416928E+00  1.45652951E+00  6.24221873E+00  2.32416928E+00
  1.45652951E+00  6.24221873E+00  2.32416928E+00  1.45652951E+00  6.24221873E+00
  2.32416928E+00  1.45652951E+00  6.24221873E+00  2.32416928E+00  1.45652951E+00
  7.09165380E-01 -1.25729983E+00 -7.80890272E-01  7.09165380E-01 -1.25729983E+00
 -7.80890272E-01  7.09165380E-01 -1.25729983E+00 -7.80890272E-01  6.12793001E-01
  1.72884379E+00  1.19782199E+00  6.12793001E-01  1.72884379E+00  1.19782199E+00
  6.12793001E-01  1.72884379E+00  1.19782199E+00  5.12841835E+00  3.62849725E+00
  2.34675860E+00  5.12841835E+00  3.62849725E+00  2.34675860E+00  5.12841835E+00
  3.62849725E+00  2.34675860E+00
Num ILSW                                   I              100
ILSW                                       I   N=         100
           1           0           0           0           2           0
           0           0           0           0           0          -1
           5           0           0           0           2           0
           0           0           0           0           1           0
           1           1           0           0           0           0
           0           0      100000           0          -1           0
           0           0           0           0           0           0
           0           0           0           1           0           0
           0 -2000000000           1           0           0           0
           0           0           4          52           0           0
           0           0           0           0           0           0
           0           0           0           6           0           1
           0           0           0           0           0           0
           0           0           0           0           0           0
           0           0           0           0           0           0
           0           0           0           0           0           0
           0           0           0           0
Num RLSW                                   I               52
RLSW                                       R   N=          52
  1.00000000E+00  1.00000000E+00  1.00000000E+00  1.00000000E+00  1.00000000E+00
  0.00000000E+00  0.00000000E+00  1.00000000E+00  0.00000000E+00  0.00000000E+00
  0.00000000E+00  0.00000000E+00  1.00000000E+00  0.00000000E+00  0.00000000E+00
  0.00000000E+00  0.00000000E+00  1.00000000E+00  0.00000000E+00  0.00000000E+00
  0.00000000E+00  0.00000000E+00  1.00000000E+00  0.00000000E+00  0.00000000E+00
  0.00000000E+00  0.00000000E+00  1.00000000E+00  0.00000000E+00  0.00000000E+00
  0.00000000E+00  0.00000000E+00  1.00000000E+00  0.00000000E+00  0.00000000E+00
  0.00000000E+00  0.00000000E+00  0.00000000E+00  1.00000000E+00  1.00000000E+00
  0.00000000E+00  1.00000000E+00  0.00000000E+00  0.00000000E+00  0.00000000E+00
  0.00000000E+00  0.00000000E+00  0.00000000E+00  0.00000000E+00  0.00000000E+00
  0.00000000E+00  0.00000000E+00
MxBond                                     I                3
NBond                                      I   N=           6
           3           2           2           1           1           1
IBond                                      I   N=          18
           2           4           5           1           3           0
           2           6           0           1           0           0
           1           0           0           3           0           0
RBond                                      R   N=          18
  2.00000000E+00  1.00000000E+00  1.00000000E+00  2.00000000E+00  2.00000000E+00
  0.00000000E+00  2.00000000E+00  1.00000000E+00  0.00000000E+00  1.00000000E+00
  0.00000000E+00  0.00000000E+00  1.00000000E+00  0.00000000E+00  0.00000000E+00
  1.00000000E+00  0.00000000E+00  0.00000000E+00
Virial Ratio                               R      2.000320073621082E+00
SCF Energy                                 R     -4.912918957322052E+02
Total Energy                               R     -4.912918957322052E+02
S**2                                       R      6.769326531861370E-01
S**2 after annihilation                    R      8.765117120050156E-02
RMS Force                                  R      1.713426719200636E-02
RMS Density                                R      3.234328054629976E-10
Job Status                                 I                1
Nuclear derivative order                   I                1
External E-field                           R   N=          35
  0.00000000E+00  0.00000000E+00  0.00000000E+00  0.00000000E+00  0.00000000E+00
  0.00000000E+00  0.00000000E+00  0.00000000E+00  0.00000000E+00  0.00000000E+00
  0.00000000E+00  0.00000000E+00  0.00000000E+00  0.00000000E+00  0.00000000E+00
  0.00000000E+00  0.00000000E+00  0.00000000E+00  0.00000000E+00  0.00000000E+00
  0.00000000E+00  0.00000000E+00  0.00000000E+00  0.00000000E+00  0.00000000E+00
  0.00000000E+00  0.00000000E+00  0.00000000E+00  0.00000000E+00  0.00000000E+00
  0.00000000E+00  0.00000000E+00  0.00000000E+00  0.00000000E+00  0.00000000E+00
IOpCl                                      I                1
IROHF                                      I                0
Alpha Orbital Energies                     R   N=          61
 -9.19884075E+01 -1.55823702E+01 -1.12505300E+01 -9.02228496E+00 -6.71040287E+00
 -6.70928780E+00 -6.70743314E+00 -1.23602066E+00 -1.01118308E+00 -7.98603858E-01
 -6.64716125E-01 -6.30443185E-01 -5.64784245E-01 -5.00864976E-01 -4.49304836E-01
 -3.67520767E-01  1.14927531E-01  1.81532620E-01  2.06239915E-01  2.19040161E-01
  3.01251055E-01  3.70986544E-01  4.87570919E-01  5.88436898E-01  6.71736343E-01
  6.96794463E-01  7.55863759E-01  8.08526526E-01  8.49365769E-01  8.75022606E-01
  8.82165440E-01  8.91926494E-01  8.98022963E-01  9.48942354E-01  9.74508977E-01
  1.03646190E+00  1.04007000E+00  1.09276074E+00  1.18535847E+00  1.31253123E+00
  1.34066889E+00  1.44402928E+00  1.46351211E+00  1.64870074E+00  1.77625050E+00
  1.82623041E+00  1.83996200E+00  1.94603939E+00  2.29714404E+00  2.33404323E+00
  2.35429593E+00  2.39675497E+00  2.50960884E+00  2.60293586E+00  2.71034815E+00
  2.82890424E+00  2.83712435E+00  3.09615271E+00  3.21267272E+00  3.22774378E+00
  3.57661574E+00
Beta Orbital Energies                      R   N=          61
 -9.19872338E+01 -1.55573093E+01 -1.12714021E+01 -9.02106897E+00 -6.70980795E+00
 -6.70666216E+00 -6.70438777E+00 -1.20030941E+00 -1.01674101E+00 -8.06621024E-01
 -6.63231210E-01 -6.38883672E-01 -5.15433382E-01 -4.84347016E-01 -4.34076317E-01
 -3.39147646E-01  1.16118871E-01  1.81288074E-01  2.05302075E-01  2.16134398E-01
  3.01404889E-01  3.68705083E-01  4.86457326E-01  5.81304763E-01  6.62727942E-01
  6.65870916E-01  6.87840274E-01  8.09469542E-01  8.46595539E-01  8.55769301E-01
  8.81225720E-01  8.89767374E-01  9.07455971E-01  9.88905550E-01  9.89722382E-01
  1.03969060E+00  1.10128355E+00  1.11640628E+00  1.19330257E+00  1.31594105E+00
  1.35236787E+00  1.40563796E+00  1.46495537E+00  1.67336511E+00  1.77809367E+00
  1.80371434E+00  1.84150545E+00  1.93246171E+00  2.25730935E+00  2.30980820E+00
  2.32591253E+00  2.42158539E+00  2.47890858E+00  2.66183132E+00  2.70133977E+00
  2.86862201E+00  2.88261573E+00  3.11538466E+00  3.20466618E+00  3.22676869E+00
  3.59134340E+00
Alpha MO coefficients                      R   N=        3721
  1.18823572E-04 -5.12553638E-04  2.01232258E-03 -4.27459497E-04  5.13092236E-07
  1.05984483E-05  8.09983284E-04  1.87207435E-04  1.04463915E-04  2.84682925E-04
  6.73158711E-05  4.45990716E-06 -5.00867056E-04  6.57161843E-05  9.94296234E-01
 -2.14788393E-02  9.24311236E-03 -5.58465669E-03 -1.01287097E-04  1.45720084E-04
  9.88695546E-05 -3.43899141E-04  3.96390676E-04  2.70584849E-04  1.49281218E-03
  7.04104893E-05  1.07596057E-05 -1.37637132E-04  1.83215975E-04  1.99710295E-04
  5.37966142E-05  2.92076767E-04 -7.10260595E-05 -2.63777071E-05 -5.33800191E-04
 -1.41717186E-04 -1.71240785E-04 -1.09921646E-04  4.11990140E-04  7.57005481E-04
  4.91067820E-04  1.38660280E-04 -2.55754604E-04 -4.30388232E-04  1.45994154E-04
 -4.00008583E-04 -7.40999400E-05  2.64267172E-04  5.60926212E-05  2.38554536E-05
  1.44416688E-05 -7.86972638E-05 -1.63580959E-04 -3.69310606E-05 -6.35336340E-05
 -4.11658655E-05 -4.20235856E-05  2.18212322E-04 -1.45133161E-04 -1.54236030E-04
 -9.85733365E-05 -3.19164810E-05  1.00284181E-04  2.08194494E-03  2.67051039E-04
  4.76906985E-05  2.51311404E-05  9.64380639E-04  5.86282569E-04  3.64901034E-04
 -5.50445889E-05  1.29903632E-04 -7.62837785E-05  1.49647156E-04  2.03235228E-04
 -4.36309819E-05 -3.44715754E-04  1.19100227E-03 -8.08496308E-03  1.16991214E-04
  1.68079223E-04  1.08420794E-04  2.20191223E-04  5.35959066E-04  3.49389764E-04
 -5.23621294E-04 -3.39300465E-03 -2.23288148E-03 -2.01522936E-05  4.51542518E-04
  3.28098039E-04 -2.79295187E-04  6.80956770E-04  9.90417333E-01 -3.50497525E-02
  1.88601141E-02 -3.17257539E-03  2.24599364E-04  2.25200937E-04 -3.38179845E-03
 -2.18204601E-03 -1.36266874E-03 -1.14498485E-05  4.49941617E-04 -4.00096807E-04
  3.23746401E-04  6.82195366E-04  3.39784332E-05 -5.13092967E-05 -6.87493521E-05
 -4.59148567E-05 -2.87427945E-05 -1.05527159E-04 -5.25898611E-05  6.42324897E-05
 -5.35373678E-05 -3.69806685E-05  1.90294198E-03 -3.42131574E-03  1.71515418E-03
 -1.48606930E-03 -1.02503562E-03  9.91223260E-01  3.39306436E-02 -1.93193697E-02
  4.41181824E-06 -3.49848850E-05 -2.31152865E-05  6.22614590E-04 -2.98391906E-04
 -2.12559660E-04 -1.08351887E-03 -1.35930855E-04  1.77061146E-03  3.79564658E-04
 -8.08419672E-05  6.91633495E-05  4.86202037E-04 -1.19297884E-03  3.19819828E-03
  2.24112799E-04  3.21024689E-06 -3.25393153E-06  1.06795264E-03 -4.69625438E-05
 -5.67127736E-05  1.56067425E-04  4.64074815E-04  3.03403352E-04  8.44182521E-04
  1.41944809E-04 -1.02906703E-04 -1.38215162E-03  1.08752814E-04 -2.06478802E-05
 -1.23386960E-04 -5.00542227E-04 -1.66145590E-04 -2.37271198E-05 -1.17241009E-05
 -2.70286689E-04  3.90919334E-04  2.65188498E-04 -2.89540365E-05 -5.97643252E-05
  5.31599255E-05  9.60332314E-06 -8.68084720E-05 -2.38430994E-03  4.77388552E-03
 -6.61979568E-04 -9.31051949E-04 -6.00290427E-04 -2.26349332E-03  5.10200911E-03
 -6.78008857E-04  9.35262673E-04  6.35324525E-04 -2.37083615E-04  7.75788082E-05
 -9.06313870E-05 -3.28909489E-05 -1.95723142E-05 -1.77535300E-04 -7.51930660E-04
  2.41598650E-03 -2.94941679E-04  2.02070659E-05  2.04432602E-05  8.52459687E-04
  4.55634206E-04  2.81093348E-04  1.44936023E-04  5.36763381E-05 -1.68792143E-04
 -1.11316805E-04  6.38697533E-05  3.07504391E-01  1.02816120E+00  3.04823604E-02
 -9.82691158E-03  3.43546770E-03 -5.46071930E-03 -3.69657233E-03 -1.05868758E-03
  1.30487078E-03  8.89009311E-04  1.57964948E-03 -3.21244758E-04 -2.50525862E-04
 -2.56724800E-04  2.76087866E-04  2.50886557E-04  2.08730588E-04  4.46673608E-04
  1.46925551E-04 -4.89929468E-05 -3.39802410E-04 -3.06385764E-05 -1.05784502E-05
 -6.26364520E-06  5.22474118E-04  6.23318248E-04  3.99911103E-04  7.44951785E-05
 -1.33624962E-05 -2.18366650E-04  5.77125452E-05 -2.80550473E-05  1.46977175E-04
  4.38900577E-04  2.40967671E-04  8.08514807E-05  4.77254524E-05 -9.50675224E-06
 -3.11224657E-04  1.52639495E-04 -8.50846425E-05 -5.99796428E-05  1.60005239E-04
  4.24437072E-04 -1.48082401E-04 -2.74417655E-04 -1.78049597E-04 -1.48866991E-04
 -7.59626842E-04  4.85075479E-03 -8.14408274E-04  9.05297100E-05  7.93939076E-05
  1.91768811E-03 -7.10493976E-04 -5.15915891E-04  5.70790983E-04  1.47374082E-04
 -6.14342817E-05 -9.45493817E-04  1.51061850E-04 -4.69683358E-04 -1.84425672E-03
  1.81442908E-03 -5.82785584E-03  9.33571455E-01  2.69800926E-01  1.55848977E-01
 -4.18034620E-02 -1.25401924E-02 -7.28330407E-03  8.07073752E-03  7.62380187E-04
  3.08954980E-04 -2.67133125E-04 -6.95352796E-04 -1.05652171E-03  1.41326856E-03
 -1.00725055E-03 -2.17396188E-04 -4.44072362E-04  1.94363455E-03  1.05918581E-04
  1.87144649E-04  1.21298741E-04 -2.25311634E-03 -5.60622297E-04 -3.16610740E-04
 -2.23949144E-04  3.07624167E-04  6.74452782E-04 -2.09773008E-04  4.87242934E-04
 -2.69274655E-04 -1.90930225E-04  1.79605564E-04  5.18550415E-05  2.99772230E-05
  1.90781925E-04  8.89608815E-05  7.82931878E-05 -1.21864351E-04 -8.25858639E-05
 -7.44494240E-04 -2.64956120E-04  4.10493803E-05  2.58915367E-04  1.70395330E-04
 -4.73546165E-08 -2.35235617E-07  1.70520505E-06  3.15297355E-06 -9.31207028E-05
  1.40741334E-04 -2.05239837E-05  5.85115811E-04 -8.84210774E-04 -1.04448651E-05
  2.34369916E-04  3.29199883E-06  4.86064516E-06 -1.55208288E-04 -4.02609823E-07
 -1.53141233E-06  9.69430405E-07 -2.15271636E-06  1.99922456E-02 -5.43645125E-01
  8.21380597E-01 -8.35076125E-04  2.26888533E-02 -3.42804051E-02  1.26725980E-04
 -3.42568177E-03  5.17503758E-03 -2.04384355E-04  2.77318360E-04 -9.01545426E-05
 -1.04157220E-04 -1.89787291E-04 -2.90781055E-08 -1.22996747E-07  6.95857408E-07
  3.72036651E-07 -9.65947728E-06  1.46647155E-05 -1.54552005E-05  4.09662422E-04
 -6.19179204E-04 -1.48136909E-04 -9.69315168E-05 -7.59483498E-05 -9.01214952E-05
  5.96957324E-05 -3.70319751E-08 -6.82699257E-08  1.91087136E-06 -5.20455115E-05
  7.86892499E-05  1.26464347E-08 -1.41712410E-08  2.57289820E-06 -7.03493513E-05
  1.06213833E-04 -1.52040511E-07 -7.24404814E-08  3.88894761E-07 -1.08164898E-05
  1.64167455E-05  7.66033640E-05  3.47022708E-04 -3.99055161E-03  1.35420519E-04
  4.82720280E-05  2.87201214E-05 -1.27296116E-03 -1.22870739E-03 -7.82797609E-04
 -1.29401183E-04  1.93368713E-04 -4.29344209E-05  2.44766439E-04  3.07910752E-04
  2.57230637E-03  9.56171552E-03 -4.14834362E-03  5.25291821E-03 -3.11542310E-01
  7.75612114E-01  5.20935343E-01  1.28070366E-02 -3.32919697E-02 -2.23465504E-02
 -3.31461071E-03  5.72457911E-03  3.86905592E-03  1.17212035E-04  1.36019661E-05
 -6.17608656E-04  3.20650099E-04  9.90313629E-06 -1.93438944E-04 -8.22983521E-05
 -9.78790731E-04  5.22114461E-05  6.94843898E-05  4.47207545E-05 -3.21545659E-05
 -1.48807649E-04 -9.77334095E-05 -2.29242410E-04  2.18473731E-04  3.28093080E-04
  1.00246032E-04  3.55953743E-04 -2.47016723E-04  2.94215010E-04  1.73339610E-04
 -6.11687349E-05 -4.46287400E-05  4.55218449E-04  6.77711305E-04 -7.70159666E-05
 -5.43461256E-05 -3.41142142E-05 -2.31629562E-04 -7.30746920E-04  2.89545151E-04
  4.34672288E-04  2.80706296E-04 -4.97471182E-02  9.35561538E-02 -7.01020074E-04
  5.39874553E-02  4.24912325E-03  1.51653906E-03  1.37707530E-03  1.36203025E-03
  8.68262530E-04 -5.41940509E-03  7.90477607E-04  6.17823017E-04  8.77561039E-03
  1.86733493E-03 -4.66648750E-02 -2.90678471E-01  4.06811864E-01  1.17282435E-01
  1.10619921E-02  5.43907309E-02  3.57303726E-02  1.83687910E-02  8.74107669E-02
  5.74077370E-02 -1.26692097E-02  3.65249596E-02  2.44778479E-02 -1.19979931E-02
  1.50837447E-02  3.05225117E-02 -6.37326087E-03  2.40345251E-02  2.20950758E-01
  4.49303195E-01  2.10059507E-01  9.92879711E-02  5.72312682E-02  3.54855418E-02
 -3.08760492E-02 -2.42133631E-02 -1.52821724E-02 -1.14495676E-03  6.27242268E-03
  4.41000436E-03 -2.26130021E-03  9.56834096E-03  1.85692119E-02  5.70979933E-03
  3.50186970E-03  2.14406890E-03  1.33496722E-03  2.08486613E-02  2.74785126E-03
  2.97457141E-03 -2.35253626E-03 -1.62855143E-03  1.27628500E-01 -3.66817173E-03
  8.98267206E-03 -1.52576778E-02 -1.03158313E-02 -1.74588181E-01  3.39218488E-01
  6.20300781E-02  1.10458784E-01 -1.28924208E-02 -1.11818445E-02  6.09473777E-03
  2.50273924E-03  1.51058839E-03 -1.37497881E-02 -2.07354182E-03  9.18938814E-03
  1.61158839E-02 -1.46216561E-03 -4.02905832E-02 -2.55448209E-01  3.64670672E-01
  2.00169059E-01 -9.71196824E-02 -3.18130257E-02 -1.87221688E-02 -1.60579601E-01
 -5.27385358E-02 -3.10469170E-02 -1.14323477E-01 -2.57634735E-02 -1.43055390E-02
 -1.73148603E-02 -1.17962177E-02 -1.79061514E-02  4.60398910E-02 -1.54853897E-02
 -1.39085470E-01 -2.85346371E-01 -1.92370948E-01 -2.00532106E-02  4.11240024E-02
  2.77045257E-02  1.71905318E-02 -5.49790873E-03 -4.05284427E-03 -2.12407471E-03
  2.65243686E-03  3.75440584E-04  3.14159638E-03  4.26161019E-03  1.14351153E-01
  1.56948751E-02  7.64517744E-03  9.85865012E-03  6.34124350E-03  9.48946865E-02
  1.21072270E-02  7.21043320E-03 -8.09036179E-03 -5.52800373E-03 -1.23985053E-01
 -8.66981360E-03 -9.02924205E-03  1.07301376E-02  7.31998553E-03  1.46871858E-01
 -2.91080771E-01 -1.05875548E-01  1.14697087E-01 -8.78353098E-03 -8.57221261E-03
  3.41626657E-02 -3.36710585E-03 -3.05011842E-03  5.71787095E-03  1.20666168E-03
 -1.53306306E-02  3.04028672E-03  1.20463494E-03 -4.03094055E-02 -2.59877461E-01
  3.96203690E-01  1.72988053E-01  5.89180868E-02  1.02501579E-03 -7.38199548E-04
  1.01333248E-01  4.40171001E-03  4.76705361E-04  8.71307529E-02 -2.06043563E-02
 -1.57308086E-02  4.42390338E-03  1.24953794E-02  4.08167214E-03 -1.20946656E-02
  1.82521846E-02 -6.14044861E-02 -1.22288046E-01 -1.02814162E-01 -2.02793649E-02
  2.10265045E-01  1.39656576E-01  1.31955330E-03 -7.50596730E-02 -4.97106701E-02
 -8.33847899E-04  9.92976859E-03  5.87466140E-03 -4.33093458E-03  1.50299267E-02
 -1.77685273E-01 -4.13311983E-02 -5.43230181E-03 -1.32129274E-02 -8.61442719E-03
 -1.98368975E-01 -5.08656396E-02 -7.77783089E-03  1.28227208E-02  8.67391824E-03
 -2.14560645E-01 -4.23204830E-02 -1.41048844E-02  1.43790634E-02  9.85824218E-03
  5.27019000E-02 -9.83984666E-02 -8.95890580E-02  2.73890397E-01 -6.38076306E-02
 -4.88084219E-02  8.33699236E-02 -1.82287188E-02 -1.40673131E-02 -4.01654645E-03
 -1.53958268E-03 -1.05275526E-02  1.59952213E-02 -1.74713038E-03 -9.14576207E-03
 -5.91299652E-02  8.25031661E-02  9.67479051E-02 -1.27121768E-01 -5.63515209E-02
 -3.42351000E-02 -2.26775286E-01 -1.02129622E-01 -6.21336762E-02 -1.70885202E-01
 -6.21821973E-02 -3.70377376E-02 -1.40189336E-03 -2.39863232E-02 -2.03534464E-02
  2.15944258E-02 -3.58417506E-02 -1.98194302E-02 -5.13835102E-02 -5.18903692E-02
  8.76106720E-02 -2.64371917E-01 -1.77099533E-01 -4.11057118E-02  1.23638173E-01
  8.28270166E-02 -2.71699647E-03 -1.08813937E-02 -5.09718975E-03  9.88033196E-03
 -1.60216583E-02 -1.13880885E-01 -3.41146522E-02 -9.66055738E-04 -8.59194585E-03
 -5.66331510E-03 -2.37348495E-01 -6.70126778E-02 -6.12456861E-03  1.40311939E-02
  9.43425912E-03  2.39199009E-01  6.07547792E-02  1.17990666E-02 -1.50202246E-02
 -1.02267336E-02 -6.27981567E-03  9.39366995E-03  3.02280359E-02 -8.50922919E-02
 -3.15259525E-01 -2.06612272E-01 -2.73973949E-02 -1.41123160E-01 -9.27447861E-02
  2.65074531E-03  3.95046029E-03  4.03866735E-03 -8.32081903E-03  5.59462089E-03
 -2.17574047E-04 -1.86516525E-03  6.03029771E-03 -9.12932851E-03  4.35633990E-02
 -6.08968368E-02 -4.13517435E-02  7.78201067E-02 -1.06212225E-01 -7.21672076E-02
  7.35189474E-02 -1.16709822E-01 -7.90117608E-02  2.39675879E-03  2.37747790E-02
 -1.20837818E-02  4.24600056E-03  3.56144674E-02  4.30792780E-02  9.08172206E-02
  1.28905406E-01 -1.32867922E-01 -7.63037290E-03 -1.85423743E-03  7.34921725E-02
 -8.19373105E-04 -2.30932262E-03  5.83008639E-03 -2.70690751E-03 -1.91297928E-03
 -8.23439147E-03 -4.80041665E-03  3.30582616E-01  9.12545931E-02  1.30504851E-02
  1.31886409E-02  8.41526095E-03 -2.33476952E-01 -7.20130519E-02 -1.28522656E-02
  6.78535775E-03  4.80001146E-03 -1.94236419E-02 -8.97524857E-03  3.83307206E-03
  3.26793493E-03  2.07106972E-03 -2.52680370E-06  6.83871217E-06  3.93990199E-06
 -1.45173393E-03  4.07399361E-02 -6.15628233E-02 -9.29998370E-04  2.59775991E-02
 -3.92531384E-02  5.92720449E-04 -1.18677470E-02 -1.39824843E-04 -2.25458711E-04
  7.86229839E-03  2.18710312E-06  1.43680583E-05 -1.90040691E-05 -2.68789349E-05
 -3.11254491E-03  8.53684302E-02 -1.28980456E-01 -5.50734380E-03  1.51028833E-01
 -2.28184467E-01 -6.10000672E-03  1.67564165E-01 -2.53166824E-01 -3.80711182E-02
  3.94252528E-03 -1.85026050E-02 -2.17621453E-02 -3.75554420E-03  9.66233901E-06
  2.11491007E-05  3.02110129E-05  9.70808381E-03 -2.67229631E-01  4.03750666E-01
 -6.67736058E-03  1.83723700E-01 -2.77580011E-01  1.08884737E-02  2.01817063E-02
  6.06555452E-03  7.25060620E-03 -1.30107183E-02 -5.74854679E-06 -2.18231075E-06
 -3.21469005E-05  8.86890970E-04 -1.34096471E-03 -1.45259230E-05 -4.45546050E-06
 -3.84074331E-05  1.05159557E-03 -1.58702665E-03 -1.96330470E-05 -7.96773950E-06
 -3.47801981E-04  9.54284632E-03 -1.44134199E-02 -3.26288174E-03  8.50875027E-03
 -1.24310990E-02  1.02843125E-02 -1.40505984E-01 -9.32420901E-02  1.12180250E-02
 -6.86932978E-02 -4.57345090E-02 -2.19990570E-03  8.45623952E-03  7.87435079E-04
  2.46536494E-03  1.30158831E-02  1.07579960E-02  7.08442745E-02 -9.30273393E-02
 -1.84433497E-01 -2.44476597E-02  1.33784962E-01  8.91294611E-02 -3.87148762E-02
  2.43993358E-01  1.62410543E-01 -8.66824165E-02  2.45253446E-01  1.64398149E-01
 -5.10680641E-03  1.29759022E-02  4.90260602E-02 -3.38155275E-02  1.98641514E-02
 -5.47390629E-02 -1.19924115E-01 -1.52544175E-01  3.88468323E-01  1.34033328E-01
  7.93535103E-02 -2.80412547E-01 -7.81056568E-02 -4.49391636E-02 -1.41208677E-02
  9.77224217E-03  5.18294874E-03  1.92235944E-02  1.64709234E-02  1.61574480E-01
  7.61539775E-02  6.28403089E-03  5.52275400E-03  3.50419400E-03 -1.57463242E-01
 -5.58659680E-02 -5.25309400E-03  4.23629080E-03  2.93016862E-03  5.27039770E-03
 -1.90139695E-02 -1.24829897E-02 -6.90964487E-03 -4.27285002E-03  4.83079363E-02
 -1.20832171E-01 -1.05972689E-01 -2.59527922E-01  1.63027504E-02  1.70131311E-02
 -1.17860860E-01  3.24312435E-02  2.42870706E-02  7.51592625E-03 -4.10846296E-03