0004_q000_m01_k00_opt_uwb97xd_def2svpd/0004_q000_m01_k00_force_uwb97xd_d
Force     UwB97XD                                                     Gen                 
Number of atoms                            I                6
Info1-9                                    I   N=           9
          13           9           0           0           0         100
           5          18       -5802
Full Title                                 C   N=           8
0004_q000_m01_k00_opt_uwb97xd_def2svpd/0004_q000_m01_k00_for
ce_uwb97xd_def2tzvp stable-force    
Route                                      C   N=          15
#p uwb97xd/chkbasis force guess=read geom=check scf=(maxcycl
e=900,verytightlineq,xqc) integral=grid=ultrafine symmetry=N
one density=current pop=(cm5,hlygat,mbs,npa) output=wfx     
Charge                                     I                0
Multiplicity                               I                1
Number of electrons                        I               32
Number of alpha electrons                  I               16
Number of beta electrons                   I               16
Number of basis functions                  I              117
Number of independent functions            I              117
Number of point charges in /Mol/           I                0
Number of translation vectors              I                0
Atomic numbers                             I   N=           6
           6          16           7           1           1           1
Nuclear charges                            R   N=           6
  6.00000000E+00  1.60000000E+01  7.00000000E+00  1.00000000E+00  1.00000000E+00
  1.00000000E+00
Current cartesian coordinates              R   N=          18
  1.67863146E+00  2.68784369E-01  2.05840898E-01  4.73702225E+00  1.96852105E-01
  8.48289160E-02  6.24221873E+00  2.32416928E+00  1.45652951E+00  7.09165380E-01
 -1.25729983E+00 -7.80890272E-01  6.12793001E-01  1.72884379E+00  1.19782199E+00
  5.12841835E+00  3.62849725E+00  2.34675860E+00
Number of symbols in /Mol/                 I                0
Int Atom Types                             I   N=           6
           0           0           0           0           0           0
Force Field                                I                0
Atom Types                                 C   N=           6
                                                            
            
MM charges                                 R   N=           6
  0.00000000E+00  0.00000000E+00  0.00000000E+00  0.00000000E+00  0.00000000E+00
  0.00000000E+00
Integer atomic weights                     I   N=           6
          12          32          14           1           1           1
Real atomic weights                        R   N=           6
  1.20000000E+01  3.19720718E+01  1.40030740E+01  1.00782504E+00  1.00782504E+00
  1.00782504E+00
Atom fragment info                         I   N=           6
           0           0           0           0           0           0
Atom residue num                           I   N=           6
           0           0           0           0           0           0
Nuclear spins                              I   N=           6
           0           0           2           1           1           1
Nuclear ZEff                               R   N=           6
 -3.60000000E+00 -1.36000000E+01 -4.55000000E+00 -1.00000000E+00 -1.00000000E+00
 -1.00000000E+00
Nuclear ZNuc                               R   N=           6
  6.00000000E+00  1.60000000E+01  7.00000000E+00  1.00000000E+00  1.00000000E+00
  1.00000000E+00
Nuclear QMom                               R   N=           6
  0.00000000E+00  0.00000000E+00  2.04400000E+00  0.00000000E+00  0.00000000E+00
  0.00000000E+00
Nuclear GFac                               R   N=           6
  0.00000000E+00  0.00000000E+00  4.03761000E-01  2.79284600E+00  2.79284600E+00
  2.79284600E+00
MicOpt                                     I   N=           6
          -1          -1          -1          -1          -1          -1
Number of residues                         I                0
Number of secondary structures             I                0
Number of contracted shells                I               47
Number of primitive shells                 I               85
Pure/Cartesian d shells                    I                0
Pure/Cartesian f shells                    I                0
Highest angular momentum                   I                3
Largest degree of contraction              I                7
Shell types                                I   N=          47
           0           0           0           0           0           1
           1           1          -2          -2          -3           0
           0           0           0           0           1           1
           1           1           1          -2          -2          -3
           0           0           0           0           0           1
           1           1          -2          -2          -3           0
           0           0           1           0           0           0
           1           0           0           0           1
Number of primitives per shell             I   N=          47
           6           2           1           1           1           4
           1           1           1           1           1           7
           3           2           1           1           5           1
           1           1           1           2           1           1
           6           2           1           1           1           4
           1           1           1           1           1           3
           1           1           1           3           1           1
           1           3           1           1           1
Shell to atom map                          I   N=          47
           1           1           1           1           1           1
           1           1           1           1           1           2
           2           2           2           2           2           2
           2           2           2           2           2           2
           3           3           3           3           3           3
           3           3           3           3           3           4
           4           4           4           5           5           5
           5           6           6           6           6
Primitive exponents                        R   N=          85
  1.35753497E+04  2.03523337E+03  4.63225624E+02  1.31200196E+02  4.28530159E+01
  1.55841858E+01  6.20671385E+00  2.57648965E+00  5.76963394E-01  2.29728314E-01
  9.51644400E-02  3.46972322E+01  7.95826228E+00  2.37808269E+00  8.14332082E-01
  2.88875473E-01  1.00568237E-01  1.09700000E+00  3.18000000E-01  7.61000000E-01
  6.07009281E+04  9.10261069E+03  2.07141660E+03  5.86024768E+02  1.90553950E+02
  6.76303843E+01  2.51273069E+01  1.12574630E+02  3.47955542E+01  6.51155562E+00
  3.23990323E+00  1.54771609E+00  4.05410301E-01  1.45506511E-01  5.64367160E+02
  1.33426244E+02  4.24682712E+01  1.56165276E+01  6.10939885E+00  2.44041602E+00
  8.38822013E-01  3.12887469E-01  1.07701090E-01  3.75600000E+00  8.12000000E-01
  2.73000000E-01  5.57000000E-01  1.97308006E+04  2.95789587E+03  6.73221336E+02
  1.90682495E+02  6.22954419E+01  2.26541612E+01  8.97914774E+00  3.68630024E+00
  8.46600768E-01  3.36471338E-01  1.36476537E-01  4.92003805E+01  1.13467905E+01
  3.42739724E+00  1.17855251E+00  4.16422050E-01  1.42608260E-01  1.65400000E+00
  4.69000000E-01  1.09300000E+00  3.40613410E+01  5.12357460E+00  1.16466260E+00
  3.27230410E-01  1.03072410E-01  8.00000000E-01  3.40613410E+01  5.12357460E+00
  1.16466260E+00  3.27230410E-01  1.03072410E-01  8.00000000E-01  3.40613410E+01
  5.12357460E+00  1.16466260E+00  3.27230410E-01  1.03072410E-01  8.00000000E-01
Contraction coefficients                   R   N=          85
  6.06455036E-04  4.69790889E-03  2.43324776E-02  9.73999683E-02  3.01955843E-01
  6.62336091E-01  6.55953085E-01  3.75856333E-01  1.00000000E+00  1.00000000E+00
  1.00000000E+00  1.13272200E-02  7.61696592E-02  3.01922522E-01  7.27850273E-01
  1.00000000E+00  1.00000000E+00  1.00000000E+00  1.00000000E+00  1.00000000E+00
  5.23800749E-04  4.05063268E-03  2.08270042E-02  8.14968503E-02  2.37491138E-01
  4.47261715E-01  3.48919184E-01  1.00455699E-01  4.33911729E-01 -1.20843306E+00
  6.74981294E-01  3.47087958E-01  1.00000000E+00  1.00000000E+00  3.48869236E-03
  2.76851268E-02  1.26594002E-01  3.61659257E-01  6.12220344E-01  1.00000000E+00
  1.00000000E+00  1.00000000E+00  1.00000000E+00  1.82851975E-01  9.14259873E-01
  1.00000000E+00  1.00000000E+00  5.86264026E-04  4.54288206E-03  2.35584135E-02
  9.47091933E-02  2.97197849E-01  6.69162469E-01  6.45966836E-01  3.87005744E-01
  1.00000000E+00  1.00000000E+00  1.00000000E+00  1.14488251E-02  7.84223380E-02
  3.08180947E-01  7.20271964E-01  1.00000000E+00  1.00000000E+00  1.00000000E+00
  1.00000000E+00  1.00000000E+00  2.54393072E-02  1.90085949E-01  8.52441130E-01
  1.00000000E+00  1.00000000E+00  1.00000000E+00  2.54393072E-02  1.90085949E-01
  8.52441130E-01  1.00000000E+00  1.00000000E+00  1.00000000E+00  2.54393072E-02
  1.90085949E-01  8.52441130E-01  1.00000000E+00  1.00000000E+00  1.00000000E+00
Coordinates of each shell                  R   N=         141
  1.67863146E+00  2.68784369E-01  2.05840898E-01  1.67863146E+00  2.68784369E-01
  2.05840898E-01  1.67863146E+00  2.68784369E-01  2.05840898E-01  1.67863146E+00
  2.68784369E-01  2.05840898E-01  1.67863146E+00  2.68784369E-01  2.05840898E-01
  1.67863146E+00  2.68784369E-01  2.05840898E-01  1.67863146E+00  2.68784369E-01
  2.05840898E-01  1.67863146E+00  2.68784369E-01  2.05840898E-01  1.67863146E+00
  2.68784369E-01  2.05840898E-01  1.67863146E+00  2.68784369E-01  2.05840898E-01
  1.67863146E+00  2.68784369E-01  2.05840898E-01  4.73702225E+00  1.96852105E-01
  8.48289160E-02  4.73702225E+00  1.96852105E-01  8.48289160E-02  4.73702225E+00
  1.96852105E-01  8.48289160E-02  4.73702225E+00  1.96852105E-01  8.48289160E-02
  4.73702225E+00  1.96852105E-01  8.48289160E-02  4.73702225E+00  1.96852105E-01
  8.48289160E-02  4.73702225E+00  1.96852105E-01  8.48289160E-02  4.73702225E+00
  1.96852105E-01  8.48289160E-02  4.73702225E+00  1.96852105E-01  8.48289160E-02
  4.73702225E+00  1.96852105E-01  8.48289160E-02  4.73702225E+00  1.96852105E-01
  8.48289160E-02  4.73702225E+00  1.96852105E-01  8.48289160E-02  4.73702225E+00
  1.96852105E-01  8.48289160E-02  6.24221873E+00  2.32416928E+00  1.45652951E+00
  6.24221873E+00  2.32416928E+00  1.45652951E+00  6.24221873E+00  2.32416928E+00
  1.45652951E+00  6.24221873E+00  2.32416928E+00  1.45652951E+00  6.24221873E+00
  2.32416928E+00  1.45652951E+00  6.24221873E+00  2.32416928E+00  1.45652951E+00
  6.24221873E+00  2.32416928E+00  1.45652951E+00  6.24221873E+00  2.32416928E+00
  1.45652951E+00  6.24221873E+00  2.32416928E+00  1.45652951E+00  6.24221873E+00
  2.32416928E+00  1.45652951E+00  6.24221873E+00  2.32416928E+00  1.45652951E+00
  7.09165380E-01 -1.25729983E+00 -7.80890272E-01  7.09165380E-01 -1.25729983E+00
 -7.80890272E-01  7.09165380E-01 -1.25729983E+00 -7.80890272E-01  7.09165380E-01
 -1.25729983E+00 -7.80890272E-01  6.12793001E-01  1.72884379E+00  1.19782199E+00
  6.12793001E-01  1.72884379E+00  1.19782199E+00  6.12793001E-01  1.72884379E+00
  1.19782199E+00  6.12793001E-01  1.72884379E+00  1.19782199E+00  5.12841835E+00
  3.62849725E+00  2.34675860E+00  5.12841835E+00  3.62849725E+00  2.34675860E+00
  5.12841835E+00  3.62849725E+00  2.34675860E+00  5.12841835E+00  3.62849725E+00
  2.34675860E+00
Num ILSW                                   I              100
ILSW                                       I   N=         100
           1           0           0           0           2           0
           0           0           0           0        4639          -1
           5           0           0           0           2           0
           0           0           0           0           1           0
           1           1           0           0           0           0
           0           0      100000           0          -1           0
           0           0           0           0           0           0
           0           0           0           1           0           0
           0 -2000000000           1           0           0           0
           0           0         121          52           0           0
           0           0          58           0           0           0
           0           0           0           6           0           1
           0           0           0           0           0           0
           0           0           0           0           0           0
           0           0           0           0           0           0
           0           0           0           0           0           0
           0           0           0           0
Num RLSW                                   I               52
RLSW                                       R   N=          52
  1.00000000E+00  1.00000000E+00  1.00000000E+00  1.00000000E+00  1.00000000E+00
  0.00000000E+00  2.00000000E-01  2.22036000E-01  0.00000000E+00  7.77964000E-01
  0.00000000E+00  2.00000000E-01  0.00000000E+00  0.00000000E+00  1.00000000E+00
  0.00000000E+00  0.00000000E+00  1.00000000E+00  0.00000000E+00  0.00000000E+00
  0.00000000E+00  0.00000000E+00  1.00000000E+00  0.00000000E+00  0.00000000E+00
  0.00000000E+00  0.00000000E+00  1.00000000E+00  0.00000000E+00  0.00000000E+00
  0.00000000E+00  0.00000000E+00  1.00000000E+00  0.00000000E+00  0.00000000E+00
  0.00000000E+00  0.00000000E+00  0.00000000E+00  1.00000000E+00  1.00000000E+00
  0.00000000E+00  1.00000000E+00  0.00000000E+00  0.00000000E+00  0.00000000E+00
  0.00000000E+00  0.00000000E+00  0.00000000E+00  0.00000000E+00  0.00000000E+00
  0.00000000E+00  0.00000000E+00
MxBond                                     I                3
NBond                                      I   N=           6
           3           2           2           1           1           1
IBond                                      I   N=          18
           2           4           5           1           3           0
           2           6           0           1           0           0
           1           0           0           3           0           0
RBond                                      R   N=          18
  2.00000000E+00  1.00000000E+00  1.00000000E+00  2.00000000E+00  2.00000000E+00
  0.00000000E+00  2.00000000E+00  1.00000000E+00  0.00000000E+00  1.00000000E+00
  0.00000000E+00  0.00000000E+00  1.00000000E+00  0.00000000E+00  0.00000000E+00
  1.00000000E+00  0.00000000E+00  0.00000000E+00
Virial Ratio                               R      2.002435038354215E+00
SCF Energy                                 R     -4.927921193506834E+02
Total Energy                               R     -4.927921193506834E+02
S**2                                       R      8.881784197001252E-15
S**2 after annihilation                    R      8.650857807879273E-13
RMS Force                                  R      6.312920388934903E-03
RMS Density                                R      8.670860728286712E-10
Job Status                                 I                1
Nuclear derivative order                   I                1
External E-field                           R   N=          35
  0.00000000E+00  0.00000000E+00  0.00000000E+00  0.00000000E+00  0.00000000E+00
  0.00000000E+00  0.00000000E+00  0.00000000E+00  0.00000000E+00  0.00000000E+00
  0.00000000E+00  0.00000000E+00  0.00000000E+00  0.00000000E+00  0.00000000E+00
  0.00000000E+00  0.00000000E+00  0.00000000E+00  0.00000000E+00  0.00000000E+00
  0.00000000E+00  0.00000000E+00  0.00000000E+00  0.00000000E+00  0.00000000E+00
  0.00000000E+00  0.00000000E+00  0.00000000E+00  0.00000000E+00  0.00000000E+00
  0.00000000E+00  0.00000000E+00  0.00000000E+00  0.00000000E+00  0.00000000E+00
IOpCl                                      I                1
IROHF                                      I                0
Alpha Orbital Energies                     R   N=         117
 -8.91124504E+01 -1.44288748E+01 -1.03201473E+01 -8.13711395E+00 -6.08390847E+00
 -6.08338353E+00 -6.07917586E+00 -1.02701800E+00 -8.62813955E-01 -7.00386972E-01
 -5.82618852E-01 -5.57492997E-01 -4.73575546E-01 -4.39072429E-01 -3.79228894E-01
 -3.14617818E-01 -1.94545607E-03  1.05783027E-01  1.25270540E-01  1.45650673E-01
  1.69807737E-01  2.15896131E-01  2.38624581E-01  2.88861888E-01  2.91366688E-01
  3.32819831E-01  3.70647353E-01  3.71793993E-01  4.07911388E-01  4.28851719E-01
  4.40434649E-01  4.74972670E-01  5.04347029E-01  5.09576303E-01  5.15378293E-01
  5.26380049E-01  5.64275011E-01  6.18064791E-01  6.40569623E-01  7.23864167E-01
  7.41517368E-01  8.25846144E-01  8.86819081E-01  9.75477776E-01  1.02090363E+00
  1.07049407E+00  1.08493793E+00  1.10546259E+00  1.28306688E+00  1.36272531E+00
  1.39217467E+00  1.42966427E+00  1.49742153E+00  1.52812512E+00  1.53121228E+00
  1.55350662E+00  1.60128088E+00  1.64189041E+00  1.65886532E+00  1.66964309E+00
  1.71596310E+00  1.74175100E+00  1.77373254E+00  1.83091022E+00  1.84087801E+00
  1.85567634E+00  1.89713037E+00  1.99952299E+00  2.03561906E+00  2.05081836E+00
  2.10240065E+00  2.11051826E+00  2.14310727E+00  2.21297238E+00  2.24080058E+00
  2.26666657E+00  2.42748167E+00  2.46437939E+00  2.49960680E+00  2.52929188E+00
  2.61055714E+00  2.62896993E+00  2.73624592E+00  2.76849146E+00  2.89472783E+00
  3.02897107E+00  3.14929210E+00  3.17288757E+00  3.21579189E+00  3.25703476E+00
  3.27343036E+00  3.37307598E+00  3.50029410E+00  3.52038802E+00  3.56759769E+00
  3.70424252E+00  3.76698676E+00  4.05977372E+00  4.11093961E+00  4.15499190E+00
  4.32739876E+00  4.37588634E+00  4.42944406E+00  4.55508390E+00  4.67615851E+00
  4.67871827E+00  4.85429869E+00  4.96501326E+00  5.09924945E+00  5.19399491E+00
  5.59188025E+00  8.88372276E+00  9.15788190E+00  9.53672336E+00  2.07325448E+01
  2.20201292E+01  3.17105359E+01
Beta Orbital Energies                      R   N=         117
 -8.91124504E+01 -1.44288748E+01 -1.03201473E+01 -8.13711395E+00 -6.08390847E+00
 -6.08338353E+00 -6.07917586E+00 -1.02701800E+00 -8.62813955E-01 -7.00386972E-01
 -5.82618852E-01 -5.57492997E-01 -4.73575546E-01 -4.39072429E-01 -3.79228894E-01
 -3.14617818E-01 -1.94545607E-03  1.05783027E-01  1.25270540E-01  1.45650673E-01
  1.69807737E-01  2.15896131E-01  2.38624581E-01  2.88861888E-01  2.91366688E-01
  3.32819831E-01  3.70647353E-01  3.71793993E-01  4.07911388E-01  4.28851719E-01
  4.40434649E-01  4.74972670E-01  5.04347029E-01  5.09576303E-01  5.15378293E-01
  5.26380049E-01  5.64275011E-01  6.18064791E-01  6.40569623E-01  7.23864167E-01
  7.41517368E-01  8.25846144E-01  8.86819081E-01  9.75477776E-01  1.02090363E+00
  1.07049407E+00  1.08493793E+00  1.10546259E+00  1.28306688E+00  1.36272531E+00
  1.39217467E+00  1.42966427E+00  1.49742153E+00  1.52812512E+00  1.53121228E+00
  1.55350662E+00  1.60128088E+00  1.64189041E+00  1.65886532E+00  1.66964309E+00
  1.71596310E+00  1.74175100E+00  1.77373254E+00  1.83091022E+00  1.84087801E+00
  1.85567634E+00  1.89713037E+00  1.99952299E+00  2.03561906E+00  2.05081836E+00
  2.10240065E+00  2.11051826E+00  2.14310727E+00  2.21297238E+00  2.24080058E+00
  2.26666657E+00  2.42748167E+00  2.46437939E+00  2.49960680E+00  2.52929188E+00
  2.61055714E+00  2.62896993E+00  2.73624592E+00  2.76849146E+00  2.89472783E+00
  3.02897107E+00  3.14929210E+00  3.17288757E+00  3.21579189E+00  3.25703476E+00
  3.27343036E+00  3.37307598E+00  3.50029410E+00  3.52038802E+00  3.56759769E+00
  3.70424252E+00  3.76698676E+00  4.05977372E+00  4.11093961E+00  4.15499190E+00
  4.32739876E+00  4.37588634E+00  4.42944406E+00  4.55508390E+00  4.67615851E+00
  4.67871827E+00  4.85429869E+00  4.96501326E+00  5.09924945E+00  5.19399491E+00
  5.59188025E+00  8.88372276E+00  9.15788190E+00  9.53672336E+00  2.07325448E+01
  2.20201292E+01  3.17105359E+01
Alpha MO coefficients                      R   N=       13689
  2.66891930E-06 -1.76887920E-05  1.09114828E-03 -3.98511821E-03  6.66956973E-05
  2.74529429E-04  1.35328065E-06 -5.69327225E-06 -3.23284638E-03  1.08906541E-04
  1.49668305E-04 -2.27572112E-04  2.28619382E-04  1.56783621E-04  6.36589646E-05
  6.42105382E-06 -1.05474868E-05 -1.01528363E-04  1.76299567E-06  7.53915420E-04
  1.53487261E-04  1.10843220E-04 -1.40852614E-03  1.36010728E-04 -1.66675685E-05
  2.92230801E-04 -3.30555993E-06  3.09855351E-05 -7.23720071E-06 -3.73534431E-04
  9.30172595E-06  9.99250578E-01 -3.16585185E-02 -1.12345586E-02  4.54061950E-03
  3.30579635E-03 -3.03253527E-05  8.92668384E-05  5.98070080E-05 -4.04282319E-05
 -8.22540290E-05 -5.34675055E-05  3.35897618E-04 -1.73260672E-04 -1.22719952E-04
 -2.05845094E-03  1.71809966E-03  1.18641826E-03 -8.64840262E-05  1.01886010E-04
  6.94845009E-05 -2.00999150E-04  9.33540777E-05  2.10527320E-04  1.61142133E-04
  1.64506501E-04 -8.80669254E-04  4.52447877E-04  5.86895131E-04  9.87447271E-04
  7.88509093E-04 -2.49561523E-04  2.73595586E-04  1.36271763E-05 -9.00144769E-05
  3.66256436E-04 -6.24907029E-04  9.40418767E-05  2.17407737E-05 -7.94440688E-05
  9.72390085E-04 -2.62004229E-03 -5.97943989E-04 -1.46768679E-04 -2.14934054E-04
 -1.38718160E-04  9.70346775E-04  1.45633399E-03  9.40494064E-04  8.76970816E-05
  5.55356184E-04  3.65462268E-04 -5.22878040E-06  2.29312919E-05  3.21595119E-05
 -2.00809751E-05  3.49947555E-05  1.71402503E-04 -4.51087272E-04 -6.22598474E-04
  2.68016257E-04 -6.97187927E-04 -1.42449737E-04  9.15744468E-06  4.72315267E-06
 -5.62230946E-05  1.99088675E-04 -1.60738419E-04  6.87773266E-05 -1.09686927E-05
 -2.06463748E-04  1.17154876E-04 -4.81841783E-05  4.98576547E-06  4.45885624E-06
  1.98783061E-05 -2.02454422E-04 -1.92646557E-04 -8.65193070E-05 -3.34156789E-05
 -2.00451561E-05 -3.18355308E-05 -1.15668834E-04 -2.10491009E-04  1.76332632E-05
  1.67553801E-05  1.06620841E-05  4.73931826E-06 -2.21008011E-05  1.56929338E-04
  4.01306528E-04 -2.74440783E-03 -1.34139220E-05  4.66355236E-05  3.11918750E-05
  1.58437262E-03 -1.25049308E-04 -1.20834950E-04 -1.23966996E-03  3.57075227E-04
  2.66112054E-04 -7.45532493E-05  2.73871437E-05  7.58832652E-05  6.22022998E-05
  5.01194953E-05  3.90647945E-05 -1.90548281E-04 -8.28460856E-04  6.50811107E-04
 -2.86506293E-04  3.34840649E-05 -1.72638304E-05  2.38357188E-05 -5.49275159E-05
  3.08173398E-05  6.97756046E-06 -9.02397063E-05  7.66510463E-05 -1.70259096E-04
 -5.73264460E-04  4.33021472E-04  3.34327198E-03 -3.26971564E-05 -2.94317431E-05
 -1.86927541E-05  1.18268154E-04  5.39803736E-05  3.28825170E-05 -6.10093438E-04
 -4.12137993E-04 -2.58098349E-04  3.85411329E-03  3.64833610E-03  2.32190082E-03
 -1.46626236E-03 -3.97361248E-04 -2.27803272E-04 -1.77200526E-05  2.25108259E-04
  2.62592716E-04 -2.10049709E-04  3.39737828E-04 -2.88293138E-04  9.44450466E-04
  1.69323332E-03 -1.01386537E-03  1.44832969E-03 -2.82596465E-04 -9.19931288E-05
  4.60075914E-05 -1.97925906E-04  2.13030835E-04 -4.65737776E-05  5.35257294E-05
  4.48626140E-01  6.27137033E-01  3.42628328E-02 -2.49628416E-02  9.76141608E-03
 -2.42344141E-03 -6.32284364E-04 -3.60038424E-04  3.70116289E-03  2.69470981E-03
  1.69427252E-03 -1.25612885E-03  5.17348062E-04  3.72784564E-04 -1.05231156E-04
  6.84738124E-05  3.48471157E-04 -1.19374006E-04  1.14097577E-04  3.61852008E-04
 -6.95792753E-04 -1.14250038E-03  3.99572377E-04 -1.08648429E-03 -1.47849174E-04
 -4.54041399E-06  1.02081643E-05 -7.03474182E-05  1.75514719E-04 -1.26565101E-04
  5.96688830E-05  8.92111965E-05  1.05407872E-03  1.03116381E-04  1.00837010E-04
  1.03218176E-04  6.58998923E-05  6.36204592E-05  8.15508121E-04 -7.06141788E-05
  2.61319668E-04 -7.80540240E-05 -5.79522460E-05  1.55455332E-04  7.99190500E-04
 -2.83302728E-03 -1.27038637E-04  1.62304743E-04  1.10491589E-04  4.67195223E-01
  6.08857130E-01  3.37823927E-02 -1.67090445E-02  8.90477011E-03  7.63567310E-04
 -2.85465221E-06 -2.00872045E-05 -4.09275514E-03 -2.93844135E-04 -9.62049264E-05
 -9.22290998E-04 -1.46050065E-04 -7.44510549E-05 -5.78588556E-04 -6.00510908E-05
  8.39527366E-04  2.91640585E-04 -2.35347758E-05  2.52921334E-04 -6.59680119E-06
  1.46661748E-03 -1.68128459E-03 -5.15785714E-05  8.03100510E-06 -7.16538808E-05
  5.39289861E-06  5.70073475E-05 -1.02885743E-03  8.03450299E-04  6.01605843E-05
 -1.78965584E-05  1.69511887E-05  2.78992188E-05  6.36321836E-04  3.36935463E-03
  4.46282684E-05 -1.40757450E-05 -1.03871048E-05 -1.08132881E-04  5.37304248E-05
  3.81541798E-05 -1.06680628E-04 -1.57910668E-04 -1.01944496E-04 -1.47950384E-03
  4.12704266E-04  3.08644265E-04 -3.56412790E-04  1.21289427E-03  8.11224244E-04
  1.01398173E-04  2.83922895E-05 -1.23179855E-04 -7.28176764E-05  3.09157737E-05
 -1.08023125E-04 -1.42801884E-04  4.50241658E-04 -1.84423843E-04 -2.04759281E-04
  3.86986317E-05 -5.48064588E-04  7.02498438E-05 -2.08000546E-04 -6.19130681E-05
  7.61609598E-04 -1.93482754E-04  2.48038922E-06 -1.09984816E-05  9.81546871E-05
  1.85666639E-04 -2.90679483E-03 -9.72400426E-05 -5.46385396E-06 -1.27629191E-06
  4.74878555E-04 -2.73996042E-04 -1.92776270E-04  1.25063812E-03  4.09602935E-04
  2.41009378E-04 -4.23453955E-05  1.97186201E-05  2.46355873E-05  5.06937142E-05
  3.48797031E-05  2.30985297E-04  2.41290024E-05 -5.70666750E-05 -3.52572004E-04
  7.69360076E-06 -1.41435893E-06 -4.21174980E-05 -1.69915301E-05  3.81785296E-05
 -8.37013127E-06  5.77479498E-05  5.01365597E-05 -7.42341423E-04 -2.38463248E-03
 -1.78531767E-03 -1.04888675E-03 -1.55097034E-03 -1.00129196E-03 -7.16613829E-04
 -2.17962662E-03 -1.81079599E-03 -1.16557799E-03  1.42955932E-03  9.74195857E-04
 -8.01374195E-06  8.26988343E-04 -5.26783126E-05  5.21066879E-05 -1.47719730E-04
 -9.90444912E-05 -8.53731431E-05 -1.66730161E-04  3.28880928E-03 -1.24247352E-02
  2.86340550E-03  7.73327992E-04 -6.96117557E-06 -2.31642135E-05 -1.00874842E-02
  4.38389142E-04  5.32227833E-04  2.54527776E-04  6.85836382E-04  4.47855421E-04
  1.93357670E-04  1.31553052E-05 -3.52479306E-05 -3.05155497E-04 -4.19132822E-06
  2.25264071E-03  4.94103967E-04  4.15315974E-04 -4.28276121E-03  4.59362626E-04
 -5.30232523E-05  6.99268526E-04 -1.41411009E-05  9.04774293E-05 -7.12793490E-05
 -8.58536995E-04  5.24976740E-05 -2.87705296E-01 -2.40323251E-01  8.06044642E-01
  3.16704567E-02  3.20090051E-03 -1.82587782E-03  3.63842530E-03  2.45198343E-03
 -1.34314489E-03  2.26258060E-03  1.52987326E-03  1.07028921E-03 -3.44588631E-04
 -2.53747626E-04 -7.08075655E-03  4.99097761E-03  3.47296580E-03  5.76725989E-04
 -4.34384106E-04 -3.01396547E-04 -6.01580116E-04  4.28797316E-04  4.71389441E-04
  6.05275177E-04  7.18605596E-04 -2.76670562E-03  1.26122390E-03  1.69270932E-03
  3.24303293E-03  2.23677880E-03 -7.97354061E-04  9.57705589E-04  4.67727854E-05
 -2.87743548E-04  1.16554430E-03 -2.10067814E-03  2.88533110E-04 -4.60193512E-05
 -2.43830760E-04  2.67650125E-03 -7.61117115E-03  7.74342138E-05 -3.93121918E-04
 -5.75147323E-04 -3.71188366E-04  2.68387218E-03  4.06600988E-03  2.62641208E-03
 -3.70828167E-04  1.30685038E-03  8.73915555E-04 -9.24908526E-06  4.51483615E-05
  6.27370121E-05 -4.08582304E-05  6.87668507E-05  4.52528471E-04 -1.17835578E-03
 -1.63520135E-03  6.99387513E-04 -1.82176976E-03 -2.51406865E-04  1.60807132E-05
  1.15896023E-05 -1.06702146E-04  3.44220560E-04 -2.78245585E-04  1.12940775E-04
 -1.01183331E-04 -7.06206689E-04 -1.33958535E-05 -1.07933671E-04 -1.03510051E-05
 -4.25279255E-06 -1.86955085E-05 -7.82922717E-04 -7.89718825E-04 -2.67696997E-04
 -5.55598182E-05 -3.03640631E-05 -7.52723548E-05 -5.22641148E-04 -8.08163047E-04
 -1.68765203E-05  2.19917656E-05  1.49566444E-05  1.44393696E-04  2.20372975E-04
  1.10119810E-03 -1.11018075E-02 -2.93242043E-03 -2.13283546E-04 -2.34234384E-05
 -1.03808092E-05 -8.63625545E-03  4.33090199E-04  4.93975779E-04 -1.45177115E-03
 -4.49100702E-04 -2.62473804E-04  6.80998304E-05 -2.86992784E-05 -2.20619450E-05
 -9.66511015E-05 -5.16477247E-05  1.18801689E-03  3.16555394E-04  2.87540279E-04
 -2.32130280E-03  3.26075542E-04  8.65902526E-06 -2.24532128E-04  3.38811943E-05
 -9.84092992E-05 -3.72117949E-05  3.20228789E-04 -8.75056323E-05  3.42980840E-04
  2.50331934E-04 -1.12180388E-03  1.16805388E-04  5.69070592E-03  6.09392491E-01
  3.16810040E-01  1.95130712E-01  2.91443454E-01  1.51633209E-01  9.34000476E-02
  6.56034865E-02  3.36166168E-02  2.06820841E-02 -2.00394388E-02 -8.08510652E-03
 -4.87111263E-03 -1.60171086E-03  2.64865637E-04  2.14167878E-04  3.80334093E-04
  6.84285658E-04  9.01164582E-04 -1.47573233E-03  9.77524272E-04 -2.24442382E-03
 -1.78203780E-03 -2.25670579E-03  5.93318437E-03 -2.38911028E-03  2.50378085E-04
  6.08852105E-04 -1.03854812E-04  3.96650678E-04 -4.62772263E-04 -4.57718584E-04
  1.25778969E-04 -1.37067677E-04 -2.31383807E-04 -3.08905710E-04  5.26049184E-03
  3.11539857E-03 -1.11264854E-04 -2.99491890E-04 -1.95551663E-04 -2.11330504E-03
 -2.13797093E-03 -1.36394568E-03 -1.41996537E-03 -7.96110429E-04 -4.92688985E-04
 -8.77203729E-06  1.33108251E-05  5.82491232E-05 -3.53619889E-05  2.07323733E-05
 -1.05923422E-04  1.46924634E-04  1.78815836E-04  1.95895966E-05  2.33803006E-04
 -3.04828122E-04  1.23291816E-05  2.58956336E-05 -1.53069296E-04  3.35254527E-04
 -2.69954666E-04  1.10734152E-04 -1.76579646E-04 -5.81585963E-05  3.32830168E-05
  2.92572429E-04 -1.29788179E-04 -9.29224111E-05 -1.94433521E-04 -1.12856699E-04
  5.35320906E-04 -9.37317084E-05  7.93717813E-05  5.47960616E-05  4.41588876E-05
 -1.11825521E-03 -1.44249648E-04  8.87848415E-05  2.22741947E-04  1.45237863E-04
 -1.75824438E-08 -2.92670687E-08 -1.51070503E-07  1.48527699E-06  4.39930633E-07
 -1.59798006E-06  4.48867865E-05 -6.78214987E-05  2.13636298E-05 -5.58716182E-04
  8.44184654E-04 -1.30462662E-05  3.67913737E-04 -5.55862028E-04 -2.08023120E-05
  4.35307500E-06 -1.00188960E-05 -1.17623726E-05 -3.50144928E-06  4.59176747E-05