0004_q000_m01_k00_opt_uwb97xd_def2svpd/0004_q000_m01_k00_force_uhf_def2s
Force     UHF                                                         Gen                 
Number of atoms                            I                6
Info1-9                                    I   N=           9
          13           9           0           0           0         100
           5           1           2
Full Title                                 C   N=           8
0004_q000_m01_k00_opt_uwb97xd_def2svpd/0004_q000_m01_k00_for
ce_uhf_def2svpd stable-force        
Route                                      C   N=          15
#p uhf/chkbasis force guess=read geom=check scf=(maxcycle=90
0,verytightlineq,xqc) integral=grid=ultrafine symmetry=None 
density=current pop=(cm5,hlygat,mbs,npa) output=wfx         
Charge                                     I                0
Multiplicity                               I                1
Number of electrons                        I               32
Number of alpha electrons                  I               16
Number of beta electrons                   I               16
Number of basis functions                  I               91
Number of independent functions            I               91
Number of point charges in /Mol/           I                0
Number of translation vectors              I                0
Atomic numbers                             I   N=           6
           6          16           7           1           1           1
Nuclear charges                            R   N=           6
  6.00000000E+00  1.60000000E+01  7.00000000E+00  1.00000000E+00  1.00000000E+00
  1.00000000E+00
Current cartesian coordinates              R   N=          18
  1.67863146E+00  2.68784369E-01  2.05840898E-01  4.73702225E+00  1.96852105E-01
  8.48289160E-02  6.24221873E+00  2.32416928E+00  1.45652951E+00  7.09165380E-01
 -1.25729983E+00 -7.80890272E-01  6.12793001E-01  1.72884379E+00  1.19782199E+00
  5.12841835E+00  3.62849725E+00  2.34675860E+00
Number of symbols in /Mol/                 I                0
Int Atom Types                             I   N=           6
           0           0           0           0           0           0
Force Field                                I                0
Atom Types                                 C   N=           6
                                                            
            
MM charges                                 R   N=           6
  0.00000000E+00  0.00000000E+00  0.00000000E+00  0.00000000E+00  0.00000000E+00
  0.00000000E+00
Integer atomic weights                     I   N=           6
          12          32          14           1           1           1
Real atomic weights                        R   N=           6
  1.20000000E+01  3.19720718E+01  1.40030740E+01  1.00782504E+00  1.00782504E+00
  1.00782504E+00
Atom fragment info                         I   N=           6
           0           0           0           0           0           0
Atom residue num                           I   N=           6
           0           0           0           0           0           0
Nuclear spins                              I   N=           6
           0           0           2           1           1           1
Nuclear ZEff                               R   N=           6
 -3.60000000E+00 -1.36000000E+01 -4.55000000E+00 -1.00000000E+00 -1.00000000E+00
 -1.00000000E+00
Nuclear ZNuc                               R   N=           6
  6.00000000E+00  1.60000000E+01  7.00000000E+00  1.00000000E+00  1.00000000E+00
  1.00000000E+00
Nuclear QMom                               R   N=           6
  0.00000000E+00  0.00000000E+00  2.04400000E+00  0.00000000E+00  0.00000000E+00
  0.00000000E+00
Nuclear GFac                               R   N=           6
  0.00000000E+00  0.00000000E+00  4.03761000E-01  2.79284600E+00  2.79284600E+00
  2.79284600E+00
MicOpt                                     I   N=           6
          -1          -1          -1          -1          -1          -1
Number of residues                         I                0
Number of secondary structures             I                0
Number of contracted shells                I               39
Number of primitive shells                 I               67
Pure/Cartesian d shells                    I                0
Pure/Cartesian f shells                    I                0
Highest angular momentum                   I                2
Largest degree of contraction              I                5
Shell types                                I   N=          39
           0           0           0           0           1           1
          -2          -2           0           0           0           0
           0           1           1           1           1          -2
          -2           0           0           0           0           1
           1          -2          -2           0           0           1
           1           0           0           1           1           0
           0           1           1
Number of primitives per shell             I   N=          39
           5           1           1           1           3           1
           1           1           5           3           1           1
           1           5           1           1           1           1
           1           5           1           1           1           3
           1           1           1           3           1           1
           1           3           1           1           1           3
           1           1           1
Shell to atom map                          I   N=          39
           1           1           1           1           1           1
           1           1           2           2           2           2
           2           2           2           2           2           2
           2           3           3           3           3           3
           3           3           3           4           4           4
           4           5           5           5           5           6
           6           6           6
Primitive exponents                        R   N=          67
  1.23840169E+03  1.86290050E+02  4.22511763E+01  1.16765579E+01  3.59305065E+00
  4.02451474E-01  1.30901827E-01  6.70535403E-02  9.46809706E+00  2.01035451E+00
  5.47710047E-01  1.52686138E-01  8.00000000E-01  1.17131851E-01  9.18493030E+03
  1.38151055E+03  3.13871476E+02  8.80538706E+01  2.70399149E+01  4.56487313E+01
  4.96645223E+00  2.01162420E+00  3.56610770E-01  1.35072215E-01  4.49998235E-02
  2.61982334E+02  6.13068947E+01  1.91037299E+01  6.65677204E+00  2.39596352E+00
  6.17761617E-01  1.69933769E-01  4.17067937E-02  5.50000000E-01  1.01728537E-01
  1.71284159E+03  2.57648127E+02  5.84582459E+01  1.61983679E+01  5.00526008E+00
  5.87318566E-01  1.87645923E-01  9.61712415E-02  1.35714702E+01  2.92573729E+00
  7.99277508E-01  2.19543480E-01  1.00000000E+00  1.66977081E-01  1.30107010E+01
  1.96225720E+00  4.44537960E-01  1.21949620E-01  8.00000000E-01  1.17040991E-01
  1.30107010E+01  1.96225720E+00  4.44537960E-01  1.21949620E-01  8.00000000E-01
  1.17040991E-01  1.30107010E+01  1.96225720E+00  4.44537960E-01  1.21949620E-01
  8.00000000E-01  1.17040991E-01
Contraction coefficients                   R   N=          67
  5.51736505E-03  4.10888286E-02  1.82253821E-01  4.68284594E-01  4.45758173E-01
  1.00000000E+00  1.00000000E+00  1.00000000E+00  5.68883320E-02  3.12940593E-01
  7.60650165E-01  1.00000000E+00  1.00000000E+00  1.00000000E+00 -5.47294661E-03
 -4.09544022E-02 -1.84758290E-01 -4.75672806E-01 -4.34951536E-01 -9.19040458E-02
  5.56987772E-01  5.11154683E-01  1.00000000E+00  1.00000000E+00  1.00000000E+00
 -9.18305466E-03 -6.59022265E-02 -2.45877845E-01 -4.82314711E-01 -3.89563144E-01
  1.00000000E+00  1.00000000E+00  1.00000000E+00  1.00000000E+00  1.00000000E+00
 -5.44779958E-03 -4.06271746E-02 -1.81119623E-01 -4.68439756E-01 -4.46168463E-01
  1.00000000E+00  1.00000000E+00  1.00000000E+00 -5.88481170E-02 -3.20246248E-01
 -7.53282265E-01  1.00000000E+00  1.00000000E+00  1.00000000E+00  3.34854848E-02
  2.34721871E-01  8.13770285E-01  1.00000000E+00  1.00000000E+00  1.00000000E+00
  3.34854848E-02  2.34721871E-01  8.13770285E-01  1.00000000E+00  1.00000000E+00
  1.00000000E+00  3.34854848E-02  2.34721871E-01  8.13770285E-01  1.00000000E+00
  1.00000000E+00  1.00000000E+00
Coordinates of each shell                  R   N=         117
  1.67863146E+00  2.68784369E-01  2.05840898E-01  1.67863146E+00  2.68784369E-01
  2.05840898E-01  1.67863146E+00  2.68784369E-01  2.05840898E-01  1.67863146E+00
  2.68784369E-01  2.05840898E-01  1.67863146E+00  2.68784369E-01  2.05840898E-01
  1.67863146E+00  2.68784369E-01  2.05840898E-01  1.67863146E+00  2.68784369E-01
  2.05840898E-01  1.67863146E+00  2.68784369E-01  2.05840898E-01  4.73702225E+00
  1.96852105E-01  8.48289160E-02  4.73702225E+00  1.96852105E-01  8.48289160E-02
  4.73702225E+00  1.96852105E-01  8.48289160E-02  4.73702225E+00  1.96852105E-01
  8.48289160E-02  4.73702225E+00  1.96852105E-01  8.48289160E-02  4.73702225E+00
  1.96852105E-01  8.48289160E-02  4.73702225E+00  1.96852105E-01  8.48289160E-02
  4.73702225E+00  1.96852105E-01  8.48289160E-02  4.73702225E+00  1.96852105E-01
  8.48289160E-02  4.73702225E+00  1.96852105E-01  8.48289160E-02  4.73702225E+00
  1.96852105E-01  8.48289160E-02  6.24221873E+00  2.32416928E+00  1.45652951E+00
  6.24221873E+00  2.32416928E+00  1.45652951E+00  6.24221873E+00  2.32416928E+00
  1.45652951E+00  6.24221873E+00  2.32416928E+00  1.45652951E+00  6.24221873E+00
  2.32416928E+00  1.45652951E+00  6.24221873E+00  2.32416928E+00  1.45652951E+00
  6.24221873E+00  2.32416928E+00  1.45652951E+00  6.24221873E+00  2.32416928E+00
  1.45652951E+00  7.09165380E-01 -1.25729983E+00 -7.80890272E-01  7.09165380E-01
 -1.25729983E+00 -7.80890272E-01  7.09165380E-01 -1.25729983E+00 -7.80890272E-01
  7.09165380E-01 -1.25729983E+00 -7.80890272E-01  6.12793001E-01  1.72884379E+00
  1.19782199E+00  6.12793001E-01  1.72884379E+00  1.19782199E+00  6.12793001E-01
  1.72884379E+00  1.19782199E+00  6.12793001E-01  1.72884379E+00  1.19782199E+00
  5.12841835E+00  3.62849725E+00  2.34675860E+00  5.12841835E+00  3.62849725E+00
  2.34675860E+00  5.12841835E+00  3.62849725E+00  2.34675860E+00  5.12841835E+00
  3.62849725E+00  2.34675860E+00
Num ILSW                                   I              100
ILSW                                       I   N=         100
           1           0           0           0           2           0
           0           0           0           0           0          -1
           5           0           0           0           2           0
           0           0           0           0           1           0
           1           1           0           0           0           0
           0           0      100000           0          -1           0
           0           0           0           0           0           0
           0           0           0           1           0           0
           0 -2000000000           1           0           0           0
           0           0           4          52           0           0
           0           0           0           0           0           0
           0           0           0           6           0           1
           0           0           0           0           0           0
           0           0           0           0           0           0
           0           0           0           0           0           0
           0           0           0           0           0           0
           0           0           0           0
Num RLSW                                   I               52
RLSW                                       R   N=          52
  1.00000000E+00  1.00000000E+00  1.00000000E+00  1.00000000E+00  1.00000000E+00
  0.00000000E+00  0.00000000E+00  1.00000000E+00  0.00000000E+00  0.00000000E+00
  0.00000000E+00  0.00000000E+00  1.00000000E+00  0.00000000E+00  0.00000000E+00
  0.00000000E+00  0.00000000E+00  1.00000000E+00  0.00000000E+00  0.00000000E+00
  0.00000000E+00  0.00000000E+00  1.00000000E+00  0.00000000E+00  0.00000000E+00
  0.00000000E+00  0.00000000E+00  1.00000000E+00  0.00000000E+00  0.00000000E+00
  0.00000000E+00  0.00000000E+00  1.00000000E+00  0.00000000E+00  0.00000000E+00
  0.00000000E+00  0.00000000E+00  0.00000000E+00  1.00000000E+00  1.00000000E+00
  0.00000000E+00  1.00000000E+00  0.00000000E+00  0.00000000E+00  0.00000000E+00
  0.00000000E+00  0.00000000E+00  0.00000000E+00  0.00000000E+00  0.00000000E+00
  0.00000000E+00  0.00000000E+00
MxBond                                     I                3
NBond                                      I   N=           6
           3           2           2           1           1           1
IBond                                      I   N=          18
           2           4           5           1           3           0
           2           6           0           1           0           0
           1           0           0           3           0           0
RBond                                      R   N=          18
  2.00000000E+00  1.00000000E+00  1.00000000E+00  2.00000000E+00  2.00000000E+00
  0.00000000E+00  2.00000000E+00  1.00000000E+00  0.00000000E+00  1.00000000E+00
  0.00000000E+00  0.00000000E+00  1.00000000E+00  0.00000000E+00  0.00000000E+00
  1.00000000E+00  0.00000000E+00  0.00000000E+00
Virial Ratio                               R      2.000919766553726E+00
SCF Energy                                 R     -4.913075052603334E+02
Total Energy                               R     -4.913075052603334E+02
S**2                                       R      6.428405757914426E-01
S**2 after annihilation                    R      1.045865971612989E-01
RMS Force                                  R      1.659542276050348E-02
RMS Density                                R      1.882379512729471E-09
Job Status                                 I                1
Nuclear derivative order                   I                1
External E-field                           R   N=          35
  0.00000000E+00  0.00000000E+00  0.00000000E+00  0.00000000E+00  0.00000000E+00
  0.00000000E+00  0.00000000E+00  0.00000000E+00  0.00000000E+00  0.00000000E+00
  0.00000000E+00  0.00000000E+00  0.00000000E+00  0.00000000E+00  0.00000000E+00
  0.00000000E+00  0.00000000E+00  0.00000000E+00  0.00000000E+00  0.00000000E+00
  0.00000000E+00  0.00000000E+00  0.00000000E+00  0.00000000E+00  0.00000000E+00
  0.00000000E+00  0.00000000E+00  0.00000000E+00  0.00000000E+00  0.00000000E+00
  0.00000000E+00  0.00000000E+00  0.00000000E+00  0.00000000E+00  0.00000000E+00
IOpCl                                      I                1
IROHF                                      I                0
Alpha Orbital Energies                     R   N=          91
 -9.20055010E+01 -1.55641152E+01 -1.12787296E+01 -9.03326285E+00 -6.72230296E+00
 -6.71939150E+00 -6.71646575E+00 -1.20418288E+00 -1.02150466E+00 -8.09605816E-01
 -6.68055573E-01 -6.43056400E-01 -5.16375703E-01 -4.89073147E-01 -4.38803616E-01
 -3.45166843E-01  8.84470662E-02  8.87095118E-02  9.62315914E-02  1.08032117E-01
  1.24317604E-01  1.50050750E-01  1.81954892E-01  1.97303999E-01  2.45634913E-01
  2.67985041E-01  2.70026463E-01  2.93262123E-01  2.98657804E-01  3.17345800E-01
  3.25600071E-01  3.45596816E-01  3.54435723E-01  3.63609081E-01  4.07772460E-01
  4.26654194E-01  4.29350640E-01  4.45473316E-01  4.47764400E-01  4.77256882E-01
  4.92740826E-01  4.94109156E-01  5.17446557E-01  5.26900798E-01  5.64367287E-01
  5.88529423E-01  6.10194696E-01  6.33721951E-01  6.63589606E-01  6.79981656E-01
  7.29249677E-01  8.19203508E-01  9.25853383E-01  9.62151083E-01  1.02031654E+00
  1.02539639E+00  1.09598431E+00  1.11536801E+00  1.12396907E+00  1.14223189E+00
  1.19900127E+00  1.21960686E+00  1.27303677E+00  1.28740131E+00  1.34959391E+00
  1.40055057E+00  1.42517819E+00  1.44045199E+00  1.51333490E+00  1.58227137E+00
  1.67135403E+00  1.68658556E+00  1.75874500E+00  1.83611611E+00  1.96123954E+00
  1.99068462E+00  2.06430259E+00  2.17944761E+00  2.35223788E+00  2.36037812E+00
  2.37909275E+00  2.47842894E+00  2.54425169E+00  2.75267532E+00  2.78320974E+00
  2.95232811E+00  2.95990448E+00  3.20674654E+00  3.31472803E+00  3.32397800E+00
  3.74483078E+00
Beta Orbital Energies                      R   N=          91
 -9.20070964E+01 -1.55878207E+01 -1.12582523E+01 -9.03494803E+00 -6.72327850E+00
 -6.72314146E+00 -6.72025728E+00 -1.23771537E+00 -1.01555798E+00 -8.03287155E-01
 -6.69440637E-01 -6.34952870E-01 -5.64731826E-01 -5.05660729E-01 -4.54401966E-01
 -3.71190005E-01  8.93353497E-02  9.11511084E-02  9.61110068E-02  1.08642183E-01
  1.27231346E-01  1.51558723E-01  1.80642225E-01  1.93662670E-01  2.51412962E-01
  2.56274946E-01  2.69900207E-01  2.93436770E-01  3.19899430E-01  3.28733136E-01
  3.34460857E-01  3.46610245E-01  3.52683160E-01  3.69836956E-01  4.04327105E-01
  4.06332039E-01  4.27377878E-01  4.48467787E-01  4.51325663E-01  4.81529263E-01
  4.90775345E-01  4.95355876E-01  5.30090550E-01  5.33990613E-01  5.62538795E-01
  5.90579982E-01  5.99119639E-01  6.31717647E-01  6.63872608E-01  6.80349567E-01
  7.20488956E-01  8.23318300E-01  9.62430975E-01  9.76212337E-01  1.02246665E+00
  1.03207005E+00  1.09452393E+00  1.09997907E+00  1.12068009E+00  1.14407901E+00
  1.20476521E+00  1.21458681E+00  1.27683552E+00  1.28812508E+00  1.34882216E+00
  1.36232415E+00  1.39301041E+00  1.43827755E+00  1.51311322E+00  1.57907704E+00
  1.67949487E+00  1.69851949E+00  1.74586328E+00  1.85639057E+00  1.96147859E+00
  1.98044589E+00  2.08248641E+00  2.17664923E+00  2.37144762E+00  2.39312114E+00
  2.40364321E+00  2.45606756E+00  2.57939534E+00  2.69395424E+00  2.79527368E+00
  2.90843839E+00  2.92630073E+00  3.18516146E+00  3.31850452E+00  3.32844590E+00
  3.73220203E+00
Alpha MO coefficients                      R   N=        8281
  9.94302007E-05 -7.73688578E-04  1.03631256E-02  1.26700748E-02 -2.17928379E-04
 -3.26497070E-05 -1.63973225E-05  4.19866752E-04  1.57697118E-03  1.03384378E-03
  2.64085854E-04  3.38342386E-05  8.74331653E-05 -5.33072891E-04  1.72880453E-05
 -7.97588644E-04 -2.53363189E-03  2.22056435E-03 -3.07918426E-04 -3.73393382E-03
  9.94237363E-01 -2.20298289E-02  1.38971375E-02 -1.39253672E-02 -7.36463212E-03
 -6.88636971E-05  1.27165901E-04  8.58064202E-05 -1.88399227E-04  3.30690357E-04
  2.23339180E-04  3.05541943E-03  2.88816985E-03  1.83814597E-03  1.31070423E-03
 -4.86144689E-04 -3.53098114E-04 -1.33576471E-04  2.30197194E-04  3.47536494E-04
 -8.24525038E-05  3.61369571E-04  2.06936123E-03 -2.39587871E-03 -9.74710862E-04
 -2.55858911E-03 -3.86459142E-03 -2.88885640E-05  3.93853146E-04 -3.21278568E-04
  1.13976518E-02 -6.34496896E-05  3.50045346E-05  2.47263043E-05  5.71127995E-04
  2.48392739E-03  1.63041076E-03  1.13217889E-04 -2.48936953E-04 -3.75859127E-04
  1.43134588E-04 -3.86879560E-04  1.45107684E-04 -1.53011948E-03 -1.84176355E-04
  2.64900438E-05 -2.32317133E-03 -3.23607684E-04  2.54127846E-03 -1.44879346E-04
  3.98211413E-05  2.98173292E-05  2.33727427E-04  1.22405910E-03  8.04571670E-04
 -3.92645953E-04 -1.43364776E-02 -1.91141786E-04  2.56296949E-05  2.15542592E-05
  8.81182653E-09  2.03414122E-03  1.34667126E-03 -6.93570009E-04 -7.50414385E-03
 -1.58387484E-04 -9.43552439E-05 -5.86196535E-05 -2.34878331E-04  1.54511171E-03
  1.02855856E-03 -2.20564939E-05 -1.56727844E-04  2.03299265E-03  9.38633056E-04
  1.16397117E-04  3.43804794E-05  1.99374144E-05  3.62830291E-03  1.66863577E-03
  1.01733115E-03 -8.97482853E-05  8.11235132E-05 -3.90826581E-05  1.81850385E-04
  1.33821695E-04 -1.04276345E-03  6.92486311E-04 -9.58953207E-04  2.56076133E-03
  1.18110449E-03 -2.09721999E-05 -1.41943230E-04  7.08586379E-04 -2.02656090E-02
  4.82006057E-04  6.75625283E-05  9.21451775E-05  5.93503689E-05 -7.69002380E-05
  8.28905425E-05  5.66581293E-05 -1.96584835E-03 -7.22089416E-03 -4.73129955E-03
  1.10506136E-03  1.07219119E-03  6.83106537E-04  9.89519439E-05  1.59057208E-04
  5.81340128E-05 -2.32779654E-04  2.26959445E-04  1.35870614E-03 -1.50747186E-03
 -1.57132454E-03 -8.94109741E-04 -2.43226324E-03  9.90748372E-01 -3.73285101E-02
  4.02312657E-02 -2.45684764E-03 -2.75707324E-03 -8.59625639E-05  9.65082814E-06
 -5.12696582E-03 -4.23039802E-03 -2.67627260E-03  4.50154975E-04  4.31951131E-04
 -9.96633004E-04  3.40076891E-05  6.01056333E-04 -2.79147083E-04  8.68302986E-04
  2.12942292E-03 -1.39368708E-03  1.32929418E-03  1.43593137E-04  4.15760253E-03
  3.03726579E-05  7.11883505E-05  4.63714656E-05  3.03971735E-03 -7.58149058E-04
 -5.74712515E-04  5.87869273E-05  1.39119264E-03 -2.95503436E-05  3.65891743E-06
  3.13444424E-06  3.96678778E-04 -2.96886593E-05 -2.92618849E-05  1.24637800E-03
 -1.10517645E-02  1.23407316E-03 -1.35894334E-03 -9.29282267E-04 -3.47878033E-03
  3.18509063E-03  2.19220992E-03  9.89929731E-01  4.48179522E-02 -9.32254701E-02
 -1.34645471E-02 -2.42531438E-04 -4.54980931E-05 -2.41612289E-05  8.85467851E-03
  5.10245031E-04  1.24537972E-04 -2.50134057E-04 -6.99123372E-05  4.48817652E-04
  5.66437305E-05 -7.70202635E-05  2.39530450E-03  1.07021606E-04 -7.15934544E-03
  1.93071636E-03 -9.06217678E-05  6.37275659E-05  4.48666966E-04 -1.78530590E-03
  1.23870891E-02  1.57562124E-03  1.82539633E-04 -4.66546599E-07 -4.68322074E-06
  8.08500355E-04 -8.09923276E-05 -7.29745132E-05 -2.32263155E-03  9.25790453E-04
  6.68393354E-04  2.66877826E-04  3.14091165E-04  2.01356578E-04  5.63327674E-04
  1.55776603E-04  1.00962204E-04 -1.07110701E-03  1.63476295E-04 -5.22053273E-05
  6.97694964E-04  6.38195196E-04 -5.06673393E-04  1.05390980E-03 -2.68917137E-05
  8.65978092E-06 -3.39004194E-03 -3.90100992E-03 -1.94492322E-04 -7.02092973E-05
 -4.18132583E-05  4.70569786E-04  1.07764912E-04  5.98428935E-05  4.34244271E-05
 -5.04684955E-05 -2.66609997E-05 -4.84194134E-05 -8.13463352E-05 -4.64498091E-04
 -1.05204600E-04  1.44433181E-04  6.87957826E-04 -1.01285438E-04 -1.07893864E-03
  4.30594430E-02 -5.41481614E-04 -6.21602002E-04 -3.98379424E-04  7.31458107E-03
  7.30930305E-03  4.66169965E-03 -1.14533783E-03  4.31910324E-02 -5.09386812E-04
  6.37835508E-04  4.34410475E-04  8.11901003E-03 -6.85548744E-03 -4.73276064E-03
 -4.04329334E-04  4.60471379E-03  1.67212358E-04 -6.52945506E-05 -4.72039329E-05
  5.39148581E-04 -1.50580133E-03 -1.00965671E-03 -2.21984636E-04 -5.49732790E-04
  7.52831503E-03  1.06913459E-02 -1.72888050E-05 -2.07093058E-05 -1.33105130E-05
  8.44289329E-05  2.24505637E-03  1.48403703E-03  1.16126753E-04  1.40040689E-05
 -1.00317366E-04 -1.16548171E-04  7.22429929E-06 -3.71126343E-04 -2.34513093E-03
  1.97421186E-03 -8.50337277E-04 -3.50164381E-03  3.07448588E-01  1.02773738E+00
  3.49899250E-02 -1.77713339E-02 -6.37227439E-03  2.71373802E-03 -5.68404031E-03
 -3.82699081E-03 -5.86367619E-04  1.36273709E-03  9.15929242E-04  1.97477451E-03
  1.90403612E-03  1.21277664E-03  1.12062190E-03 -6.30855063E-04 -4.44304627E-04
 -3.38728084E-04  3.19330006E-04  5.27573580E-04  1.12119255E-04  5.20229821E-04
  2.03564092E-03 -2.45529527E-03 -1.15045289E-03 -2.34644895E-03 -3.94870057E-03
  1.93120706E-04  2.69178778E-04  3.07227420E-04  1.14825720E-02 -8.36668586E-07
  1.24312835E-04  8.23345933E-05  5.55495846E-04  1.72897500E-03  1.13108857E-03
  5.26648950E-05 -1.21928717E-06 -1.82758538E-04  6.42608732E-05 -7.22950377E-06
  2.20267411E-04 -1.35450047E-03 -2.40060367E-04 -6.97784682E-05 -2.06759265E-03
 -3.01298493E-05  4.44861562E-03  1.00790482E-04  1.17794971E-04  7.55271939E-05
  4.89130205E-04  1.62775772E-03  1.06561263E-03 -2.71022424E-04 -1.34009873E-02
  3.44452046E-05 -3.98492858E-06 -3.46096552E-06 -3.93820317E-04  1.76772372E-03
  1.17976028E-03 -3.10838235E-04 -6.60723443E-03 -1.09100036E-04 -2.12740636E-04
 -1.38172824E-04 -4.63618362E-04  1.26257049E-03  8.47035295E-04 -1.83556874E-04
 -2.17191421E-04  1.43758468E-02  4.90900705E-03 -2.62388536E-04 -1.01012478E-04
 -6.05575841E-05  2.96052647E-03  2.52164867E-03  1.59787270E-03  3.79513616E-04
  1.14847137E-04  2.36424677E-05 -6.84715530E-04  1.25310438E-04 -3.80553054E-05
 -4.42257223E-03  1.79019591E-04  2.62068671E-04 -6.66176076E-03  9.62412143E-04
  3.57805832E-03 -1.05797374E-03 -8.36297308E-03 -1.23527139E-03  7.19166749E-01
  5.67856214E-01  3.58591670E-01 -3.38844990E-02 -2.62499819E-02 -1.65608662E-02
  1.31530550E-02  7.88045799E-03  4.90019620E-03  2.28963819E-03  1.00782266E-03
  6.12002045E-04 -2.23748085E-04 -7.14803860E-04 -1.00443398E-03  1.29549183E-03
 -1.04248246E-03  1.08520417E-03  4.70749324E-05  1.03722804E-03 -2.75926133E-03
 -7.17234709E-05 -3.54734053E-04 -1.11496716E-03 -1.04943649E-03 -4.65230872E-03
 -8.01527932E-06 -1.38727413E-04 -9.16472068E-05 -1.19852652E-03 -1.61497483E-03
 -1.04012028E-03 -1.69890557E-04  3.42789303E-04  5.64497318E-04 -2.12752422E-04
  5.34235095E-04 -9.11938108E-04  1.03156925E-03  5.89289545E-04  9.93639466E-04
  1.66522510E-03  1.07405208E-04  7.30501895E-03 -1.94483027E-05  1.70094456E-05
  1.17306273E-05 -2.25706739E-03  1.67628886E-03  1.16355543E-03 -2.65067817E-04
 -1.46378464E-02  3.66083241E-06  2.57191897E-05  1.69348915E-05  7.17871995E-04
  2.82405273E-03  1.85184534E-03 -2.88969565E-05  3.65443545E-03  3.04896862E-04
  3.45158331E-04  2.21130509E-04  2.20223955E-04 -9.58131754E-04 -6.39503665E-04
 -2.05072541E-04 -3.75481171E-04  1.49077848E-02  6.27077629E-03 -2.15984435E-04
  1.83435594E-04  1.26603600E-04  6.00615920E-03 -3.97923514E-03 -2.77791991E-03
  2.58923005E-04 -4.18827395E-05  8.06051411E-05 -5.12427342E-04 -9.61620880E-05
 -1.49178521E-03  5.35619071E-03 -9.29381570E-04  2.94474608E-03  8.26650362E-03
 -2.39376230E-03 -8.90218522E-03  4.61960405E-03 -1.35735617E-02 -1.41444243E-03
  6.71616816E-01 -5.93022278E-01 -4.08614392E-01 -3.01091395E-02  2.60181869E-02
  1.79428793E-02  1.46718268E-02 -1.07364885E-02 -7.45812045E-03  3.01340674E-03
 -2.67256318E-04 -2.49303963E-04 -1.40803155E-04 -1.90745789E-04  2.69418391E-04
  2.95450531E-05 -2.71634841E-04  7.16084796E-04  3.48719522E-03 -1.06916060E-03
 -6.04037025E-04  5.17371243E-03  9.58564792E-05  1.57350047E-04  8.36913611E-04
 -1.22842072E-02  1.23612802E-04  1.58267563E-05  7.48886362E-06 -8.17567551E-04
 -6.53186525E-04 -4.12864344E-04  7.19322775E-05 -4.82334963E-05 -2.57864467E-05
 -9.85744795E-05 -8.15987608E-05 -1.19885783E-04  4.23224396E-04 -1.14225764E-03
  1.14314880E-03  6.60754750E-04 -1.86557927E-04 -1.88658317E-02 -1.04590659E-04
 -8.36965536E-05 -5.28708925E-05  1.82221041E-03 -4.77780139E-03 -3.20577238E-03
  1.80680806E-04  1.51634560E-02 -1.13428403E-04 -8.21081202E-05 -5.16352277E-05
  8.30671285E-04 -1.83856696E-03 -1.23710352E-03  1.55963852E-04  8.13886336E-03
 -2.30550052E-06 -2.54218176E-04 -1.68193533E-04  1.80807103E-03 -1.26225668E-03
 -8.79178459E-04  4.89227348E-09 -6.97820427E-08  3.12570700E-07  1.19873066E-06
  2.94658803E-06 -8.12818770E-05  1.22810012E-04 -5.36334725E-05  1.48367239E-03
 -2.24178860E-03 -1.92894823E-05  2.35842870E-04 -8.77963362E-07  2.19944552E-07
 -1.56469510E-04  4.62327688E-04 -3.18935824E-03  1.10717742E-04  1.14036823E-04
  2.12217189E-03 -6.31640842E-08 -2.54426780E-07  3.51201292E-07 -1.37554960E-06
 -9.71091954E-07  1.97005776E-02 -5.43502683E-01  8.21166527E-01 -8.51251847E-04
  2.34876021E-02 -3.54866521E-02  2.37175413E-04 -6.54244176E-03  9.88457187E-03
 -1.20050308E-05  3.32323827E-04 -5.02406129E-04 -3.38243976E-04 -1.49436457E-05
 -1.66153408E-04 -1.95828019E-04 -2.41110176E-07  7.47473493E-04 -2.35230143E-03
  2.80676838E-04  3.17920585E-04  1.57688461E-03  1.64209098E-08 -1.74855650E-08
  7.73187293E-07  2.25389366E-06 -1.39276388E-06  3.78747201E-05 -5.71945804E-05
 -2.08383775E-05  5.67273733E-04 -8.56639836E-04 -1.73362853E-04 -1.20912648E-04
 -8.93174989E-05 -1.05760770E-04  7.46341273E-05  3.85522591E-04  6.32862731E-04
  2.11812567E-04  2.52522061E-04 -4.06880704E-04  1.32815589E-08 -1.05015706E-07
  3.30724038E-06 -9.12961594E-05  1.37933547E-04 -2.00049485E-05  5.62090112E-04
 -8.49607206E-04  2.47609649E-08 -1.54818263E-07  3.14850895E-06 -8.71457228E-05
  1.31671967E-04 -3.71818849E-05  1.03136988E-03 -1.55798535E-03 -2.13057854E-08
 -2.02717622E-06  1.61950127E-06 -4.56752491E-05  6.90422246E-05 -3.08895308E-06
  7.49211825E-05 -1.12040690E-04 -8.45312488E-02  1.71526891E-01  6.96796745E-03
 -3.27880063E-02  7.23739817E-02  3.73317004E-03  7.33479803E-04  2.56840114E-02
  2.01695480E-02  1.27322722E-02 -4.55121192E-03  3.70245225E-04 -2.76468619E-03
  1.01798233E-02  1.14751885E-03  9.05640684E-04 -1.93602289E-02 -1.24052060E-02
  1.04896702E-02 -2.92089661E-02 -5.32347677E-02 -3.32355422E-01  4.62808768E-01
  1.12585870E-01  1.90807664E-02  3.98268737E-03  5.42110559E-02  3.57814137E-02
  7.87697081E-03  8.52313854E-02  5.62173282E-02  1.26485353E-02  5.75859227E-02
  3.78081980E-02 -3.12779724E-03  3.60842369E-03  2.46353071E-03 -1.52793857E-02
  1.50377597E-02  3.12781529E-02 -1.34173325E-03  2.43713580E-02 -2.37171162E-03
 -6.52307742E-03  5.08078543E-03  2.97764580E-04 -9.56689436E-03  1.82058069E-01
  3.54943996E-01  1.63234134E-01 -1.84667708E-02  9.07669084E-02  6.23222107E-02
  3.90594431E-02 -2.94123021E-02 -4.19249923E-02 -2.70400406E-02 -8.35795301E-03
  6.00528182E-03  1.50232331E-02  1.21357702E-03  1.00013942E-02 -3.51598618E-03
  1.09603163E-02 -3.84465692E-03  8.47106445E-03  1.69864402E-02  3.48361665E-02
  9.94178778E-02  4.55602031E-03  4.42326284E-03  2.81810002E-03  2.59255198E-03
  1.63794539E-02  1.07780376E-02  3.46353909E-02 -3.00004591E-02  4.42816397E-03
 -3.77651918E-03 -2.60589664E-03  8.05187523E-03  1.25457199E-02  8.10986121E-03
  1.22709238E-01  2.78076270E-02  8.08144427E-03 -1.23811757E-02 -8.39062119E-03
  3.54147087E-03 -1.29228611E-03 -9.41818112E-04 -2.10953221E-01  4.28134496E-01
  6.08970571E-02 -6.93012129E-02  7.14971745E-02 -1.37956340E-02 -1.08458851E-02