0004_q000_m01_k00_opt_uwb97xd_def2svpd/0004_q000_m01_k00_force_uhf_def2t
Force     UHF                                                         Gen                 
Number of atoms                            I                6
Info1-9                                    I   N=           9
          13           9           0           0           0         100
           5           1           2
Full Title                                 C   N=           8
0004_q000_m01_k00_opt_uwb97xd_def2svpd/0004_q000_m01_k00_for
ce_uhf_def2tzvp stable-force        
Route                                      C   N=          15
#p uhf/chkbasis force guess=read geom=check scf=(maxcycle=90
0,verytightlineq,xqc) integral=grid=ultrafine symmetry=None 
density=current pop=(cm5,hlygat,mbs,npa) output=wfx         
Charge                                     I                0
Multiplicity                               I                1
Number of electrons                        I               32
Number of alpha electrons                  I               16
Number of beta electrons                   I               16
Number of basis functions                  I              117
Number of independent functions            I              117
Number of point charges in /Mol/           I                0
Number of translation vectors              I                0
Atomic numbers                             I   N=           6
           6          16           7           1           1           1
Nuclear charges                            R   N=           6
  6.00000000E+00  1.60000000E+01  7.00000000E+00  1.00000000E+00  1.00000000E+00
  1.00000000E+00
Current cartesian coordinates              R   N=          18
  1.67863146E+00  2.68784369E-01  2.05840898E-01  4.73702225E+00  1.96852105E-01
  8.48289160E-02  6.24221873E+00  2.32416928E+00  1.45652951E+00  7.09165380E-01
 -1.25729983E+00 -7.80890272E-01  6.12793001E-01  1.72884379E+00  1.19782199E+00
  5.12841835E+00  3.62849725E+00  2.34675860E+00
Number of symbols in /Mol/                 I                0
Int Atom Types                             I   N=           6
           0           0           0           0           0           0
Force Field                                I                0
Atom Types                                 C   N=           6
                                                            
            
MM charges                                 R   N=           6
  0.00000000E+00  0.00000000E+00  0.00000000E+00  0.00000000E+00  0.00000000E+00
  0.00000000E+00
Integer atomic weights                     I   N=           6
          12          32          14           1           1           1
Real atomic weights                        R   N=           6
  1.20000000E+01  3.19720718E+01  1.40030740E+01  1.00782504E+00  1.00782504E+00
  1.00782504E+00
Atom fragment info                         I   N=           6
           0           0           0           0           0           0
Atom residue num                           I   N=           6
           0           0           0           0           0           0
Nuclear spins                              I   N=           6
           0           0           2           1           1           1
Nuclear ZEff                               R   N=           6
 -3.60000000E+00 -1.36000000E+01 -4.55000000E+00 -1.00000000E+00 -1.00000000E+00
 -1.00000000E+00
Nuclear ZNuc                               R   N=           6
  6.00000000E+00  1.60000000E+01  7.00000000E+00  1.00000000E+00  1.00000000E+00
  1.00000000E+00
Nuclear QMom                               R   N=           6
  0.00000000E+00  0.00000000E+00  2.04400000E+00  0.00000000E+00  0.00000000E+00
  0.00000000E+00
Nuclear GFac                               R   N=           6
  0.00000000E+00  0.00000000E+00  4.03761000E-01  2.79284600E+00  2.79284600E+00
  2.79284600E+00
MicOpt                                     I   N=           6
          -1          -1          -1          -1          -1          -1
Number of residues                         I                0
Number of secondary structures             I                0
Number of contracted shells                I               47
Number of primitive shells                 I               85
Pure/Cartesian d shells                    I                0
Pure/Cartesian f shells                    I                0
Highest angular momentum                   I                3
Largest degree of contraction              I                7
Shell types                                I   N=          47
           0           0           0           0           0           1
           1           1          -2          -2          -3           0
           0           0           0           0           1           1
           1           1           1          -2          -2          -3
           0           0           0           0           0           1
           1           1          -2          -2          -3           0
           0           0           1           0           0           0
           1           0           0           0           1
Number of primitives per shell             I   N=          47
           6           2           1           1           1           4
           1           1           1           1           1           7
           3           2           1           1           5           1
           1           1           1           2           1           1
           6           2           1           1           1           4
           1           1           1           1           1           3
           1           1           1           3           1           1
           1           3           1           1           1
Shell to atom map                          I   N=          47
           1           1           1           1           1           1
           1           1           1           1           1           2
           2           2           2           2           2           2
           2           2           2           2           2           2
           3           3           3           3           3           3
           3           3           3           3           3           4
           4           4           4           5           5           5
           5           6           6           6           6
Primitive exponents                        R   N=          85
  1.35753497E+04  2.03523337E+03  4.63225624E+02  1.31200196E+02  4.28530159E+01
  1.55841858E+01  6.20671385E+00  2.57648965E+00  5.76963394E-01  2.29728314E-01
  9.51644400E-02  3.46972322E+01  7.95826228E+00  2.37808269E+00  8.14332082E-01
  2.88875473E-01  1.00568237E-01  1.09700000E+00  3.18000000E-01  7.61000000E-01
  6.07009281E+04  9.10261069E+03  2.07141660E+03  5.86024768E+02  1.90553950E+02
  6.76303843E+01  2.51273069E+01  1.12574630E+02  3.47955542E+01  6.51155562E+00
  3.23990323E+00  1.54771609E+00  4.05410301E-01  1.45506511E-01  5.64367160E+02
  1.33426244E+02  4.24682712E+01  1.56165276E+01  6.10939885E+00  2.44041602E+00
  8.38822013E-01  3.12887469E-01  1.07701090E-01  3.75600000E+00  8.12000000E-01
  2.73000000E-01  5.57000000E-01  1.97308006E+04  2.95789587E+03  6.73221336E+02
  1.90682495E+02  6.22954419E+01  2.26541612E+01  8.97914774E+00  3.68630024E+00
  8.46600768E-01  3.36471338E-01  1.36476537E-01  4.92003805E+01  1.13467905E+01
  3.42739724E+00  1.17855251E+00  4.16422050E-01  1.42608260E-01  1.65400000E+00
  4.69000000E-01  1.09300000E+00  3.40613410E+01  5.12357460E+00  1.16466260E+00
  3.27230410E-01  1.03072410E-01  8.00000000E-01  3.40613410E+01  5.12357460E+00
  1.16466260E+00  3.27230410E-01  1.03072410E-01  8.00000000E-01  3.40613410E+01
  5.12357460E+00  1.16466260E+00  3.27230410E-01  1.03072410E-01  8.00000000E-01
Contraction coefficients                   R   N=          85
  6.06455036E-04  4.69790889E-03  2.43324776E-02  9.73999683E-02  3.01955843E-01
  6.62336091E-01  6.55953085E-01  3.75856333E-01  1.00000000E+00  1.00000000E+00
  1.00000000E+00  1.13272200E-02  7.61696592E-02  3.01922522E-01  7.27850273E-01
  1.00000000E+00  1.00000000E+00  1.00000000E+00  1.00000000E+00  1.00000000E+00
  5.23800749E-04  4.05063268E-03  2.08270042E-02  8.14968503E-02  2.37491138E-01
  4.47261715E-01  3.48919184E-01  1.00455699E-01  4.33911729E-01 -1.20843306E+00
  6.74981294E-01  3.47087958E-01  1.00000000E+00  1.00000000E+00  3.48869236E-03
  2.76851268E-02  1.26594002E-01  3.61659257E-01  6.12220344E-01  1.00000000E+00
  1.00000000E+00  1.00000000E+00  1.00000000E+00  1.82851975E-01  9.14259873E-01
  1.00000000E+00  1.00000000E+00  5.86264026E-04  4.54288206E-03  2.35584135E-02
  9.47091933E-02  2.97197849E-01  6.69162469E-01  6.45966836E-01  3.87005744E-01
  1.00000000E+00  1.00000000E+00  1.00000000E+00  1.14488251E-02  7.84223380E-02
  3.08180947E-01  7.20271964E-01  1.00000000E+00  1.00000000E+00  1.00000000E+00
  1.00000000E+00  1.00000000E+00  2.54393072E-02  1.90085949E-01  8.52441130E-01
  1.00000000E+00  1.00000000E+00  1.00000000E+00  2.54393072E-02  1.90085949E-01
  8.52441130E-01  1.00000000E+00  1.00000000E+00  1.00000000E+00  2.54393072E-02
  1.90085949E-01  8.52441130E-01  1.00000000E+00  1.00000000E+00  1.00000000E+00
Coordinates of each shell                  R   N=         141
  1.67863146E+00  2.68784369E-01  2.05840898E-01  1.67863146E+00  2.68784369E-01
  2.05840898E-01  1.67863146E+00  2.68784369E-01  2.05840898E-01  1.67863146E+00
  2.68784369E-01  2.05840898E-01  1.67863146E+00  2.68784369E-01  2.05840898E-01
  1.67863146E+00  2.68784369E-01  2.05840898E-01  1.67863146E+00  2.68784369E-01
  2.05840898E-01  1.67863146E+00  2.68784369E-01  2.05840898E-01  1.67863146E+00
  2.68784369E-01  2.05840898E-01  1.67863146E+00  2.68784369E-01  2.05840898E-01
  1.67863146E+00  2.68784369E-01  2.05840898E-01  4.73702225E+00  1.96852105E-01
  8.48289160E-02  4.73702225E+00  1.96852105E-01  8.48289160E-02  4.73702225E+00
  1.96852105E-01  8.48289160E-02  4.73702225E+00  1.96852105E-01  8.48289160E-02
  4.73702225E+00  1.96852105E-01  8.48289160E-02  4.73702225E+00  1.96852105E-01
  8.48289160E-02  4.73702225E+00  1.96852105E-01  8.48289160E-02  4.73702225E+00
  1.96852105E-01  8.48289160E-02  4.73702225E+00  1.96852105E-01  8.48289160E-02
  4.73702225E+00  1.96852105E-01  8.48289160E-02  4.73702225E+00  1.96852105E-01
  8.48289160E-02  4.73702225E+00  1.96852105E-01  8.48289160E-02  4.73702225E+00
  1.96852105E-01  8.48289160E-02  6.24221873E+00  2.32416928E+00  1.45652951E+00
  6.24221873E+00  2.32416928E+00  1.45652951E+00  6.24221873E+00  2.32416928E+00
  1.45652951E+00  6.24221873E+00  2.32416928E+00  1.45652951E+00  6.24221873E+00
  2.32416928E+00  1.45652951E+00  6.24221873E+00  2.32416928E+00  1.45652951E+00
  6.24221873E+00  2.32416928E+00  1.45652951E+00  6.24221873E+00  2.32416928E+00
  1.45652951E+00  6.24221873E+00  2.32416928E+00  1.45652951E+00  6.24221873E+00
  2.32416928E+00  1.45652951E+00  6.24221873E+00  2.32416928E+00  1.45652951E+00
  7.09165380E-01 -1.25729983E+00 -7.80890272E-01  7.09165380E-01 -1.25729983E+00
 -7.80890272E-01  7.09165380E-01 -1.25729983E+00 -7.80890272E-01  7.09165380E-01
 -1.25729983E+00 -7.80890272E-01  6.12793001E-01  1.72884379E+00  1.19782199E+00
  6.12793001E-01  1.72884379E+00  1.19782199E+00  6.12793001E-01  1.72884379E+00
  1.19782199E+00  6.12793001E-01  1.72884379E+00  1.19782199E+00  5.12841835E+00
  3.62849725E+00  2.34675860E+00  5.12841835E+00  3.62849725E+00  2.34675860E+00
  5.12841835E+00  3.62849725E+00  2.34675860E+00  5.12841835E+00  3.62849725E+00
  2.34675860E+00
Num ILSW                                   I              100
ILSW                                       I   N=         100
           1           0           0           0           2           0
           0           0           0           0           0          -1
           5           0           0           0           2           0
           0           0           0           0           1           0
           1           1           0           0           0           0
           0           0      100000           0          -1           0
           0           0           0           0           0           0
           0           0           0           1           0           0
           0 -2000000000           1           0           0           0
           0           0           4          52           0           0
           0           0           0           0           0           0
           0           0           0           6           0           1
           0           0           0           0           0           0
           0           0           0           0           0           0
           0           0           0           0           0           0
           0           0           0           0           0           0
           0           0           0           0
Num RLSW                                   I               52
RLSW                                       R   N=          52
  1.00000000E+00  1.00000000E+00  1.00000000E+00  1.00000000E+00  1.00000000E+00
  0.00000000E+00  0.00000000E+00  1.00000000E+00  0.00000000E+00  0.00000000E+00
  0.00000000E+00  0.00000000E+00  1.00000000E+00  0.00000000E+00  0.00000000E+00
  0.00000000E+00  0.00000000E+00  1.00000000E+00  0.00000000E+00  0.00000000E+00
  0.00000000E+00  0.00000000E+00  1.00000000E+00  0.00000000E+00  0.00000000E+00
  0.00000000E+00  0.00000000E+00  1.00000000E+00  0.00000000E+00  0.00000000E+00
  0.00000000E+00  0.00000000E+00  1.00000000E+00  0.00000000E+00  0.00000000E+00
  0.00000000E+00  0.00000000E+00  0.00000000E+00  1.00000000E+00  1.00000000E+00
  0.00000000E+00  1.00000000E+00  0.00000000E+00  0.00000000E+00  0.00000000E+00
  0.00000000E+00  0.00000000E+00  0.00000000E+00  0.00000000E+00  0.00000000E+00
  0.00000000E+00  0.00000000E+00
MxBond                                     I                3
NBond                                      I   N=           6
           3           2           2           1           1           1
IBond                                      I   N=          18
           2           4           5           1           3           0
           2           6           0           1           0           0
           1           0           0           3           0           0
RBond                                      R   N=          18
  2.00000000E+00  1.00000000E+00  1.00000000E+00  2.00000000E+00  2.00000000E+00
  0.00000000E+00  2.00000000E+00  1.00000000E+00  0.00000000E+00  1.00000000E+00
  0.00000000E+00  0.00000000E+00  1.00000000E+00  0.00000000E+00  0.00000000E+00
  1.00000000E+00  0.00000000E+00  0.00000000E+00
Virial Ratio                               R      2.000055744180998E+00
SCF Energy                                 R     -4.915586459285294E+02
Total Energy                               R     -4.915586459285294E+02
S**2                                       R      6.184096464588968E-01
S**2 after annihilation                    R      1.018684579904938E-01
RMS Force                                  R      1.357035398632831E-02
RMS Density                                R      8.465401873542247E-11
Job Status                                 I                1
Nuclear derivative order                   I                1
External E-field                           R   N=          35
  0.00000000E+00  0.00000000E+00  0.00000000E+00  0.00000000E+00  0.00000000E+00
  0.00000000E+00  0.00000000E+00  0.00000000E+00  0.00000000E+00  0.00000000E+00
  0.00000000E+00  0.00000000E+00  0.00000000E+00  0.00000000E+00  0.00000000E+00
  0.00000000E+00  0.00000000E+00  0.00000000E+00  0.00000000E+00  0.00000000E+00
  0.00000000E+00  0.00000000E+00  0.00000000E+00  0.00000000E+00  0.00000000E+00
  0.00000000E+00  0.00000000E+00  0.00000000E+00  0.00000000E+00  0.00000000E+00
  0.00000000E+00  0.00000000E+00  0.00000000E+00  0.00000000E+00  0.00000000E+00
IOpCl                                      I                1
IROHF                                      I                0
Alpha Orbital Energies                     R   N=         117
 -9.20248987E+01 -1.55801327E+01 -1.12514064E+01 -9.02394732E+00 -6.70725366E+00
 -6.70574516E+00 -6.70359447E+00 -1.23758774E+00 -1.01794987E+00 -8.03624067E-01
 -6.63292984E-01 -6.30746984E-01 -5.57919302E-01 -5.00542915E-01 -4.52843459E-01
 -3.68358306E-01  9.51947837E-02  1.45207962E-01  1.71666208E-01  1.85791701E-01
  2.21140001E-01  2.64303470E-01  2.91445427E-01  3.43873438E-01  3.56966655E-01
  4.07310929E-01  4.29067666E-01  4.56339073E-01  4.89264430E-01  5.10180315E-01
  5.20768186E-01  5.75869102E-01  5.92891413E-01  6.10375267E-01  6.13924316E-01
  6.26027861E-01  6.34321074E-01  7.22523312E-01  7.53031930E-01  8.61481471E-01
  8.63110294E-01  9.69241420E-01  1.02417631E+00  1.11214355E+00  1.15414844E+00
  1.20936544E+00  1.24816211E+00  1.25481280E+00  1.44477594E+00  1.51370696E+00
  1.54801024E+00  1.58453541E+00  1.66176725E+00  1.75310328E+00  1.77722960E+00
  1.78723758E+00  1.82943580E+00  1.85391429E+00  1.86452316E+00  1.86970103E+00
  1.91877215E+00  1.95136572E+00  1.98510121E+00  2.03869098E+00  2.04872050E+00
  2.06115282E+00  2.10741939E+00  2.19925850E+00  2.23248423E+00  2.26316450E+00
  2.31880642E+00  2.33017910E+00  2.34882086E+00  2.43593551E+00  2.44448154E+00
  2.48971499E+00  2.64443377E+00  2.69059845E+00  2.73859314E+00  2.75684420E+00
  2.83677845E+00  2.86053704E+00  2.97486357E+00  2.99937123E+00  3.12114504E+00
  3.30816949E+00  3.39175574E+00  3.45576293E+00  3.46082778E+00  3.51786993E+00
  3.52692212E+00  3.63185631E+00  3.76890671E+00  3.77635204E+00  3.84590721E+00
  3.97158416E+00  4.04848826E+00  4.33364195E+00  4.38769367E+00  4.43609995E+00
  4.61363409E+00  4.65886315E+00  4.72785189E+00  4.87085377E+00  4.98075851E+00
  4.98479708E+00  5.16354371E+00  5.27544854E+00  5.42976873E+00  5.53059152E+00
  5.91591302E+00  9.51088530E+00  9.78383214E+00  1.01669675E+01  2.13924052E+01
  2.30181709E+01  3.29082711E+01
Beta Orbital Energies                      R   N=         117
 -9.20230712E+01 -1.55581600E+01 -1.12700388E+01 -9.02221608E+00 -6.70450370E+00
 -6.70289242E+00 -6.70000432E+00 -1.20351821E+00 -1.02579245E+00 -8.09608226E-01
 -6.61312164E-01 -6.38233634E-01 -5.11355294E-01 -4.85107515E-01 -4.38712494E-01
 -3.42883731E-01  9.70804746E-02  1.46542736E-01  1.67282495E-01  1.84850351E-01
  2.23488268E-01  2.63204224E-01  2.93363616E-01  3.23369770E-01  3.37479275E-01
  4.01038722E-01  4.30527740E-01  4.33696742E-01  4.89616920E-01  5.21020459E-01
  5.42061701E-01  5.90814053E-01  5.95716712E-01  6.04410026E-01  6.20492349E-01
  6.21923567E-01  6.38953075E-01  7.26890945E-01  7.55986512E-01  8.34487455E-01
  8.63396903E-01  9.71444309E-01  1.01428310E+00  1.09789329E+00  1.13776452E+00
  1.20165239E+00  1.24860769E+00  1.27036659E+00  1.45682969E+00  1.54367435E+00
  1.54993266E+00  1.58442205E+00  1.66783085E+00  1.71607225E+00  1.76007272E+00
  1.78519362E+00  1.83128012E+00  1.84952134E+00  1.85915239E+00  1.87255497E+00
  1.91655226E+00  1.95134300E+00  1.98998095E+00  2.02790986E+00  2.05744952E+00
  2.06630068E+00  2.10810587E+00  2.21100393E+00  2.26427657E+00  2.26577362E+00
  2.32410216E+00  2.32805608E+00  2.36568740E+00  2.43122878E+00  2.45047612E+00
  2.48479437E+00  2.64100304E+00  2.73568270E+00  2.74214041E+00  2.74739263E+00
  2.83575106E+00  2.85759651E+00  2.97047399E+00  2.98962006E+00  3.11843808E+00
  3.26065126E+00  3.39594474E+00  3.41263467E+00  3.43380841E+00  3.50580479E+00
  3.51829564E+00  3.62061186E+00  3.75616399E+00  3.76005251E+00  3.83037912E+00
  3.96612183E+00  4.04009887E+00  4.36108427E+00  4.40098023E+00  4.43930361E+00
  4.64453539E+00  4.68894878E+00  4.72631304E+00  4.89006882E+00  4.99267368E+00
  5.02950775E+00  5.20810375E+00  5.31632613E+00  5.44145063E+00  5.54743033E+00
  5.92362946E+00  9.51756648E+00  9.78456466E+00  1.01682195E+01  2.13946287E+01
  2.30053416E+01  3.29221875E+01
Alpha MO coefficients                      R   N=       13689
  1.63139847E-06 -9.94083998E-06  7.15447854E-04 -2.62074157E-03  6.23861276E-05
  1.77758826E-04  6.13283816E-07 -3.86040809E-06 -2.12789069E-03  7.43896777E-05
  1.00304197E-04 -1.41255131E-04  1.50219242E-04  1.02819545E-04  4.35054956E-05
  4.16513551E-06 -6.89886701E-06 -6.96310200E-05  8.66479802E-07  4.95411188E-04
  1.02577996E-04  7.34613578E-05 -9.26232460E-04  9.19615501E-05 -1.11003633E-05
  1.92342704E-04 -2.06561357E-06  2.01086594E-05 -4.93349336E-06 -2.45735212E-04
  5.92032973E-06  9.98643680E-01 -2.86403540E-02 -7.67491039E-03  3.03939853E-03
  2.11659427E-03 -4.23655750E-05  9.92036164E-05  6.66720119E-05 -8.06500473E-06
 -8.59429705E-05 -5.66851912E-05  2.10669101E-04 -8.96325600E-05 -6.43712369E-05
 -1.34838801E-03  1.11705661E-03  7.71614223E-04 -5.05630221E-05  6.42176521E-05
  4.36999469E-05 -1.33711500E-04  6.26979399E-05  1.40263148E-04  1.06969242E-04
  1.10331439E-04 -5.78716318E-04  2.99231134E-04  3.84618729E-04  6.49623699E-04
  5.21045388E-04 -1.62673938E-04  1.80044033E-04  8.99228193E-06 -5.88357584E-05
  2.39339891E-04 -4.09934438E-04  6.08839850E-05  1.43073289E-05 -5.12076303E-05
  6.40041285E-04 -1.73036147E-03 -3.73986685E-04 -9.50640286E-05 -1.39626915E-04
 -9.01218017E-05  6.39812632E-04  9.60415657E-04  6.20234617E-04  5.04178570E-05
  3.62546200E-04  2.38744939E-04 -2.74840806E-06  1.39136342E-05  1.94045069E-05
 -1.28252731E-05  2.11801638E-05  1.12357555E-04 -2.97025569E-04 -4.09779543E-04
  1.77199307E-04 -4.59012041E-04 -9.40589427E-05  6.04148385E-06  3.06140193E-06
 -3.69889039E-05  1.31525586E-04 -1.06182778E-04  4.55664126E-05 -7.48760588E-06
 -1.36049308E-04  7.54531798E-05 -3.05506429E-05  3.13892575E-06  2.81244690E-06
  1.30883850E-05 -1.34125953E-04 -1.27442986E-04 -5.77422178E-05 -2.21398683E-05
 -1.32710703E-05 -2.08302374E-05 -7.76273057E-05 -1.41896642E-04  1.17520927E-05
  1.06436077E-05  6.75963471E-06  3.02056488E-06 -1.18713219E-05  5.85225584E-05
  4.14843514E-04 -8.56159449E-04 -6.34128734E-06  2.07269844E-05  1.38703629E-05
  8.27615321E-04 -6.63595998E-05 -6.37933922E-05 -3.76177298E-04 -1.90777985E-04
 -1.17221309E-04 -3.47991032E-05  2.00421912E-05  3.48401451E-05  2.89594133E-05
  3.43409073E-05 -2.05473511E-06 -1.18540683E-04 -3.73201780E-04  3.29686134E-04
 -1.75902682E-04  1.38201334E-05 -6.55134018E-06  7.91697889E-06 -1.68753921E-05
 -1.56114077E-06  1.17441749E-05 -3.08984484E-05  3.67310408E-05 -6.03307604E-05
 -2.81949455E-04  2.96576940E-04  1.28351608E-03 -3.29802652E-05 -4.75290832E-05
 -3.06629758E-05  5.19966154E-05  2.84457409E-05  1.75772929E-05 -2.31263748E-04
 -1.64286021E-04 -1.03175767E-04  1.70576258E-03  1.73023993E-03  1.10412326E-03
 -1.44207483E-04  1.33768553E-04  9.19739866E-05 -1.29532241E-05  1.02312061E-04
  1.21560245E-04 -8.88756362E-05  1.55011314E-04 -2.60046828E-05  3.83523248E-04
  8.71632360E-04 -7.25248695E-04  5.75434157E-04 -1.21366805E-04 -3.65458379E-05
  4.88112743E-05 -1.54772623E-04  7.55381775E-05 -9.00595383E-06 -5.60405464E-05
  4.48776847E-01  6.30051723E-01  2.16784500E-02 -1.02332336E-02  3.59366932E-03
 -2.34500390E-03 -3.98236607E-04 -2.07049118E-04  2.37624788E-03  1.18076142E-03
  7.24210202E-04 -7.44811883E-04  3.24428323E-04  2.32704779E-04  1.91956220E-04
  4.32551496E-05 -2.54756959E-04 -1.18826791E-04  4.27771053E-05  1.58021649E-04
 -3.43881662E-04 -3.51489867E-04  5.25229627E-05 -5.35818518E-04 -6.33468673E-05
 -1.69033606E-05 -3.50178508E-07 -1.30017748E-05 -1.91389639E-05  2.94917371E-05
  4.63507134E-05  4.80103853E-05  4.29606289E-04 -1.72056851E-04  3.36582839E-05
  4.65703374E-05  3.00156520E-05  1.35374264E-05  3.77169608E-04  1.85143452E-04
  1.26002800E-04 -2.20409468E-05 -1.76185408E-05  1.66611140E-04  3.61062994E-04
 -1.14773812E-03 -1.23042232E-04  1.24221333E-05  1.11926888E-05  4.67776965E-01
  6.12892771E-01  1.76143566E-02 -5.54870851E-03  2.99942786E-03  3.94920141E-04
 -9.85728009E-06 -1.59177889E-05 -4.11276898E-04 -6.06513570E-05 -3.02822476E-05
 -1.14048062E-04 -6.05576425E-05 -3.73177866E-05 -5.89332596E-04 -5.23455683E-05
  8.48663991E-04  3.01835546E-04 -1.06617256E-05 -9.69486209E-05 -1.03073809E-05
  3.14080204E-04 -9.83042625E-05 -5.47571611E-06  4.02841923E-06 -1.37858847E-04
  2.50250524E-06  1.50803271E-05 -4.48071066E-04  4.87443732E-04  2.96983883E-05
 -2.44200888E-05  1.93760059E-05  4.92245675E-05  1.62762906E-04  5.82300941E-04
  6.26734947E-05 -1.22052210E-05 -9.58228551E-06 -4.21632326E-05  1.36411194E-05
  1.00399186E-05 -1.24787002E-04 -5.10385431E-05 -3.07827387E-05  4.32774870E-05
  2.32266987E-04  1.52680114E-04  8.32476566E-05  3.89413571E-04  2.55710512E-04
  5.73090477E-05  9.71070820E-06 -4.58734342E-05 -6.08196992E-05  7.75763913E-06
  4.32667393E-05  4.02885376E-05  1.84495605E-04 -2.34553288E-04  5.40549647E-05
 -7.03751147E-06 -1.62224256E-04  2.28821014E-05 -7.29272119E-05  1.21776511E-05
  2.03074099E-04 -5.27160667E-05  2.69197521E-06 -1.23109212E-06  7.78740865E-05
 -1.65852651E-04 -8.93301017E-04 -2.20028800E-05 -9.67161359E-06 -5.87022427E-06
  2.22760207E-04  4.71180628E-05  2.58229131E-05  3.45712074E-04  1.62328558E-04
  9.91204077E-05 -6.87955349E-06  5.92840614E-06  5.23043183E-06  6.97986547E-06
  9.76682997E-06  6.00486222E-05 -2.81611906E-05 -4.44383913E-05 -6.38156591E-05
 -4.97016259E-05 -4.22666933E-06 -7.60964271E-06 -4.31777178E-06  8.72256897E-06
  3.56058249E-06  6.43247538E-06  1.48263066E-05 -8.92738415E-05 -2.03637238E-04
 -5.65814520E-04 -1.88368142E-04 -3.20317603E-04 -2.07471796E-04 -8.74462561E-05
 -1.59570390E-04 -5.43724637E-04 -2.22777237E-04  2.97910250E-04  2.02531235E-04
 -1.28104892E-05  2.12380515E-04 -4.24958134E-05  1.87306999E-05 -3.30409360E-05
 -2.23227028E-05 -1.48098017E-04 -2.49031677E-04  4.75573385E-04 -1.22264902E-03
  1.53295707E-03  2.41017636E-04 -2.98391209E-06 -7.76236405E-06 -9.65392344E-04
  5.59708946E-05  6.02159359E-05  4.73719951E-04 -3.61706852E-05 -3.53049963E-05
 -5.66706413E-06  5.74709646E-07 -7.86539591E-06  1.64209309E-05  1.63119072E-06
  1.79532334E-04  4.88945648E-05  6.45092649E-05 -3.68743129E-04  5.07373315E-05
 -4.59567961E-06 -1.43035065E-05 -7.83689153E-06  1.95235784E-05 -3.55243523E-05
  4.15235499E-05  2.80068580E-05 -2.87494127E-01 -2.48387973E-01  8.05868470E-01
  1.45742578E-02 -2.67101366E-03 -1.70623256E-03  2.65532261E-03  1.79838781E-03
 -1.32051308E-03  2.32314946E-03  1.56924759E-03 -2.28566384E-04  2.43433279E-04
  1.66621235E-04 -1.04556523E-03  4.33406379E-04  3.11915371E-04  4.67490473E-04
 -3.23326975E-04 -2.25193760E-04 -1.32525997E-04  1.99721362E-04 -4.34142705E-05
  2.49988693E-04  3.17973432E-04 -2.46525531E-04  1.28642872E-05  1.31351372E-04
  3.13375212E-04  4.94428931E-05 -2.21018504E-04  1.39459405E-04  1.22588962E-05
 -8.82458696E-05  3.09607211E-04 -4.10665755E-04  8.80387914E-05 -9.05684747E-05
 -1.94458442E-04  3.83340984E-04 -6.23771349E-04  7.32844458E-04 -1.45212413E-04
 -1.97032086E-04 -1.26905350E-04  1.29725068E-04  2.01533634E-04  1.30258665E-04
 -2.61272256E-04 -7.93245300E-05 -4.62120610E-05 -1.16861413E-05  2.47445252E-05
  3.09238855E-05 -8.01907893E-06  3.85532720E-05  1.71562320E-05 -1.24553001E-05
 -6.81612894E-05  2.92110062E-05 -2.04684749E-05  5.45770721E-05 -1.67311704E-06
  5.08982199E-06  5.27184060E-06 -8.27044080E-05  6.45532409E-05 -4.49530310E-05
 -4.64650675E-05 -1.19636343E-04 -2.46226872E-04 -5.29337986E-06 -1.76248608E-05
 -1.15375041E-05 -4.34579502E-05 -1.29247863E-04 -1.11873010E-04 -1.74293600E-05
  2.19940538E-05  1.49749654E-05  3.66362899E-06 -6.71364491E-05 -1.15942745E-04
 -3.06197428E-05 -1.88725718E-05 -1.17518357E-05 -3.03058291E-08 -5.21563974E-08
 -3.67465949E-08  9.53173722E-07  1.93937233E-07 -3.06147741E-07  1.03786506E-05
 -1.56884027E-05  1.26667002E-05 -3.30292938E-04  4.99029606E-04 -7.34200521E-06
  2.06564416E-04 -3.12070522E-04 -2.25110503E-05  1.85513769E-05 -1.03427292E-05
 -1.20737536E-05 -1.29371280E-05  8.93412582E-05  3.85380222E-04  5.77632382E-05
  7.02571960E-05 -2.52055104E-04 -5.73653856E-06  1.92697103E-05 -4.78919052E-06
  4.53222770E-06  1.05702851E-05  1.53868281E-05 -5.02187067E-06  2.84292491E-08
  1.57862238E-08 -9.59009107E-08  5.44146176E-08 -3.02621223E-07  1.41916084E-02
 -3.94084436E-01  5.95352743E-01  6.94302298E-03 -1.92798811E-01  2.91265675E-01
  1.16892934E-03 -3.24729657E-02  4.90571536E-02 -1.33818371E-04  3.73935467E-03
 -5.64856340E-03  4.23120246E-05 -1.16319859E-03  1.75760125E-03  7.92085445E-04
 -4.84670439E-04  3.70211746E-04  4.33704724E-04  3.43984129E-04 -7.00152568E-04
  2.74643718E-04 -3.32841706E-04 -3.91188344E-04 -2.02250356E-04  2.78912910E-05
  3.82701261E-05 -1.09398175E-04 -6.83511516E-05  1.35324433E-05  2.43568853E-05
  2.21650704E-05  3.41856389E-08  6.70080504E-08 -4.71016943E-08 -5.51590334E-07
 -3.02792749E-07  2.59967803E-06 -7.02863444E-05  1.06378456E-04  1.15329335E-05
 -3.11450939E-04  4.71089435E-04 -2.52911878E-06  7.36781868E-05 -1.11044293E-04
 -4.00625061E-05 -3.11813994E-06 -1.97447271E-05 -2.32480549E-05  8.45293447E-07
 -1.67191669E-04 -2.40150673E-04 -9.06306160E-05 -1.07963655E-04  1.53639048E-04
 -1.23173748E-05 -2.22208702E-05 -2.65638907E-05  8.07252389E-06 -1.18949564E-05
 -1.61115212E-05 -1.75573134E-05  9.87258209E-09 -1.05371758E-08  1.25992037E-08
  3.66937540E-07 -1.07381191E-05  1.62368514E-05  1.18518939E-08 -3.94690027E-08
  1.27167644E-08 -5.30835508E-07  1.42915516E-05 -2.15916727E-05 -1.59395384E-08
  1.06154991E-07 -4.65546541E-08 -1.22087772E-06  3.34218289E-05 -5.05353891E-05
  2.25655740E-04  3.54321108E-04  4.32043790E-04 -6.81956164E-03 -1.83681719E-03
 -4.44663265E-04  2.10400051E-05  2.45980553E-05 -4.88659854E-03 -2.09269248E-04
 -2.10918503E-05 -1.04495124E-03 -4.76701488E-04 -2.90500409E-04  4.18736893E-05
  8.56907273E-06 -1.46496031E-05 -6.05767460E-05  7.75109807E-06  7.33453025E-04