0004_q000_m01_k00_opt_uwb97xd_def2svpd/0004_q000_m01_k00_force_uhf_def2t
Force     UHF                                                         Gen                 
Number of atoms                            I                6
Info1-9                                    I   N=           9
          13           9           0           0           0         100
           5           1           2
Full Title                                 C   N=           8
0004_q000_m01_k00_opt_uwb97xd_def2svpd/0004_q000_m01_k00_for
ce_uhf_def2tzvpd stable-force       
Route                                      C   N=          15
#p uhf/chkbasis force guess=read geom=check scf=(maxcycle=90
0,verytightlineq,xqc) integral=grid=ultrafine symmetry=None 
density=current pop=(cm5,hlygat,mbs,npa) output=wfx         
Charge                                     I                0
Multiplicity                               I                1
Number of electrons                        I               32
Number of alpha electrons                  I               16
Number of beta electrons                   I               16
Number of basis functions                  I              147
Number of independent functions            I              147
Number of point charges in /Mol/           I                0
Number of translation vectors              I                0
Atomic numbers                             I   N=           6
           6          16           7           1           1           1
Nuclear charges                            R   N=           6
  6.00000000E+00  1.60000000E+01  7.00000000E+00  1.00000000E+00  1.00000000E+00
  1.00000000E+00
Current cartesian coordinates              R   N=          18
  1.67863146E+00  2.68784369E-01  2.05840898E-01  4.73702225E+00  1.96852105E-01
  8.48289160E-02  6.24221873E+00  2.32416928E+00  1.45652951E+00  7.09165380E-01
 -1.25729983E+00 -7.80890272E-01  6.12793001E-01  1.72884379E+00  1.19782199E+00
  5.12841835E+00  3.62849725E+00  2.34675860E+00
Number of symbols in /Mol/                 I                0
Int Atom Types                             I   N=           6
           0           0           0           0           0           0
Force Field                                I                0
Atom Types                                 C   N=           6
                                                            
            
MM charges                                 R   N=           6
  0.00000000E+00  0.00000000E+00  0.00000000E+00  0.00000000E+00  0.00000000E+00
  0.00000000E+00
Integer atomic weights                     I   N=           6
          12          32          14           1           1           1
Real atomic weights                        R   N=           6
  1.20000000E+01  3.19720718E+01  1.40030740E+01  1.00782504E+00  1.00782504E+00
  1.00782504E+00
Atom fragment info                         I   N=           6
           0           0           0           0           0           0
Atom residue num                           I   N=           6
           0           0           0           0           0           0
Nuclear spins                              I   N=           6
           0           0           2           1           1           1
Nuclear ZEff                               R   N=           6
 -3.60000000E+00 -1.36000000E+01 -4.55000000E+00 -1.00000000E+00 -1.00000000E+00
 -1.00000000E+00
Nuclear ZNuc                               R   N=           6
  6.00000000E+00  1.60000000E+01  7.00000000E+00  1.00000000E+00  1.00000000E+00
  1.00000000E+00
Nuclear QMom                               R   N=           6
  0.00000000E+00  0.00000000E+00  2.04400000E+00  0.00000000E+00  0.00000000E+00
  0.00000000E+00
Nuclear GFac                               R   N=           6
  0.00000000E+00  0.00000000E+00  4.03761000E-01  2.79284600E+00  2.79284600E+00
  2.79284600E+00
MicOpt                                     I   N=           6
          -1          -1          -1          -1          -1          -1
Number of residues                         I                0
Number of secondary structures             I                0
Number of contracted shells                I               57
Number of primitive shells                 I               95
Pure/Cartesian d shells                    I                0
Pure/Cartesian f shells                    I                0
Highest angular momentum                   I                3
Largest degree of contraction              I                7
Shell types                                I   N=          57
           0           0           0           0           0           0
           1           1           1          -2          -2          -2
          -3           0           0           0           0           0
           0           1           1           1           1           1
           1          -2          -2          -2          -3           0
           0           0           0           0           0           1
           1           1          -2          -2          -2          -3
           0           0           0           1           1           0
           0           0           1           1           0           0
           0           1           1
Number of primitives per shell             I   N=          57
           6           2           1           1           1           1
           4           1           1           1           1           1
           1           7           3           2           1           1
           1           5           1           1           1           1
           1           2           1           1           1           6
           2           1           1           1           1           4
           1           1           1           1           1           1
           3           1           1           1           1           3
           1           1           1           1           3           1
           1           1           1
Shell to atom map                          I   N=          57
           1           1           1           1           1           1
           1           1           1           1           1           1
           1           2           2           2           2           2
           2           2           2           2           2           2
           2           2           2           2           2           3
           3           3           3           3           3           3
           3           3           3           3           3           3
           4           4           4           4           4           5
           5           5           5           5           6           6
           6           6           6
Primitive exponents                        R   N=          95
  1.35753497E+04  2.03523337E+03  4.63225624E+02  1.31200196E+02  4.28530159E+01
  1.55841858E+01  6.20671385E+00  2.57648965E+00  5.76963394E-01  2.29728314E-01
  9.51644400E-02  4.84754014E-02  3.46972322E+01  7.95826228E+00  2.37808269E+00
  8.14332082E-01  2.88875473E-01  1.00568237E-01  1.09700000E+00  3.18000000E-01
  9.09853364E-02  7.61000000E-01  6.07009281E+04  9.10261069E+03  2.07141660E+03
  5.86024768E+02  1.90553950E+02  6.76303843E+01  2.51273069E+01  1.12574630E+02
  3.47955542E+01  6.51155562E+00  3.23990323E+00  1.54771609E+00  4.05410301E-01
  1.45506511E-01  5.01788395E-02  5.64367160E+02  1.33426244E+02  4.24682712E+01
  1.56165276E+01  6.10939885E+00  2.44041602E+00  8.38822013E-01  3.12887469E-01
  1.07701090E-01  3.03598336E-02  3.75600000E+00  8.12000000E-01  2.73000000E-01
  8.15470250E-02  5.57000000E-01  1.97308006E+04  2.95789587E+03  6.73221336E+02
  1.90682495E+02  6.22954419E+01  2.26541612E+01  8.97914774E+00  3.68630024E+00
  8.46600768E-01  3.36471338E-01  1.36476537E-01  6.84416058E-02  4.92003805E+01
  1.13467905E+01  3.42739724E+00  1.17855251E+00  4.16422050E-01  1.42608260E-01
  1.65400000E+00  4.69000000E-01  1.28296421E-01  1.09300000E+00  3.40613410E+01
  5.12357460E+00  1.16466260E+00  3.27230410E-01  1.03072410E-01  8.00000000E-01
  9.57741296E-02  3.40613410E+01  5.12357460E+00  1.16466260E+00  3.27230410E-01
  1.03072410E-01  8.00000000E-01  9.57741296E-02  3.40613410E+01  5.12357460E+00
  1.16466260E+00  3.27230410E-01  1.03072410E-01  8.00000000E-01  9.57741296E-02
Contraction coefficients                   R   N=          95
  6.06455036E-04  4.69790889E-03  2.43324776E-02  9.73999683E-02  3.01955843E-01
  6.62336091E-01  6.55953085E-01  3.75856333E-01  1.00000000E+00  1.00000000E+00
  1.00000000E+00  1.00000000E+00  1.13272200E-02  7.61696592E-02  3.01922522E-01
  7.27850273E-01  1.00000000E+00  1.00000000E+00  1.00000000E+00  1.00000000E+00
  1.00000000E+00  1.00000000E+00  5.23800749E-04  4.05063268E-03  2.08270042E-02
  8.14968503E-02  2.37491138E-01  4.47261715E-01  3.48919184E-01  1.00455699E-01
  4.33911729E-01 -1.20843306E+00  6.74981294E-01  3.47087958E-01  1.00000000E+00
  1.00000000E+00  1.00000000E+00  3.48869236E-03  2.76851268E-02  1.26594002E-01
  3.61659257E-01  6.12220344E-01  1.00000000E+00  1.00000000E+00  1.00000000E+00
  1.00000000E+00  1.00000000E+00  1.82851975E-01  9.14259873E-01  1.00000000E+00
  1.00000000E+00  1.00000000E+00  5.86264026E-04  4.54288206E-03  2.35584135E-02
  9.47091933E-02  2.97197849E-01  6.69162469E-01  6.45966836E-01  3.87005744E-01
  1.00000000E+00  1.00000000E+00  1.00000000E+00  1.00000000E+00  1.14488251E-02
  7.84223380E-02  3.08180947E-01  7.20271964E-01  1.00000000E+00  1.00000000E+00
  1.00000000E+00  1.00000000E+00  1.00000000E+00  1.00000000E+00  2.54393072E-02
  1.90085949E-01  8.52441130E-01  1.00000000E+00  1.00000000E+00  1.00000000E+00
  1.00000000E+00  2.54393072E-02  1.90085949E-01  8.52441130E-01  1.00000000E+00
  1.00000000E+00  1.00000000E+00  1.00000000E+00  2.54393072E-02  1.90085949E-01
  8.52441130E-01  1.00000000E+00  1.00000000E+00  1.00000000E+00  1.00000000E+00
Coordinates of each shell                  R   N=         171
  1.67863146E+00  2.68784369E-01  2.05840898E-01  1.67863146E+00  2.68784369E-01
  2.05840898E-01  1.67863146E+00  2.68784369E-01  2.05840898E-01  1.67863146E+00
  2.68784369E-01  2.05840898E-01  1.67863146E+00  2.68784369E-01  2.05840898E-01
  1.67863146E+00  2.68784369E-01  2.05840898E-01  1.67863146E+00  2.68784369E-01
  2.05840898E-01  1.67863146E+00  2.68784369E-01  2.05840898E-01  1.67863146E+00
  2.68784369E-01  2.05840898E-01  1.67863146E+00  2.68784369E-01  2.05840898E-01
  1.67863146E+00  2.68784369E-01  2.05840898E-01  1.67863146E+00  2.68784369E-01
  2.05840898E-01  1.67863146E+00  2.68784369E-01  2.05840898E-01  4.73702225E+00
  1.96852105E-01  8.48289160E-02  4.73702225E+00  1.96852105E-01  8.48289160E-02
  4.73702225E+00  1.96852105E-01  8.48289160E-02  4.73702225E+00  1.96852105E-01
  8.48289160E-02  4.73702225E+00  1.96852105E-01  8.48289160E-02  4.73702225E+00
  1.96852105E-01  8.48289160E-02  4.73702225E+00  1.96852105E-01  8.48289160E-02
  4.73702225E+00  1.96852105E-01  8.48289160E-02  4.73702225E+00  1.96852105E-01
  8.48289160E-02  4.73702225E+00  1.96852105E-01  8.48289160E-02  4.73702225E+00
  1.96852105E-01  8.48289160E-02  4.73702225E+00  1.96852105E-01  8.48289160E-02
  4.73702225E+00  1.96852105E-01  8.48289160E-02  4.73702225E+00  1.96852105E-01
  8.48289160E-02  4.73702225E+00  1.96852105E-01  8.48289160E-02  4.73702225E+00
  1.96852105E-01  8.48289160E-02  6.24221873E+00  2.32416928E+00  1.45652951E+00
  6.24221873E+00  2.32416928E+00  1.45652951E+00  6.24221873E+00  2.32416928E+00
  1.45652951E+00  6.24221873E+00  2.32416928E+00  1.45652951E+00  6.24221873E+00
  2.32416928E+00  1.45652951E+00  6.24221873E+00  2.32416928E+00  1.45652951E+00
  6.24221873E+00  2.32416928E+00  1.45652951E+00  6.24221873E+00  2.32416928E+00
  1.45652951E+00  6.24221873E+00  2.32416928E+00  1.45652951E+00  6.24221873E+00
  2.32416928E+00  1.45652951E+00  6.24221873E+00  2.32416928E+00  1.45652951E+00
  6.24221873E+00  2.32416928E+00  1.45652951E+00  6.24221873E+00  2.32416928E+00
  1.45652951E+00  7.09165380E-01 -1.25729983E+00 -7.80890272E-01  7.09165380E-01
 -1.25729983E+00 -7.80890272E-01  7.09165380E-01 -1.25729983E+00 -7.80890272E-01
  7.09165380E-01 -1.25729983E+00 -7.80890272E-01  7.09165380E-01 -1.25729983E+00
 -7.80890272E-01  6.12793001E-01  1.72884379E+00  1.19782199E+00  6.12793001E-01
  1.72884379E+00  1.19782199E+00  6.12793001E-01  1.72884379E+00  1.19782199E+00
  6.12793001E-01  1.72884379E+00  1.19782199E+00  6.12793001E-01  1.72884379E+00
  1.19782199E+00  5.12841835E+00  3.62849725E+00  2.34675860E+00  5.12841835E+00
  3.62849725E+00  2.34675860E+00  5.12841835E+00  3.62849725E+00  2.34675860E+00
  5.12841835E+00  3.62849725E+00  2.34675860E+00  5.12841835E+00  3.62849725E+00
  2.34675860E+00
Num ILSW                                   I              100
ILSW                                       I   N=         100
           1           0           0           0           2           0
           0           0           0           0           0          -1
           5           0           0           0           2           0
           0           0           0           0           1           0
           1           1           0           0           0           0
           0           0      100000           0          -1           0
           0           0           0           0           0           0
           0           0           0           1           0           0
           0 -2000000000           1           0           0           0
           0           0           4          52           0           0
           0           0           0           0           0           0
           0           0           0           6           0           1
           0           0           0           0           0           0
           0           0           0           0           0           0
           0           0           0           0           0           0
           0           0           0           0           0           0
           0           0           0           0
Num RLSW                                   I               52
RLSW                                       R   N=          52
  1.00000000E+00  1.00000000E+00  1.00000000E+00  1.00000000E+00  1.00000000E+00
  0.00000000E+00  0.00000000E+00  1.00000000E+00  0.00000000E+00  0.00000000E+00
  0.00000000E+00  0.00000000E+00  1.00000000E+00  0.00000000E+00  0.00000000E+00
  0.00000000E+00  0.00000000E+00  1.00000000E+00  0.00000000E+00  0.00000000E+00
  0.00000000E+00  0.00000000E+00  1.00000000E+00  0.00000000E+00  0.00000000E+00
  0.00000000E+00  0.00000000E+00  1.00000000E+00  0.00000000E+00  0.00000000E+00
  0.00000000E+00  0.00000000E+00  1.00000000E+00  0.00000000E+00  0.00000000E+00
  0.00000000E+00  0.00000000E+00  0.00000000E+00  1.00000000E+00  1.00000000E+00
  0.00000000E+00  1.00000000E+00  0.00000000E+00  0.00000000E+00  0.00000000E+00
  0.00000000E+00  0.00000000E+00  0.00000000E+00  0.00000000E+00  0.00000000E+00
  0.00000000E+00  0.00000000E+00
MxBond                                     I                3
NBond                                      I   N=           6
           3           2           2           1           1           1
IBond                                      I   N=          18
           2           4           5           1           3           0
           2           6           0           1           0           0
           1           0           0           3           0           0
RBond                                      R   N=          18
  2.00000000E+00  1.00000000E+00  1.00000000E+00  2.00000000E+00  2.00000000E+00
  0.00000000E+00  2.00000000E+00  1.00000000E+00  0.00000000E+00  1.00000000E+00
  0.00000000E+00  0.00000000E+00  1.00000000E+00  0.00000000E+00  0.00000000E+00
  1.00000000E+00  0.00000000E+00  0.00000000E+00
Virial Ratio                               R      2.000094880210637E+00
SCF Energy                                 R     -4.915601272507184E+02
Total Energy                               R     -4.915601272507184E+02
S**2                                       R      6.160336561376987E-01
S**2 after annihilation                    R      1.060348639494004E-01
RMS Force                                  R      1.349855593734524E-02
RMS Density                                R      1.545976930818961E-09
Job Status                                 I                1
Nuclear derivative order                   I                1
External E-field                           R   N=          35
  0.00000000E+00  0.00000000E+00  0.00000000E+00  0.00000000E+00  0.00000000E+00
  0.00000000E+00  0.00000000E+00  0.00000000E+00  0.00000000E+00  0.00000000E+00
  0.00000000E+00  0.00000000E+00  0.00000000E+00  0.00000000E+00  0.00000000E+00
  0.00000000E+00  0.00000000E+00  0.00000000E+00  0.00000000E+00  0.00000000E+00
  0.00000000E+00  0.00000000E+00  0.00000000E+00  0.00000000E+00  0.00000000E+00
  0.00000000E+00  0.00000000E+00  0.00000000E+00  0.00000000E+00  0.00000000E+00
  0.00000000E+00  0.00000000E+00  0.00000000E+00  0.00000000E+00  0.00000000E+00
IOpCl                                      I                1
IROHF                                      I                0
Alpha Orbital Energies                     R   N=         147
 -9.20271365E+01 -1.55818359E+01 -1.12528553E+01 -9.02604108E+00 -6.70950240E+00
 -6.70784918E+00 -6.70568344E+00 -1.23857934E+00 -1.01897307E+00 -8.04726814E-01
 -6.64374750E-01 -6.31662694E-01 -5.58617041E-01 -5.01627551E-01 -4.54009925E-01
 -3.69281442E-01  6.37741878E-02  6.95883343E-02  7.54790979E-02  7.87778306E-02
  9.54443998E-02  1.35458236E-01  1.45813979E-01  1.54647689E-01  1.93277837E-01
  2.12773162E-01  2.17159404E-01  2.35698242E-01  2.61506607E-01  2.71416594E-01
  2.74686126E-01  2.81286810E-01  2.90016348E-01  3.03757389E-01  3.16987888E-01
  3.29752092E-01  3.39922297E-01  3.56698388E-01  3.62663972E-01  3.96871651E-01
  3.99777135E-01  4.10839824E-01  4.31286396E-01  4.38504251E-01  4.59207382E-01
  4.75090957E-01  4.94295814E-01  4.95258837E-01  5.07455123E-01  5.32692945E-01
  5.57427028E-01  5.77883605E-01  5.78617110E-01  6.15547120E-01  6.53644296E-01
  6.70659050E-01  7.06469748E-01  7.08297277E-01  7.28439236E-01  7.64565214E-01
  7.94854115E-01  8.30517270E-01  8.39889552E-01  8.48996311E-01  8.83961070E-01
  8.96038562E-01  8.98827715E-01  9.85985100E-01  1.02043573E+00  1.04779652E+00
  1.05113833E+00  1.07748488E+00  1.19557147E+00  1.24368359E+00  1.28400553E+00
  1.35001038E+00  1.36164482E+00  1.50213862E+00  1.55166579E+00  1.55492403E+00
  1.70318388E+00  1.84757183E+00  1.85943710E+00  1.88132884E+00  1.89220747E+00
  1.89385151E+00  1.94790523E+00  1.95096773E+00  1.99338377E+00  2.05244927E+00
  2.10821317E+00  2.12432644E+00  2.13102798E+00  2.14617196E+00  2.15197147E+00
  2.21781488E+00  2.24276204E+00  2.26498613E+00  2.33357328E+00  2.38026583E+00
  2.41169943E+00  2.46927786E+00  2.49075671E+00  2.53230827E+00  2.60333216E+00
  2.67233536E+00  2.80335252E+00  2.80862960E+00  2.83489495E+00  2.94832489E+00
  2.95754681E+00  2.99072450E+00  3.08545406E+00  3.08951264E+00  3.20980129E+00
  3.45418783E+00  3.46874490E+00  3.49676955E+00  3.50358399E+00  3.53854204E+00
  3.61643336E+00  3.70541122E+00  3.79114145E+00  3.84936364E+00  3.91466574E+00
  4.03257175E+00  4.13531548E+00  4.35664053E+00  4.44612935E+00  4.56653791E+00
  4.66187242E+00  4.70549962E+00  4.86460561E+00  4.93921365E+00  5.02508815E+00
  5.13654243E+00  5.22713029E+00  5.31970669E+00  5.49205857E+00  5.64476986E+00
  5.98275967E+00  9.60760306E+00  9.94462029E+00  1.02828811E+01  2.15948322E+01
  2.33073498E+01  3.33499246E+01
Beta Orbital Energies                      R   N=         147
 -9.20252235E+01 -1.55600954E+01 -1.12714209E+01 -9.02422231E+00 -6.70654238E+00
 -6.70496219E+00 -6.70189676E+00 -1.20476405E+00 -1.02700744E+00 -8.10431991E-01
 -6.62435088E-01 -6.39165178E-01 -5.12089367E-01 -4.86179548E-01 -4.39827565E-01
 -3.44129455E-01  6.37579440E-02  6.81327411E-02  7.88497252E-02  8.18705730E-02
  8.60779023E-02  1.35323268E-01  1.46238579E-01  1.55660660E-01  1.93008480E-01
  2.17294309E-01  2.26488701E-01  2.34741610E-01  2.39200104E-01  2.61048553E-01
  2.76507024E-01  2.79604648E-01  2.88702678E-01  3.01981159E-01  3.18490082E-01
  3.35455456E-01  3.39996596E-01  3.56402534E-01  3.61565336E-01  3.95408648E-01
  3.99827409E-01  4.04631599E-01  4.29892188E-01  4.38875640E-01  4.57697840E-01
  4.77080100E-01  4.82203581E-01  4.94457972E-01  5.06394695E-01  5.32823262E-01
  5.58606524E-01  5.77086808E-01  5.77458868E-01  6.17187661E-01  6.46775304E-01
  6.50744661E-01  7.03173371E-01  7.28573308E-01  7.29392852E-01  7.81618238E-01
  7.93321753E-01  8.27522142E-01  8.37898475E-01  8.71154335E-01  8.82358696E-01
  8.94554390E-01  9.04503161E-01  9.85901075E-01  1.01938313E+00  1.02159717E+00
  1.04656969E+00  1.08109237E+00  1.16667439E+00  1.23870130E+00  1.27396653E+00
  1.34319936E+00  1.35876585E+00  1.53095727E+00  1.57718689E+00  1.57921239E+00
  1.70974638E+00  1.81739044E+00  1.85176961E+00  1.88054521E+00  1.88944129E+00
  1.89367633E+00  1.94096176E+00  1.96001155E+00  1.99895255E+00  2.05101064E+00
  2.09992278E+00  2.11519615E+00  2.13100556E+00  2.14279663E+00  2.15489841E+00
  2.21539441E+00  2.24741093E+00  2.26773705E+00  2.35302390E+00  2.37892242E+00
  2.41135098E+00  2.46916754E+00  2.49795111E+00  2.53600756E+00  2.60158167E+00
  2.67345505E+00  2.80004512E+00  2.83339542E+00  2.85809458E+00  2.94481013E+00
  2.95370160E+00  2.99359422E+00  3.07172185E+00  3.09640354E+00  3.20678722E+00
  3.41254816E+00  3.44189085E+00  3.46071689E+00  3.50096168E+00  3.51558475E+00
  3.61983905E+00  3.69950426E+00  3.77111617E+00  3.84150096E+00  3.89545777E+00
  4.02842521E+00  4.12574764E+00  4.38241544E+00  4.46747007E+00  4.56173319E+00
  4.68698431E+00  4.73686486E+00  4.87854752E+00  4.94437332E+00  5.02940707E+00
  5.18511164E+00  5.27011327E+00  5.36111866E+00  5.50464460E+00  5.66161202E+00
  5.99034697E+00  9.61449861E+00  9.94547054E+00  1.02839697E+01  2.15971086E+01
  2.32949368E+01  3.33633473E+01
Alpha MO coefficients                      R   N=       21609
  1.08722546E-06 -7.94610674E-06  6.33557197E-04 -2.27677704E-03 -6.76181958E-04
 -1.24747522E-04  1.67745211E-04  9.24316212E-07 -3.41454018E-06 -1.93578018E-03
  1.00701361E-04  1.13109730E-04  1.04441237E-03  6.38924699E-05  1.72101891E-05
  3.61236010E-05  5.19615190E-06 -5.72617331E-06 -5.79532846E-05  3.33934861E-06
  4.57299434E-04  7.86780603E-05  8.01207999E-05 -8.64171254E-04  6.06735814E-05
 -3.39352401E-04  2.67375740E-04 -6.40928377E-04  1.10922971E-03  4.49948260E-04
 -1.49350985E-05  1.79915406E-04 -2.27026077E-06  1.87136516E-05 -5.51710952E-06
 -2.29668615E-04  9.64430093E-06  9.98653793E-01 -2.86711267E-02 -7.74096563E-03
  3.40310163E-03  3.64824936E-05 -2.93985412E-04 -4.84035061E-05  9.90119335E-05
  6.66902648E-05  1.82769451E-05 -8.63960899E-05 -5.76180008E-05  1.24430192E-04
 -8.10096263E-05 -5.65929541E-05 -1.07343781E-03  1.08875499E-03  7.46281189E-04
  7.65799635E-04 -2.57979726E-04 -1.89109883E-04  2.73335129E-05 -1.01661661E-05
 -7.38160286E-06 -1.15806841E-04  5.41281602E-05  1.24062608E-04  9.04667369E-05
  9.52774883E-05 -5.50634047E-04  3.13974257E-04  3.90312808E-04  5.95120514E-04
  5.39705239E-04  8.51874804E-06  1.22984436E-04 -1.26665808E-06 -2.32913186E-05
  1.84303974E-04 -1.48721548E-04  1.62416573E-04  7.67021464E-06 -5.26527801E-05
  2.19069132E-04 -3.72207591E-04  5.72486956E-05  1.21881451E-05 -4.39391254E-05
  5.75032717E-04 -1.53676232E-03 -2.90178468E-04 -1.10063879E-04 -8.90499054E-05
 -1.26974216E-04 -8.18931079E-05  5.95954317E-04  8.92431429E-04  5.76298985E-04
 -7.11066617E-05  5.78656197E-04  3.84700575E-04 -3.08325187E-06  1.66679733E-05
  1.68923989E-05 -1.03293048E-05  2.53931641E-05  1.05319297E-04 -3.03589526E-04
 -3.86459459E-04  1.70076609E-04 -4.68183172E-04 -1.86578133E-05  9.96147175E-06
 -7.73812816E-05  9.71669583E-05  1.79068366E-05 -9.71751154E-05  7.45690161E-06
  4.24715452E-06 -4.00992072E-05  1.26771023E-04 -1.04841341E-04  4.47242991E-05
 -6.31200390E-06 -9.81573254E-05  9.77891502E-04 -3.42595449E-05  9.01295554E-06
  6.78831702E-06  7.24822961E-04 -2.71170579E-04 -1.96885090E-04  1.22822588E-05
 -1.90019499E-04  2.08525961E-03 -6.88033373E-05 -1.45097203E-05 -7.95415622E-06
  4.68949841E-04  1.72337632E-04  1.02765008E-04 -3.01192345E-05 -1.21747785E-04
 -4.56630731E-04  1.40229130E-05  2.67890782E-05  1.73913892E-05 -6.72045817E-05
  1.64407495E-04  1.10421005E-04  2.45865061E-06 -8.80309481E-06  6.32218051E-05
  3.68107574E-04 -1.93980023E-03  6.35772922E-04 -1.63938313E-05  1.55252929E-05
  1.06704885E-05  8.34141669E-04  1.30624998E-05 -1.13965528E-05 -2.13258184E-03
 -7.97223727E-04 -4.76368454E-04 -2.46324056E-05  2.22633952E-05  2.59195305E-05
  1.87914621E-05  3.64715465E-05 -1.38020139E-06 -1.14316244E-04 -3.51646846E-04
  3.09900215E-04 -1.69756554E-04  2.98837857E-04  3.54046412E-04  4.94579285E-04
 -9.63937106E-04  4.92741634E-04  1.31990926E-05  2.92756802E-06  5.60189146E-06
 -1.06469987E-05  5.86428262E-07 -2.31105430E-06 -2.46292160E-05  3.21547178E-05
 -4.92367161E-05 -2.52061937E-04  2.22335372E-04  7.06414318E-04 -1.93834258E-03
 -2.85584130E-05 -3.91445112E-05 -2.52197298E-05  2.98215059E-05 -1.30968407E-05
 -9.38570627E-06 -1.56068922E-04 -3.09896263E-05 -1.67575381E-05  1.44727435E-03
  1.32642847E-03  8.43068683E-04 -2.94997036E-03 -1.45081903E-03 -8.89282632E-04
 -1.10422375E-04 -1.60539309E-04 -1.03576893E-04 -2.87555132E-05  1.08116642E-04
  1.53427828E-04 -8.90890695E-05  1.65530994E-04  7.31769776E-06  3.35149628E-04
  6.78204273E-04 -6.14801341E-04  4.99642582E-04  2.74664683E-04 -5.10356321E-04
 -4.16777531E-04 -8.03934252E-05 -8.00981414E-04 -1.19991056E-04 -2.77990391E-05
  4.52859268E-05 -1.47314162E-04  1.06621163E-04 -4.20688354E-05 -4.99582389E-05
  4.48793383E-01  6.29972203E-01  2.24074340E-02 -1.31198824E-02  1.50301339E-02
  4.37181780E-03 -2.33706531E-03 -3.66686382E-04 -1.86356512E-04  2.42183181E-03
  1.01533581E-03  6.13611175E-04 -2.97397456E-03  6.33065809E-04  4.90847007E-04
  1.96984574E-04  4.00139285E-05 -2.52706123E-04 -1.29000700E-04  3.72384465E-05
  1.11266614E-04 -3.14808497E-04 -3.11527950E-04  9.70889426E-05 -4.86361974E-04
 -1.09940659E-04 -1.36801576E-04  7.84455311E-04 -4.65077084E-04 -1.97659183E-04
 -5.79573084E-05 -1.29974690E-05  4.39987487E-10 -1.15613217E-05 -2.98199130E-05
  3.23329219E-05  4.23569669E-05  4.58438575E-05  4.64059815E-04 -2.31454366E-03
  4.30252728E-05  6.02563131E-05  3.88489378E-05  4.14085466E-06 -1.32342828E-04
 -8.76740651E-05  8.75071476E-06  3.46042280E-04  4.85070858E-04  1.31479746E-04
 -2.07572142E-05 -1.68996351E-05 -3.02864883E-04 -4.66635947E-04 -3.01608287E-04
  2.66705206E-04 -2.58981651E-04 -9.20678687E-03 -1.07378887E-04  6.31895921E-06
  6.77626182E-06 -1.53074653E-03  1.69436009E-03  1.15850803E-03  4.67789544E-01
  6.12812702E-01  1.86394185E-02 -9.81459215E-03  2.54405757E-02 -2.88540828E-04
  3.74962312E-04 -1.45670259E-05 -1.85543106E-05 -2.68453912E-04  4.61367853E-06
  9.46210110E-06 -4.20649064E-03 -1.52795495E-03 -9.10062132E-04 -5.67471562E-04
 -5.04761631E-05  8.13358739E-04  2.93889881E-04 -1.03526759E-05 -5.45404278E-05
 -2.46120434E-05  2.03276394E-04 -7.63842537E-05 -3.15956478E-05 -1.73630185E-04
 -7.09122243E-05  2.52208978E-03 -1.83527723E-03 -1.02286852E-04  1.89910222E-06
 -1.21904790E-04  3.50820254E-06  8.62579069E-06 -3.80085255E-04  4.19932956E-04
  2.26089702E-05 -2.44977034E-05  1.95291327E-05  4.97307519E-05  2.77995307E-05
  2.68324231E-03 -3.73172908E-04  6.00762155E-05 -1.22071010E-05 -9.52101031E-06
 -3.10522847E-05  1.35928661E-05  9.74040066E-06 -1.27533663E-04 -5.08209295E-05
 -3.05702998E-05 -6.48293304E-05  2.66557982E-04  1.77964195E-04  9.34265529E-05
  1.34873625E-03  8.90256378E-04 -9.83832411E-05 -3.53876857E-05 -2.10601936E-05
  3.22486544E-05  1.07312795E-05 -2.81854218E-05 -3.26175313E-05  1.23185910E-05
  1.80977667E-05 -2.03232281E-06  1.23696956E-04 -1.36161180E-04 -6.15212519E-06
  2.18561537E-04 -4.05390208E-04 -2.47388199E-04 -1.35702847E-04 -6.36831339E-04
 -4.66115876E-07 -1.24221326E-04  1.76006926E-05 -5.40021222E-05 -3.93811960E-06
  1.65082361E-04 -4.29472916E-05  2.81321523E-06 -2.57817085E-06  7.09593604E-05
 -3.82956866E-05 -5.80112935E-04  5.78485170E-04 -1.14205437E-05  6.72849409E-06
  4.73153244E-06  1.34812504E-04 -5.79381895E-05 -4.16018418E-05  7.37394668E-04
  8.92343782E-04  5.72938930E-04 -1.00090104E-05  5.71457509E-06  8.71160434E-06
  9.44677340E-06  9.81173384E-06  6.72299040E-05 -2.52633741E-05 -4.93097097E-05
 -7.23123753E-05 -4.61932820E-05  9.23665083E-05 -2.33034670E-04 -1.38596809E-04
 -2.35856981E-05 -3.61872306E-04 -6.10520605E-06 -9.83896532E-06 -4.09665852E-06
  7.32826680E-06  6.97689698E-06  6.81813527E-06  1.53336833E-05  4.60512534E-07
  5.24239167E-05 -1.27092932E-02 -1.31177928E-04 -2.17901381E-04 -1.41063263E-04
 -1.72903226E-03 -1.08342327E-03 -6.75465898E-04 -1.20451172E-05  7.55035730E-05
 -1.03753339E-02 -1.60183249E-04  2.14148139E-04  1.45586828E-04 -1.54361997E-03
  7.09921160E-04  5.07038500E-04 -6.39700020E-06  1.98001713E-04 -1.78021542E-03
  6.74473484E-06 -3.11180121E-05 -2.07618083E-05  2.05516566E-04  4.62007590E-04
  3.00906314E-04 -1.49082102E-04 -2.40352226E-04  1.69361975E-04  1.66441014E-05
  1.16448264E-03  2.82501486E-04  2.10134253E-04  1.41852614E-06 -4.10860805E-06
 -3.20339916E-04 -1.63047386E-05 -3.09203666E-06  3.22503363E-03  1.64570882E-04
  3.14631733E-05 -1.50726541E-05  1.81379827E-07 -4.85430898E-06  3.01448890E-05
  2.19870591E-06  2.38112719E-06  1.28248490E-05  1.04646843E-04 -9.39503638E-05
  1.83213801E-05 -4.87370417E-04 -1.04422899E-04 -8.23685476E-04  1.54925048E-03