0004_q000_m01_k00_opt_uwb97xd_def2svpd/0004_q000_m01_k00_force_ub3lyp_de
Force     UB3LYP                                                      Gen                 
Number of atoms                            I                6
Info1-9                                    I   N=           9
          13           9           0           0           0         100
           5          18        -502
Full Title                                 C   N=           8
0004_q000_m01_k00_opt_uwb97xd_def2svpd/0004_q000_m01_k00_for
ce_ub3lyp_def2tzvpd stable-force    
Route                                      C   N=          15
#p ub3lyp/chkbasis force guess=read geom=check scf=(maxcycle
=900,verytightlineq,xqc) integral=grid=ultrafine symmetry=No
ne density=current pop=(cm5,hlygat,mbs,npa) output=wfx      
Charge                                     I                0
Multiplicity                               I                1
Number of electrons                        I               32
Number of alpha electrons                  I               16
Number of beta electrons                   I               16
Number of basis functions                  I              147
Number of independent functions            I              147
Number of point charges in /Mol/           I                0
Number of translation vectors              I                0
Atomic numbers                             I   N=           6
           6          16           7           1           1           1
Nuclear charges                            R   N=           6
  6.00000000E+00  1.60000000E+01  7.00000000E+00  1.00000000E+00  1.00000000E+00
  1.00000000E+00
Current cartesian coordinates              R   N=          18
  1.67863146E+00  2.68784369E-01  2.05840898E-01  4.73702225E+00  1.96852105E-01
  8.48289160E-02  6.24221873E+00  2.32416928E+00  1.45652951E+00  7.09165380E-01
 -1.25729983E+00 -7.80890272E-01  6.12793001E-01  1.72884379E+00  1.19782199E+00
  5.12841835E+00  3.62849725E+00  2.34675860E+00
Number of symbols in /Mol/                 I                0
Int Atom Types                             I   N=           6
           0           0           0           0           0           0
Force Field                                I                0
Atom Types                                 C   N=           6
                                                            
            
MM charges                                 R   N=           6
  0.00000000E+00  0.00000000E+00  0.00000000E+00  0.00000000E+00  0.00000000E+00
  0.00000000E+00
Integer atomic weights                     I   N=           6
          12          32          14           1           1           1
Real atomic weights                        R   N=           6
  1.20000000E+01  3.19720718E+01  1.40030740E+01  1.00782504E+00  1.00782504E+00
  1.00782504E+00
Atom fragment info                         I   N=           6
           0           0           0           0           0           0
Atom residue num                           I   N=           6
           0           0           0           0           0           0
Nuclear spins                              I   N=           6
           0           0           2           1           1           1
Nuclear ZEff                               R   N=           6
 -3.60000000E+00 -1.36000000E+01 -4.55000000E+00 -1.00000000E+00 -1.00000000E+00
 -1.00000000E+00
Nuclear ZNuc                               R   N=           6
  6.00000000E+00  1.60000000E+01  7.00000000E+00  1.00000000E+00  1.00000000E+00
  1.00000000E+00
Nuclear QMom                               R   N=           6
  0.00000000E+00  0.00000000E+00  2.04400000E+00  0.00000000E+00  0.00000000E+00
  0.00000000E+00
Nuclear GFac                               R   N=           6
  0.00000000E+00  0.00000000E+00  4.03761000E-01  2.79284600E+00  2.79284600E+00
  2.79284600E+00
MicOpt                                     I   N=           6
          -1          -1          -1          -1          -1          -1
Number of residues                         I                0
Number of secondary structures             I                0
Number of contracted shells                I               57
Number of primitive shells                 I               95
Pure/Cartesian d shells                    I                0
Pure/Cartesian f shells                    I                0
Highest angular momentum                   I                3
Largest degree of contraction              I                7
Shell types                                I   N=          57
           0           0           0           0           0           0
           1           1           1          -2          -2          -2
          -3           0           0           0           0           0
           0           1           1           1           1           1
           1          -2          -2          -2          -3           0
           0           0           0           0           0           1
           1           1          -2          -2          -2          -3
           0           0           0           1           1           0
           0           0           1           1           0           0
           0           1           1
Number of primitives per shell             I   N=          57
           6           2           1           1           1           1
           4           1           1           1           1           1
           1           7           3           2           1           1
           1           5           1           1           1           1
           1           2           1           1           1           6
           2           1           1           1           1           4
           1           1           1           1           1           1
           3           1           1           1           1           3
           1           1           1           1           3           1
           1           1           1
Shell to atom map                          I   N=          57
           1           1           1           1           1           1
           1           1           1           1           1           1
           1           2           2           2           2           2
           2           2           2           2           2           2
           2           2           2           2           2           3
           3           3           3           3           3           3
           3           3           3           3           3           3
           4           4           4           4           4           5
           5           5           5           5           6           6
           6           6           6
Primitive exponents                        R   N=          95
  1.35753497E+04  2.03523337E+03  4.63225624E+02  1.31200196E+02  4.28530159E+01
  1.55841858E+01  6.20671385E+00  2.57648965E+00  5.76963394E-01  2.29728314E-01
  9.51644400E-02  4.84754014E-02  3.46972322E+01  7.95826228E+00  2.37808269E+00
  8.14332082E-01  2.88875473E-01  1.00568237E-01  1.09700000E+00  3.18000000E-01
  9.09853364E-02  7.61000000E-01  6.07009281E+04  9.10261069E+03  2.07141660E+03
  5.86024768E+02  1.90553950E+02  6.76303843E+01  2.51273069E+01  1.12574630E+02
  3.47955542E+01  6.51155562E+00  3.23990323E+00  1.54771609E+00  4.05410301E-01
  1.45506511E-01  5.01788395E-02  5.64367160E+02  1.33426244E+02  4.24682712E+01
  1.56165276E+01  6.10939885E+00  2.44041602E+00  8.38822013E-01  3.12887469E-01
  1.07701090E-01  3.03598336E-02  3.75600000E+00  8.12000000E-01  2.73000000E-01
  8.15470250E-02  5.57000000E-01  1.97308006E+04  2.95789587E+03  6.73221336E+02
  1.90682495E+02  6.22954419E+01  2.26541612E+01  8.97914774E+00  3.68630024E+00
  8.46600768E-01  3.36471338E-01  1.36476537E-01  6.84416058E-02  4.92003805E+01
  1.13467905E+01  3.42739724E+00  1.17855251E+00  4.16422050E-01  1.42608260E-01
  1.65400000E+00  4.69000000E-01  1.28296421E-01  1.09300000E+00  3.40613410E+01
  5.12357460E+00  1.16466260E+00  3.27230410E-01  1.03072410E-01  8.00000000E-01
  9.57741296E-02  3.40613410E+01  5.12357460E+00  1.16466260E+00  3.27230410E-01
  1.03072410E-01  8.00000000E-01  9.57741296E-02  3.40613410E+01  5.12357460E+00
  1.16466260E+00  3.27230410E-01  1.03072410E-01  8.00000000E-01  9.57741296E-02
Contraction coefficients                   R   N=          95
  6.06455036E-04  4.69790889E-03  2.43324776E-02  9.73999683E-02  3.01955843E-01
  6.62336091E-01  6.55953085E-01  3.75856333E-01  1.00000000E+00  1.00000000E+00
  1.00000000E+00  1.00000000E+00  1.13272200E-02  7.61696592E-02  3.01922522E-01
  7.27850273E-01  1.00000000E+00  1.00000000E+00  1.00000000E+00  1.00000000E+00
  1.00000000E+00  1.00000000E+00  5.23800749E-04  4.05063268E-03  2.08270042E-02
  8.14968503E-02  2.37491138E-01  4.47261715E-01  3.48919184E-01  1.00455699E-01
  4.33911729E-01 -1.20843306E+00  6.74981294E-01  3.47087958E-01  1.00000000E+00
  1.00000000E+00  1.00000000E+00  3.48869236E-03  2.76851268E-02  1.26594002E-01
  3.61659257E-01  6.12220344E-01  1.00000000E+00  1.00000000E+00  1.00000000E+00
  1.00000000E+00  1.00000000E+00  1.82851975E-01  9.14259873E-01  1.00000000E+00
  1.00000000E+00  1.00000000E+00  5.86264026E-04  4.54288206E-03  2.35584135E-02
  9.47091933E-02  2.97197849E-01  6.69162469E-01  6.45966836E-01  3.87005744E-01
  1.00000000E+00  1.00000000E+00  1.00000000E+00  1.00000000E+00  1.14488251E-02
  7.84223380E-02  3.08180947E-01  7.20271964E-01  1.00000000E+00  1.00000000E+00
  1.00000000E+00  1.00000000E+00  1.00000000E+00  1.00000000E+00  2.54393072E-02
  1.90085949E-01  8.52441130E-01  1.00000000E+00  1.00000000E+00  1.00000000E+00
  1.00000000E+00  2.54393072E-02  1.90085949E-01  8.52441130E-01  1.00000000E+00
  1.00000000E+00  1.00000000E+00  1.00000000E+00  2.54393072E-02  1.90085949E-01
  8.52441130E-01  1.00000000E+00  1.00000000E+00  1.00000000E+00  1.00000000E+00
Coordinates of each shell                  R   N=         171
  1.67863146E+00  2.68784369E-01  2.05840898E-01  1.67863146E+00  2.68784369E-01
  2.05840898E-01  1.67863146E+00  2.68784369E-01  2.05840898E-01  1.67863146E+00
  2.68784369E-01  2.05840898E-01  1.67863146E+00  2.68784369E-01  2.05840898E-01
  1.67863146E+00  2.68784369E-01  2.05840898E-01  1.67863146E+00  2.68784369E-01
  2.05840898E-01  1.67863146E+00  2.68784369E-01  2.05840898E-01  1.67863146E+00
  2.68784369E-01  2.05840898E-01  1.67863146E+00  2.68784369E-01  2.05840898E-01
  1.67863146E+00  2.68784369E-01  2.05840898E-01  1.67863146E+00  2.68784369E-01
  2.05840898E-01  1.67863146E+00  2.68784369E-01  2.05840898E-01  4.73702225E+00
  1.96852105E-01  8.48289160E-02  4.73702225E+00  1.96852105E-01  8.48289160E-02
  4.73702225E+00  1.96852105E-01  8.48289160E-02  4.73702225E+00  1.96852105E-01
  8.48289160E-02  4.73702225E+00  1.96852105E-01  8.48289160E-02  4.73702225E+00
  1.96852105E-01  8.48289160E-02  4.73702225E+00  1.96852105E-01  8.48289160E-02
  4.73702225E+00  1.96852105E-01  8.48289160E-02  4.73702225E+00  1.96852105E-01
  8.48289160E-02  4.73702225E+00  1.96852105E-01  8.48289160E-02  4.73702225E+00
  1.96852105E-01  8.48289160E-02  4.73702225E+00  1.96852105E-01  8.48289160E-02
  4.73702225E+00  1.96852105E-01  8.48289160E-02  4.73702225E+00  1.96852105E-01
  8.48289160E-02  4.73702225E+00  1.96852105E-01  8.48289160E-02  4.73702225E+00
  1.96852105E-01  8.48289160E-02  6.24221873E+00  2.32416928E+00  1.45652951E+00
  6.24221873E+00  2.32416928E+00  1.45652951E+00  6.24221873E+00  2.32416928E+00
  1.45652951E+00  6.24221873E+00  2.32416928E+00  1.45652951E+00  6.24221873E+00
  2.32416928E+00  1.45652951E+00  6.24221873E+00  2.32416928E+00  1.45652951E+00
  6.24221873E+00  2.32416928E+00  1.45652951E+00  6.24221873E+00  2.32416928E+00
  1.45652951E+00  6.24221873E+00  2.32416928E+00  1.45652951E+00  6.24221873E+00
  2.32416928E+00  1.45652951E+00  6.24221873E+00  2.32416928E+00  1.45652951E+00
  6.24221873E+00  2.32416928E+00  1.45652951E+00  6.24221873E+00  2.32416928E+00
  1.45652951E+00  7.09165380E-01 -1.25729983E+00 -7.80890272E-01  7.09165380E-01
 -1.25729983E+00 -7.80890272E-01  7.09165380E-01 -1.25729983E+00 -7.80890272E-01
  7.09165380E-01 -1.25729983E+00 -7.80890272E-01  7.09165380E-01 -1.25729983E+00
 -7.80890272E-01  6.12793001E-01  1.72884379E+00  1.19782199E+00  6.12793001E-01
  1.72884379E+00  1.19782199E+00  6.12793001E-01  1.72884379E+00  1.19782199E+00
  6.12793001E-01  1.72884379E+00  1.19782199E+00  6.12793001E-01  1.72884379E+00
  1.19782199E+00  5.12841835E+00  3.62849725E+00  2.34675860E+00  5.12841835E+00
  3.62849725E+00  2.34675860E+00  5.12841835E+00  3.62849725E+00  2.34675860E+00
  5.12841835E+00  3.62849725E+00  2.34675860E+00  5.12841835E+00  3.62849725E+00
  2.34675860E+00
Num ILSW                                   I              100
ILSW                                       I   N=         100
           1           0           0           0           2           0
           0           0           0           0         402          -1
           5           0           0           0           2           0
           0           0           0           0           1           0
           1           1           0           0           0           0
           0           0      100000           0          -1           0
           0           0           0           0           0           0
           0           0           0           1           0           0
           0 -2000000000           1           0           0           0
           0           0           4          52           0           0
           0           0           5           0           0           0
           0           0           0           6           0           1
           0           0           0           0           0           0
           0           0           0           0           0           0
           0           0           0           0           0           0
           0           0           0           0           0           0
           0           0           0           0
Num RLSW                                   I               52
RLSW                                       R   N=          52
  8.00000000E-01  7.20000000E-01  1.00000000E+00  8.10000000E-01  2.00000000E-01
  0.00000000E+00  0.00000000E+00  1.00000000E+00  0.00000000E+00  0.00000000E+00
  0.00000000E+00  0.00000000E+00  1.00000000E+00  0.00000000E+00  0.00000000E+00
  0.00000000E+00  0.00000000E+00  1.00000000E+00  0.00000000E+00  0.00000000E+00
  0.00000000E+00  0.00000000E+00  1.00000000E+00  0.00000000E+00  0.00000000E+00
  0.00000000E+00  0.00000000E+00  1.00000000E+00  0.00000000E+00  0.00000000E+00
  0.00000000E+00  0.00000000E+00  1.00000000E+00  0.00000000E+00  0.00000000E+00
  0.00000000E+00  0.00000000E+00  0.00000000E+00  1.00000000E+00  1.00000000E+00
  0.00000000E+00  1.00000000E+00  0.00000000E+00  0.00000000E+00  0.00000000E+00
  0.00000000E+00  0.00000000E+00  0.00000000E+00  0.00000000E+00  0.00000000E+00
  0.00000000E+00  0.00000000E+00
MxBond                                     I                3
NBond                                      I   N=           6
           3           2           2           1           1           1
IBond                                      I   N=          18
           2           4           5           1           3           0
           2           6           0           1           0           0
           1           0           0           3           0           0
RBond                                      R   N=          18
  2.00000000E+00  1.00000000E+00  1.00000000E+00  2.00000000E+00  2.00000000E+00
  0.00000000E+00  2.00000000E+00  1.00000000E+00  0.00000000E+00  1.00000000E+00
  0.00000000E+00  0.00000000E+00  1.00000000E+00  0.00000000E+00  0.00000000E+00
  1.00000000E+00  0.00000000E+00  0.00000000E+00
Virial Ratio                               R      2.002506793504924E+00
SCF Energy                                 R     -4.928542422931085E+02
Total Energy                               R     -4.928542422931085E+02
S**2                                       R     -2.486899575160351E-14
S**2 after annihilation                    R     -1.421085471520150E-14
RMS Force                                  R      3.173369269775223E-03
RMS Density                                R      1.031946996421575E-09
Job Status                                 I                1
Nuclear derivative order                   I                1
External E-field                           R   N=          35
  0.00000000E+00  0.00000000E+00  0.00000000E+00  0.00000000E+00  0.00000000E+00
  0.00000000E+00  0.00000000E+00  0.00000000E+00  0.00000000E+00  0.00000000E+00
  0.00000000E+00  0.00000000E+00  0.00000000E+00  0.00000000E+00  0.00000000E+00
  0.00000000E+00  0.00000000E+00  0.00000000E+00  0.00000000E+00  0.00000000E+00
  0.00000000E+00  0.00000000E+00  0.00000000E+00  0.00000000E+00  0.00000000E+00
  0.00000000E+00  0.00000000E+00  0.00000000E+00  0.00000000E+00  0.00000000E+00
  0.00000000E+00  0.00000000E+00  0.00000000E+00  0.00000000E+00  0.00000000E+00
IOpCl                                      I                1
IROHF                                      I                0
Alpha Orbital Energies                     R   N=         147
 -8.89473829E+01 -1.43165516E+01 -1.02098577E+01 -8.01592544E+00 -5.97744126E+00
 -5.97688126E+00 -5.97289397E+00 -9.31088287E-01 -7.68725771E-01 -6.11827954E-01
 -5.01092809E-01 -4.73806315E-01 -3.90227931E-01 -3.60627402E-01 -3.02808855E-01
 -2.44057046E-01 -7.70097582E-02  1.09278098E-03  8.77589642E-03  2.16328378E-02
  3.71180899E-02  4.38815574E-02  6.39291507E-02  7.38991061E-02  9.79629207E-02
  1.23387982E-01  1.26428251E-01  1.27947716E-01  1.60263293E-01  1.72539904E-01
  1.86255656E-01  1.89475234E-01  1.96506486E-01  2.06090176E-01  2.14781875E-01
  2.36981564E-01  2.42943743E-01  2.53560041E-01  2.65390954E-01  2.94131371E-01
  2.97719554E-01  2.98606163E-01  3.25655201E-01  3.26154689E-01  3.36961826E-01
  3.50156197E-01  3.70234180E-01  3.78447547E-01  4.06354483E-01  4.30864590E-01
  4.33367099E-01  4.53219470E-01  4.58322448E-01  4.85712451E-01  4.89666124E-01
  5.13110387E-01  5.38197726E-01  5.70705364E-01  5.85643494E-01  5.91798524E-01
  6.42152987E-01  6.51302155E-01  6.66130755E-01  6.91740779E-01  7.01789173E-01
  7.11351413E-01  7.32065727E-01  7.88486961E-01  8.12245979E-01  8.41824016E-01
  8.58301527E-01  8.94474291E-01  9.61417472E-01  1.03239401E+00  1.06508594E+00
  1.11012019E+00  1.14151280E+00  1.28416702E+00  1.31426456E+00  1.31897371E+00
  1.46030578E+00  1.52665720E+00  1.55772360E+00  1.57436613E+00  1.58094361E+00
  1.59442574E+00  1.63565803E+00  1.66967476E+00  1.68872495E+00  1.77153425E+00
  1.80539447E+00  1.82546944E+00  1.84339001E+00  1.84603667E+00  1.85107362E+00
  1.92267888E+00  1.95938096E+00  1.96510987E+00  2.02764756E+00  2.06989881E+00
  2.10592168E+00  2.16985032E+00  2.19238605E+00  2.21448992E+00  2.28419923E+00
  2.35248671E+00  2.46724333E+00  2.47298993E+00  2.52382342E+00  2.63045057E+00
  2.63217349E+00  2.66210432E+00  2.76035871E+00  2.77528510E+00  2.88592793E+00
  3.09290422E+00  3.11923804E+00  3.14472966E+00  3.15416222E+00  3.19691376E+00
  3.26009940E+00  3.35339237E+00  3.44835115E+00  3.49072508E+00  3.54748580E+00
  3.67551965E+00  3.76088490E+00  3.99024272E+00  4.07667508E+00  4.19509228E+00
  4.28568600E+00  4.32299035E+00  4.45569538E+00  4.53475282E+00  4.62507412E+00
  4.73026740E+00  4.81752183E+00  4.91230715E+00  5.06191035E+00  5.21300497E+00
  5.55812812E+00  8.86588166E+00  9.20000352E+00  9.53469529E+00  2.08266821E+01
  2.21773071E+01  3.20122724E+01
Beta Orbital Energies                      R   N=         147
 -8.89473829E+01 -1.43165516E+01 -1.02098577E+01 -8.01592544E+00 -5.97744126E+00
 -5.97688126E+00 -5.97289397E+00 -9.31088287E-01 -7.68725771E-01 -6.11827954E-01
 -5.01092809E-01 -4.73806315E-01 -3.90227931E-01 -3.60627402E-01 -3.02808855E-01
 -2.44057046E-01 -7.70097582E-02  1.09278098E-03  8.77589642E-03  2.16328378E-02
  3.71180899E-02  4.38815574E-02  6.39291507E-02  7.38991061E-02  9.79629207E-02
  1.23387982E-01  1.26428251E-01  1.27947716E-01  1.60263293E-01  1.72539904E-01
  1.86255656E-01  1.89475234E-01  1.96506486E-01  2.06090176E-01  2.14781875E-01
  2.36981564E-01  2.42943743E-01  2.53560041E-01  2.65390954E-01  2.94131371E-01
  2.97719554E-01  2.98606163E-01  3.25655201E-01  3.26154689E-01  3.36961826E-01
  3.50156197E-01  3.70234180E-01  3.78447547E-01  4.06354483E-01  4.30864590E-01
  4.33367099E-01  4.53219470E-01  4.58322448E-01  4.85712451E-01  4.89666124E-01
  5.13110387E-01  5.38197726E-01  5.70705364E-01  5.85643494E-01  5.91798524E-01
  6.42152987E-01  6.51302155E-01  6.66130755E-01  6.91740779E-01  7.01789173E-01
  7.11351413E-01  7.32065727E-01  7.88486961E-01  8.12245979E-01  8.41824016E-01
  8.58301527E-01  8.94474291E-01  9.61417472E-01  1.03239401E+00  1.06508594E+00
  1.11012019E+00  1.14151280E+00  1.28416702E+00  1.31426456E+00  1.31897371E+00
  1.46030578E+00  1.52665720E+00  1.55772360E+00  1.57436613E+00  1.58094361E+00
  1.59442574E+00  1.63565803E+00  1.66967476E+00  1.68872495E+00  1.77153425E+00
  1.80539447E+00  1.82546944E+00  1.84339001E+00  1.84603667E+00  1.85107362E+00
  1.92267888E+00  1.95938096E+00  1.96510987E+00  2.02764756E+00  2.06989881E+00
  2.10592168E+00  2.16985032E+00  2.19238605E+00  2.21448992E+00  2.28419923E+00
  2.35248671E+00  2.46724333E+00  2.47298993E+00  2.52382342E+00  2.63045057E+00
  2.63217349E+00  2.66210432E+00  2.76035871E+00  2.77528510E+00  2.88592793E+00
  3.09290422E+00  3.11923804E+00  3.14472966E+00  3.15416222E+00  3.19691376E+00
  3.26009940E+00  3.35339237E+00  3.44835115E+00  3.49072508E+00  3.54748580E+00
  3.67551965E+00  3.76088490E+00  3.99024272E+00  4.07667508E+00  4.19509228E+00
  4.28568600E+00  4.32299035E+00  4.45569538E+00  4.53475282E+00  4.62507412E+00
  4.73026740E+00  4.81752183E+00  4.91230715E+00  5.06191035E+00  5.21300497E+00
  5.55812812E+00  8.86588166E+00  9.20000352E+00  9.53469529E+00  2.08266821E+01
  2.21773071E+01  3.20122724E+01
Alpha MO coefficients                      R   N=       21609
  1.74436105E-06 -1.45892057E-05  9.68420052E-04 -3.47435066E-03 -1.04424035E-03
 -1.82548508E-04  2.58788354E-04  1.61051415E-06 -5.14568424E-06 -2.94610872E-03
  1.50815050E-04  1.70526344E-04  1.52013550E-03  8.97136570E-05  2.28773443E-05
  5.28633841E-05  7.92307335E-06 -8.82432485E-06 -8.44567634E-05  5.37069048E-06
  6.96915475E-04  1.17529307E-04  1.20676680E-04 -1.31558326E-03  8.88959979E-05
 -5.06434713E-04  4.13036443E-04 -9.56969121E-04  1.65466672E-03  6.92612462E-04
 -2.25543267E-05  2.72965491E-04 -3.51968584E-06  2.85864499E-05 -8.19185252E-06
 -3.48574537E-04  1.47546174E-05  9.99272061E-01 -3.18450646E-02 -1.14137661E-02
  5.07582316E-03  2.76224465E-04 -4.37681059E-04 -3.92804195E-05  8.97802180E-05
  6.03617273E-05 -1.69544761E-06 -8.19331551E-05 -5.41855429E-05  2.08053028E-04
 -1.64747605E-04 -1.14015252E-04 -1.64665349E-03  1.68698609E-03  1.15593809E-03
  1.13351585E-03 -3.82624159E-04 -2.80425783E-04  4.32312872E-05 -1.52699307E-05
 -1.11396310E-05 -1.73831003E-04  8.01165570E-05  1.86265233E-04  1.35848079E-04
  1.41309273E-04 -8.40885685E-04  4.76785608E-04  5.97244995E-04  9.08023912E-04
  8.20130963E-04  1.31998251E-05  1.87024519E-04 -2.50661426E-06 -3.53511090E-05
  2.80247233E-04 -2.28713300E-04  2.47604761E-04  1.16507912E-05 -8.07648803E-05
  3.36276349E-04 -5.69197203E-04  8.85749758E-05  1.84067341E-05 -6.82078357E-05
  8.73103813E-04 -2.32388265E-03 -5.00277018E-04 -1.76656640E-04 -1.37229873E-04
 -1.95564976E-04 -1.26129405E-04  9.03161580E-04  1.35474612E-03  8.74881242E-04
 -7.99016299E-05  9.02284394E-04  5.99108266E-04 -5.57410850E-06  2.68765362E-05
  2.80350727E-05 -1.62910806E-05  4.10161724E-05  1.60711067E-04 -4.61401621E-04
 -5.87659061E-04  2.57635639E-04 -7.11633393E-04 -2.56904619E-05  1.00803097E-05
 -1.21653624E-04  1.46905210E-04  1.92816373E-05 -1.46958271E-04  1.12082598E-05
  6.52111878E-06 -6.08740146E-05  1.91513179E-04 -1.58310318E-04  6.73842207E-05
 -9.14291330E-06 -1.48006617E-04  1.42342655E-03 -5.30281646E-05  1.39213358E-05
  1.04878133E-05  1.09422255E-03 -4.11171154E-04 -2.98417415E-04  1.86012252E-05
 -2.88601931E-04  3.14440438E-03 -1.03437135E-04 -2.18099662E-05 -1.19557257E-05
  6.99147627E-04  2.55029828E-04  1.51949000E-04 -4.57763899E-05 -1.84701320E-04
 -6.87941532E-04  2.03006165E-05  4.09468080E-05  2.66098581E-05 -1.00998650E-04
  2.47093676E-04  1.65955544E-04  4.38183146E-06 -2.31003290E-05  1.45567308E-04
  5.01117523E-04 -6.60553031E-03  2.87079730E-03 -5.43970143E-05  3.68663549E-05
  2.57143559E-05  1.88900719E-03 -1.95423832E-05 -5.83466217E-05 -7.62707187E-03
 -2.61680968E-03 -1.54857429E-03 -5.45888888E-05  4.26288470E-05  5.72477552E-05
  4.23262555E-05  7.07111890E-05 -1.31937436E-05 -2.33527938E-04 -7.49112285E-04
  6.77137504E-04 -3.45263201E-04  8.86268149E-04  2.44130371E-03  2.19505836E-03
 -3.58664883E-03  3.55327950E-03  4.77817952E-05 -4.65049325E-06  1.95532937E-05
 -4.04858555E-05  3.48784400E-05 -1.14210807E-05 -8.89901885E-05  6.85447577E-05
 -1.54626750E-04 -5.23826592E-04  3.15356189E-04  1.38345900E-03 -7.14737810E-03
 -1.83503242E-05 -2.99578411E-06 -1.54104481E-06  6.20865760E-05 -4.94012832E-05
 -3.41901990E-05 -4.72044451E-04 -1.15542173E-04 -6.51125276E-05  3.54403361E-03
  2.82683579E-03  1.78564548E-03 -1.28796640E-02 -6.86066596E-03 -4.23101038E-03
 -4.30390372E-05 -3.87996753E-04 -2.55702506E-04 -7.96033568E-05  2.79495848E-04
  3.66922495E-04 -1.96003806E-04  4.28794143E-04 -7.81042544E-05  7.61891479E-04
  1.27888699E-03 -1.01084449E-03  1.14952584E-03  1.23383495E-03 -2.12594635E-03
 -1.70108317E-03 -5.19490600E-04 -3.34819758E-03 -3.13517519E-04 -9.40640869E-05
  3.75862952E-05 -1.92992821E-04  3.34010181E-04 -1.31115895E-04  8.87910117E-05
  4.48316092E-01  6.26853274E-01  3.82014308E-02 -3.65227635E-02  4.96882794E-02
  1.37799173E-02 -2.24360881E-03 -5.16125524E-04 -2.87489722E-04  3.55183109E-03
  2.34688392E-03  1.46760820E-03 -6.69806225E-03  7.61231563E-04  6.65879691E-04
 -6.68498590E-05  5.28625053E-05  3.03921326E-04 -1.46636536E-04  8.60311050E-05
  2.56322359E-04 -6.33674480E-04 -1.13181377E-03  5.67913311E-04 -9.79600983E-04
 -1.06698351E-04 -5.45141884E-04  3.02250017E-03 -2.33790795E-03 -8.28622830E-04
 -1.42169626E-04 -1.62740117E-06  1.05889443E-05 -7.04795744E-05  1.85017199E-04
 -1.36335326E-04  5.39043110E-05  1.31014837E-04  8.36951197E-04 -1.01395347E-02
  8.75762089E-05  1.26215150E-04  8.14369094E-05  1.00467738E-03 -7.99106340E-04
 -5.52953908E-04  4.77940001E-05  7.20254808E-04  3.05689683E-03  2.82551201E-04
 -7.18316570E-05 -5.43401105E-05 -2.13225191E-03 -2.26966231E-03 -1.45101355E-03
  5.02172652E-04 -1.01518959E-03 -2.87518279E-02 -1.19803864E-04  9.94319363E-05
  6.87028378E-05 -5.41521646E-03  5.01928974E-03  3.45312550E-03  4.66777492E-01
  6.08521750E-01  4.02044149E-02 -3.83345368E-02  1.12185614E-01 -1.04862602E-03
  6.48279792E-04 -1.97059308E-05 -2.85026692E-05 -4.39701704E-03 -7.96087688E-05
  5.28433152E-05 -2.29546871E-02 -6.22574920E-03 -3.56857597E-03 -4.55492541E-04
 -4.87393507E-05  6.60571852E-04  2.30001125E-04 -2.07698368E-05  6.74144229E-04
 -2.50819600E-05  1.07289557E-03 -2.07328503E-03 -1.29552560E-04 -7.20236941E-04
 -2.97843969E-04  1.18487132E-02 -8.78978661E-03 -4.39256600E-04 -5.94706422E-07
  5.54852033E-05  1.08982735E-05  3.45091448E-05 -7.75388967E-04  4.64718319E-04
  2.66434483E-05 -1.84080136E-05  1.43122109E-05  3.11367794E-05 -3.74678649E-04
  1.67248650E-02 -5.41830316E-04  2.71440673E-05 -1.61390818E-05 -1.13316779E-05
 -8.04698519E-05  7.19514731E-05  4.95435599E-05  7.44855449E-06 -2.24826545E-04
 -1.48952942E-04 -2.79252281E-03  7.48920413E-04  5.62635026E-04 -2.43395950E-03
  5.31578413E-03  3.57603232E-03 -5.12641358E-04 -9.14070623E-05 -4.81869923E-05
 -7.53921018E-06  3.73896208E-05 -6.23901633E-05  6.30867627E-05  5.77256025E-05
 -5.38571175E-04 -3.74906014E-04  2.81605327E-04  7.20631824E-04 -4.99385473E-04
  9.64818324E-04 -1.95139968E-03 -1.38750085E-03 -3.35527149E-04 -3.05309748E-03
  5.42951647E-05 -3.49951519E-04  5.00882262E-05 -1.32646748E-04 -1.29769305E-04
  5.51773741E-04 -1.51368363E-04  2.05443375E-06 -1.67243931E-05  9.94708474E-05
  6.83303317E-04 -2.12277141E-03  1.93832526E-03 -6.64282944E-05  5.90936804E-05
  4.07209162E-05  1.78469347E-04 -7.57388388E-04 -5.05641995E-04  3.46961515E-03
  3.26740840E-03  2.07941608E-03 -5.95843663E-05  1.82128982E-05  3.88638722E-05
  6.85128652E-05  3.46713498E-05  3.03260838E-04  7.58774427E-05 -1.39714629E-04
 -4.11367983E-04  7.71915075E-05  4.70309595E-04 -9.95389043E-04 -7.82802605E-04
 -6.97178396E-05 -1.55394896E-03 -2.78892787E-06 -5.81016535E-05 -1.74266733E-05
  3.52806397E-05  2.25172965E-05  5.68797761E-05  5.05937143E-05 -4.15035292E-04
 -1.33368382E-03 -5.88927928E-02 -8.69578590E-04 -1.21172509E-03 -7.81079953E-04
 -7.77239981E-03 -5.20924414E-03 -3.26069947E-03 -4.50475128E-04 -1.05750420E-03
 -5.00213485E-02 -9.69512527E-04  1.13656359E-03  7.75550538E-04 -7.27617992E-03
  3.66045134E-03  2.59796496E-03 -1.14905632E-06  1.28600320E-03 -6.68993129E-03
  4.54945804E-05 -2.05695655E-04 -1.37268824E-04  1.20265533E-03  1.81586485E-03
  1.17316705E-03 -8.14346089E-05 -1.43606429E-04  2.82984960E-03 -1.04008121E-02
 -1.52115471E-03 -3.80736258E-06  7.71680671E-04  5.27942008E-06 -1.50296014E-05
 -9.47313959E-03  4.72411048E-04  5.40043143E-04  1.09325180E-02  1.04589017E-03
  4.29695051E-04  1.64359328E-04  1.94775096E-05 -2.72875336E-05 -2.62307109E-04
  8.92509809E-06  2.08901722E-03  3.72849214E-04  5.49847853E-04 -4.10477672E-03
  2.96179424E-04 -2.56760937E-03  1.32535641E-03 -4.70072055E-03  8.32126859E-03