0004_q000_m01_k00_opt_uwb97xd_def2svpd/0004_q000_m01_k00_force_ub3lyp_de
Force     UB3LYP                                                      Gen                 
Number of atoms                            I                6
Info1-9                                    I   N=           9
          13           9           0           0           0         100
           5          18        -502
Full Title                                 C   N=           8
0004_q000_m01_k00_opt_uwb97xd_def2svpd/0004_q000_m01_k00_for
ce_ub3lyp_def2svpd stable-force     
Route                                      C   N=          15
#p ub3lyp/chkbasis force guess=read geom=check scf=(maxcycle
=900,verytightlineq,xqc) integral=grid=ultrafine symmetry=No
ne density=current pop=(cm5,hlygat,mbs,npa) output=wfx      
Charge                                     I                0
Multiplicity                               I                1
Number of electrons                        I               32
Number of alpha electrons                  I               16
Number of beta electrons                   I               16
Number of basis functions                  I               91
Number of independent functions            I               91
Number of point charges in /Mol/           I                0
Number of translation vectors              I                0
Atomic numbers                             I   N=           6
           6          16           7           1           1           1
Nuclear charges                            R   N=           6
  6.00000000E+00  1.60000000E+01  7.00000000E+00  1.00000000E+00  1.00000000E+00
  1.00000000E+00
Current cartesian coordinates              R   N=          18
  1.67863146E+00  2.68784369E-01  2.05840898E-01  4.73702225E+00  1.96852105E-01
  8.48289160E-02  6.24221873E+00  2.32416928E+00  1.45652951E+00  7.09165380E-01
 -1.25729983E+00 -7.80890272E-01  6.12793001E-01  1.72884379E+00  1.19782199E+00
  5.12841835E+00  3.62849725E+00  2.34675860E+00
Number of symbols in /Mol/                 I                0
Int Atom Types                             I   N=           6
           0           0           0           0           0           0
Force Field                                I                0
Atom Types                                 C   N=           6
                                                            
            
MM charges                                 R   N=           6
  0.00000000E+00  0.00000000E+00  0.00000000E+00  0.00000000E+00  0.00000000E+00
  0.00000000E+00
Integer atomic weights                     I   N=           6
          12          32          14           1           1           1
Real atomic weights                        R   N=           6
  1.20000000E+01  3.19720718E+01  1.40030740E+01  1.00782504E+00  1.00782504E+00
  1.00782504E+00
Atom fragment info                         I   N=           6
           0           0           0           0           0           0
Atom residue num                           I   N=           6
           0           0           0           0           0           0
Nuclear spins                              I   N=           6
           0           0           2           1           1           1
Nuclear ZEff                               R   N=           6
 -3.60000000E+00 -1.36000000E+01 -4.55000000E+00 -1.00000000E+00 -1.00000000E+00
 -1.00000000E+00
Nuclear ZNuc                               R   N=           6
  6.00000000E+00  1.60000000E+01  7.00000000E+00  1.00000000E+00  1.00000000E+00
  1.00000000E+00
Nuclear QMom                               R   N=           6
  0.00000000E+00  0.00000000E+00  2.04400000E+00  0.00000000E+00  0.00000000E+00
  0.00000000E+00
Nuclear GFac                               R   N=           6
  0.00000000E+00  0.00000000E+00  4.03761000E-01  2.79284600E+00  2.79284600E+00
  2.79284600E+00
MicOpt                                     I   N=           6
          -1          -1          -1          -1          -1          -1
Number of residues                         I                0
Number of secondary structures             I                0
Number of contracted shells                I               39
Number of primitive shells                 I               67
Pure/Cartesian d shells                    I                0
Pure/Cartesian f shells                    I                0
Highest angular momentum                   I                2
Largest degree of contraction              I                5
Shell types                                I   N=          39
           0           0           0           0           1           1
          -2          -2           0           0           0           0
           0           1           1           1           1          -2
          -2           0           0           0           0           1
           1          -2          -2           0           0           1
           1           0           0           1           1           0
           0           1           1
Number of primitives per shell             I   N=          39
           5           1           1           1           3           1
           1           1           5           3           1           1
           1           5           1           1           1           1
           1           5           1           1           1           3
           1           1           1           3           1           1
           1           3           1           1           1           3
           1           1           1
Shell to atom map                          I   N=          39
           1           1           1           1           1           1
           1           1           2           2           2           2
           2           2           2           2           2           2
           2           3           3           3           3           3
           3           3           3           4           4           4
           4           5           5           5           5           6
           6           6           6
Primitive exponents                        R   N=          67
  1.23840169E+03  1.86290050E+02  4.22511763E+01  1.16765579E+01  3.59305065E+00
  4.02451474E-01  1.30901827E-01  6.70535403E-02  9.46809706E+00  2.01035451E+00
  5.47710047E-01  1.52686138E-01  8.00000000E-01  1.17131851E-01  9.18493030E+03
  1.38151055E+03  3.13871476E+02  8.80538706E+01  2.70399149E+01  4.56487313E+01
  4.96645223E+00  2.01162420E+00  3.56610770E-01  1.35072215E-01  4.49998235E-02
  2.61982334E+02  6.13068947E+01  1.91037299E+01  6.65677204E+00  2.39596352E+00
  6.17761617E-01  1.69933769E-01  4.17067937E-02  5.50000000E-01  1.01728537E-01
  1.71284159E+03  2.57648127E+02  5.84582459E+01  1.61983679E+01  5.00526008E+00
  5.87318566E-01  1.87645923E-01  9.61712415E-02  1.35714702E+01  2.92573729E+00
  7.99277508E-01  2.19543480E-01  1.00000000E+00  1.66977081E-01  1.30107010E+01
  1.96225720E+00  4.44537960E-01  1.21949620E-01  8.00000000E-01  1.17040991E-01
  1.30107010E+01  1.96225720E+00  4.44537960E-01  1.21949620E-01  8.00000000E-01
  1.17040991E-01  1.30107010E+01  1.96225720E+00  4.44537960E-01  1.21949620E-01
  8.00000000E-01  1.17040991E-01
Contraction coefficients                   R   N=          67
  5.51736505E-03  4.10888286E-02  1.82253821E-01  4.68284594E-01  4.45758173E-01
  1.00000000E+00  1.00000000E+00  1.00000000E+00  5.68883320E-02  3.12940593E-01
  7.60650165E-01  1.00000000E+00  1.00000000E+00  1.00000000E+00 -5.47294661E-03
 -4.09544022E-02 -1.84758290E-01 -4.75672806E-01 -4.34951536E-01 -9.19040458E-02
  5.56987772E-01  5.11154683E-01  1.00000000E+00  1.00000000E+00  1.00000000E+00
 -9.18305466E-03 -6.59022265E-02 -2.45877845E-01 -4.82314711E-01 -3.89563144E-01
  1.00000000E+00  1.00000000E+00  1.00000000E+00  1.00000000E+00  1.00000000E+00
 -5.44779958E-03 -4.06271746E-02 -1.81119623E-01 -4.68439756E-01 -4.46168463E-01
  1.00000000E+00  1.00000000E+00  1.00000000E+00 -5.88481170E-02 -3.20246248E-01
 -7.53282265E-01  1.00000000E+00  1.00000000E+00  1.00000000E+00  3.34854848E-02
  2.34721871E-01  8.13770285E-01  1.00000000E+00  1.00000000E+00  1.00000000E+00
  3.34854848E-02  2.34721871E-01  8.13770285E-01  1.00000000E+00  1.00000000E+00
  1.00000000E+00  3.34854848E-02  2.34721871E-01  8.13770285E-01  1.00000000E+00
  1.00000000E+00  1.00000000E+00
Coordinates of each shell                  R   N=         117
  1.67863146E+00  2.68784369E-01  2.05840898E-01  1.67863146E+00  2.68784369E-01
  2.05840898E-01  1.67863146E+00  2.68784369E-01  2.05840898E-01  1.67863146E+00
  2.68784369E-01  2.05840898E-01  1.67863146E+00  2.68784369E-01  2.05840898E-01
  1.67863146E+00  2.68784369E-01  2.05840898E-01  1.67863146E+00  2.68784369E-01
  2.05840898E-01  1.67863146E+00  2.68784369E-01  2.05840898E-01  4.73702225E+00
  1.96852105E-01  8.48289160E-02  4.73702225E+00  1.96852105E-01  8.48289160E-02
  4.73702225E+00  1.96852105E-01  8.48289160E-02  4.73702225E+00  1.96852105E-01
  8.48289160E-02  4.73702225E+00  1.96852105E-01  8.48289160E-02  4.73702225E+00
  1.96852105E-01  8.48289160E-02  4.73702225E+00  1.96852105E-01  8.48289160E-02
  4.73702225E+00  1.96852105E-01  8.48289160E-02  4.73702225E+00  1.96852105E-01
  8.48289160E-02  4.73702225E+00  1.96852105E-01  8.48289160E-02  4.73702225E+00
  1.96852105E-01  8.48289160E-02  6.24221873E+00  2.32416928E+00  1.45652951E+00
  6.24221873E+00  2.32416928E+00  1.45652951E+00  6.24221873E+00  2.32416928E+00
  1.45652951E+00  6.24221873E+00  2.32416928E+00  1.45652951E+00  6.24221873E+00
  2.32416928E+00  1.45652951E+00  6.24221873E+00  2.32416928E+00  1.45652951E+00
  6.24221873E+00  2.32416928E+00  1.45652951E+00  6.24221873E+00  2.32416928E+00
  1.45652951E+00  7.09165380E-01 -1.25729983E+00 -7.80890272E-01  7.09165380E-01
 -1.25729983E+00 -7.80890272E-01  7.09165380E-01 -1.25729983E+00 -7.80890272E-01
  7.09165380E-01 -1.25729983E+00 -7.80890272E-01  6.12793001E-01  1.72884379E+00
  1.19782199E+00  6.12793001E-01  1.72884379E+00  1.19782199E+00  6.12793001E-01
  1.72884379E+00  1.19782199E+00  6.12793001E-01  1.72884379E+00  1.19782199E+00
  5.12841835E+00  3.62849725E+00  2.34675860E+00  5.12841835E+00  3.62849725E+00
  2.34675860E+00  5.12841835E+00  3.62849725E+00  2.34675860E+00  5.12841835E+00
  3.62849725E+00  2.34675860E+00
Num ILSW                                   I              100
ILSW                                       I   N=         100
           1           0           0           0           2           0
           0           0           0           0         402          -1
           5           0           0           0           2           0
           0           0           0           0           1           0
           1           1           0           0           0           0
           0           0      100000           0          -1           0
           0           0           0           0           0           0
           0           0           0           1           0           0
           0 -2000000000           1           0           0           0
           0           0           4          52           0           0
           0           0           5           0           0           0
           0           0           0           6           0           1
           0           0           0           0           0           0
           0           0           0           0           0           0
           0           0           0           0           0           0
           0           0           0           0           0           0
           0           0           0           0
Num RLSW                                   I               52
RLSW                                       R   N=          52
  8.00000000E-01  7.20000000E-01  1.00000000E+00  8.10000000E-01  2.00000000E-01
  0.00000000E+00  0.00000000E+00  1.00000000E+00  0.00000000E+00  0.00000000E+00
  0.00000000E+00  0.00000000E+00  1.00000000E+00  0.00000000E+00  0.00000000E+00
  0.00000000E+00  0.00000000E+00  1.00000000E+00  0.00000000E+00  0.00000000E+00
  0.00000000E+00  0.00000000E+00  1.00000000E+00  0.00000000E+00  0.00000000E+00
  0.00000000E+00  0.00000000E+00  1.00000000E+00  0.00000000E+00  0.00000000E+00
  0.00000000E+00  0.00000000E+00  1.00000000E+00  0.00000000E+00  0.00000000E+00
  0.00000000E+00  0.00000000E+00  0.00000000E+00  1.00000000E+00  1.00000000E+00
  0.00000000E+00  1.00000000E+00  0.00000000E+00  0.00000000E+00  0.00000000E+00
  0.00000000E+00  0.00000000E+00  0.00000000E+00  0.00000000E+00  0.00000000E+00
  0.00000000E+00  0.00000000E+00
MxBond                                     I                3
NBond                                      I   N=           6
           3           2           2           1           1           1
IBond                                      I   N=          18
           2           4           5           1           3           0
           2           6           0           1           0           0
           1           0           0           3           0           0
RBond                                      R   N=          18
  2.00000000E+00  1.00000000E+00  1.00000000E+00  2.00000000E+00  2.00000000E+00
  0.00000000E+00  2.00000000E+00  1.00000000E+00  0.00000000E+00  1.00000000E+00
  0.00000000E+00  0.00000000E+00  1.00000000E+00  0.00000000E+00  0.00000000E+00
  1.00000000E+00  0.00000000E+00  0.00000000E+00
Virial Ratio                               R      2.004215153525983E+00
SCF Energy                                 R     -4.926023034754799E+02
Total Energy                               R     -4.926023034754799E+02
S**2                                       R     -1.065814103640150E-14
S**2 after annihilation                    R      8.562039965908979E-13
RMS Force                                  R      4.086392001410847E-03
RMS Density                                R      1.993275045187373E-09
Job Status                                 I                1
Nuclear derivative order                   I                1
External E-field                           R   N=          35
  0.00000000E+00  0.00000000E+00  0.00000000E+00  0.00000000E+00  0.00000000E+00
  0.00000000E+00  0.00000000E+00  0.00000000E+00  0.00000000E+00  0.00000000E+00
  0.00000000E+00  0.00000000E+00  0.00000000E+00  0.00000000E+00  0.00000000E+00
  0.00000000E+00  0.00000000E+00  0.00000000E+00  0.00000000E+00  0.00000000E+00
  0.00000000E+00  0.00000000E+00  0.00000000E+00  0.00000000E+00  0.00000000E+00
  0.00000000E+00  0.00000000E+00  0.00000000E+00  0.00000000E+00  0.00000000E+00
  0.00000000E+00  0.00000000E+00  0.00000000E+00  0.00000000E+00  0.00000000E+00
IOpCl                                      I                1
IROHF                                      I                0
Alpha Orbital Energies                     R   N=          91
 -8.89530206E+01 -1.43276949E+01 -1.02245717E+01 -8.03600219E+00 -6.00395805E+00
 -6.00196333E+00 -5.99834227E+00 -9.33195492E-01 -7.66873500E-01 -6.10025278E-01
 -5.04698999E-01 -4.75546759E-01 -3.94231687E-01 -3.63076902E-01 -3.00260785E-01
 -2.44029005E-01 -7.77017864E-02  1.01643066E-02  2.11416104E-02  3.63386545E-02
  5.54543658E-02  5.90438328E-02  8.14307684E-02  8.89204898E-02  1.32443334E-01
  1.50252402E-01  1.61785457E-01  1.68121572E-01  2.04378026E-01  2.15469654E-01
  2.19686335E-01  2.22457196E-01  2.42092774E-01  2.52764119E-01  2.89615162E-01
  2.93764700E-01  3.04549325E-01  3.28812850E-01  3.33738842E-01  3.60529126E-01
  3.70854013E-01  3.73505032E-01  3.99197134E-01  4.10206986E-01  4.26440517E-01
  4.47714759E-01  4.64571005E-01  5.09475935E-01  5.22742599E-01  5.51802653E-01
  5.78705044E-01  6.45543746E-01  7.32436983E-01  7.58714344E-01  7.70971732E-01
  8.16168461E-01  8.59668972E-01  8.74633358E-01  8.88786546E-01  9.11044953E-01
  9.58782653E-01  9.63281866E-01  1.01450959E+00  1.05294685E+00  1.11414154E+00
  1.12500884E+00  1.14756425E+00  1.18440036E+00  1.25131983E+00  1.32246226E+00
  1.40296103E+00  1.43189791E+00  1.49678422E+00  1.57461328E+00  1.69214229E+00
  1.72845612E+00  1.79582754E+00  1.91297194E+00  2.05996785E+00  2.06606669E+00
  2.09064967E+00  2.14822080E+00  2.25439957E+00  2.38885116E+00  2.45984007E+00
  2.59619692E+00  2.60146662E+00  2.83648199E+00  2.96339428E+00  2.96744862E+00
  3.36304657E+00
Beta Orbital Energies                      R   N=          91
 -8.89530206E+01 -1.43276949E+01 -1.02245717E+01 -8.03600219E+00 -6.00395805E+00
 -6.00196333E+00 -5.99834227E+00 -9.33195492E-01 -7.66873500E-01 -6.10025278E-01
 -5.04698999E-01 -4.75546759E-01 -3.94231687E-01 -3.63076902E-01 -3.00260785E-01
 -2.44029005E-01 -7.77017864E-02  1.01643066E-02  2.11416104E-02  3.63386545E-02
  5.54543658E-02  5.90438328E-02  8.14307684E-02  8.89204898E-02  1.32443334E-01
  1.50252402E-01  1.61785457E-01  1.68121572E-01  2.04378026E-01  2.15469654E-01
  2.19686335E-01  2.22457196E-01  2.42092774E-01  2.52764119E-01  2.89615162E-01
  2.93764700E-01  3.04549325E-01  3.28812850E-01  3.33738842E-01  3.60529126E-01
  3.70854013E-01  3.73505032E-01  3.99197134E-01  4.10206986E-01  4.26440517E-01
  4.47714759E-01  4.64571005E-01  5.09475935E-01  5.22742599E-01  5.51802653E-01
  5.78705044E-01  6.45543746E-01  7.32436983E-01  7.58714344E-01  7.70971732E-01
  8.16168461E-01  8.59668972E-01  8.74633358E-01  8.88786546E-01  9.11044953E-01
  9.58782653E-01  9.63281866E-01  1.01450959E+00  1.05294685E+00  1.11414154E+00
  1.12500884E+00  1.14756425E+00  1.18440036E+00  1.25131983E+00  1.32246226E+00
  1.40296103E+00  1.43189791E+00  1.49678422E+00  1.57461328E+00  1.69214229E+00
  1.72845612E+00  1.79582754E+00  1.91297194E+00  2.05996785E+00  2.06606669E+00
  2.09064967E+00  2.14822080E+00  2.25439957E+00  2.38885116E+00  2.45984007E+00
  2.59619692E+00  2.60146662E+00  2.83648199E+00  2.96339428E+00  2.96744862E+00
  3.36304657E+00
Alpha MO coefficients                      R   N=        8281
  1.10577844E-04 -8.61691781E-04  1.15483147E-02  1.40916064E-02 -2.42843871E-04
 -3.64165282E-05 -1.82944889E-05  4.79941039E-04  1.74736345E-03  1.14519867E-03
  2.93156723E-04  3.77476918E-05  9.89617899E-05 -5.93385031E-04  1.94631922E-05
 -8.92253489E-04 -2.81414889E-03  2.46620244E-03 -3.30842684E-04 -4.14654620E-03
  9.94159377E-01 -2.24899980E-02  1.52930381E-02 -1.54513682E-02 -8.18862286E-03
 -6.91156872E-05  1.28244800E-04  8.65259051E-05 -2.08895497E-04  3.61404494E-04
  2.44154238E-04  3.41536754E-03  3.21152636E-03  2.04351329E-03  1.45821652E-03
 -5.38585194E-04 -3.91333688E-04 -1.46415737E-04  2.56413170E-04  3.82407331E-04
 -9.19460032E-05  4.02258487E-04  2.29890862E-03 -2.65947686E-03 -1.08160394E-03
 -2.84361874E-03 -4.29001740E-03 -3.19799546E-05  4.39813538E-04 -3.58014224E-04
  1.26488575E-02 -7.01221026E-05  3.96897214E-05  2.79911644E-05  6.31146070E-04
  2.76547889E-03  1.81533020E-03  1.25358306E-04 -2.77376523E-04 -4.16747588E-04
  1.59117485E-04 -4.30992142E-04  1.59990265E-04 -1.70160120E-03 -2.06842754E-04
  3.35615012E-05 -2.58334298E-03 -3.61681874E-04  2.80690117E-03 -1.63191899E-04
  4.33512600E-05  3.25915596E-05  2.60737611E-04  1.35481329E-03  8.90467589E-04
 -4.37089243E-04 -1.59276392E-02 -2.14637167E-04  2.87766024E-05  2.42013385E-05
  5.48276062E-06  2.26357417E-03  1.49843189E-03 -7.74626264E-04 -8.33825183E-03
 -1.76012303E-04 -1.03223255E-04 -6.40627092E-05 -2.55055770E-04  1.71933353E-03
  1.14438318E-03 -2.73186424E-05 -2.93277985E-04  3.15409622E-03  2.34363941E-03
  1.48968483E-04  4.06432939E-05  2.32912957E-05  5.13216787E-03  2.62168731E-03
  1.61203302E-03 -1.33853787E-04  1.09829930E-04 -4.71097524E-05  2.62608087E-04
  1.82687948E-04 -1.55993004E-03  1.18154926E-03 -1.20437420E-03  3.62392572E-03
  1.98480139E-03 -3.67254681E-05 -2.58998101E-04  1.22104580E-03 -3.01162685E-02
  4.67513040E-04  1.15412112E-04  1.81443496E-04  1.17297227E-04 -1.06166499E-04
  2.00892737E-04  1.35440017E-04 -3.33390958E-03 -1.09481176E-02 -7.16498644E-03
  1.93448027E-03  1.65484414E-03  1.04881401E-03  1.98554659E-04  1.93117609E-04
  2.60781919E-05 -3.80284486E-04  2.66011307E-04  2.08334236E-03 -2.33448553E-03
 -2.45017881E-03 -1.33451375E-03 -3.76390135E-03  9.88228817E-01 -4.94894323E-02
  5.98786068E-02 -4.57716729E-03 -3.01088079E-03  5.85336621E-05  1.11435975E-04
 -6.91349706E-03 -6.67741158E-03 -4.25273390E-03  2.07138872E-04  6.32379812E-04
 -8.70969933E-04  3.31318645E-04  9.32803719E-04 -3.26634054E-04  1.33342812E-03
  3.15298914E-03 -2.21714817E-03  2.02931356E-03  2.02954977E-04  5.69976452E-03
  5.11294386E-05  1.16502192E-04  7.58553517E-05  4.65159225E-03 -1.18290607E-03
 -8.94512715E-04  5.79976080E-05  1.52006937E-03 -7.33845934E-05  1.74592205E-05
  1.33242650E-05  2.86514966E-04 -1.19768781E-04 -8.62662177E-05  2.12965747E-03
 -1.56307939E-02  1.92057015E-03 -2.10382429E-03 -1.43889924E-03 -5.24384062E-03
  4.58927541E-03  3.16424223E-03  9.87627345E-01  5.79431337E-02 -1.27089784E-01
 -1.70605474E-02 -1.02281329E-03 -6.08457619E-05 -1.55204524E-05  1.21579813E-02
  4.86333030E-04  2.92382803E-05 -8.84126939E-04 -1.31764412E-04  1.73493392E-03
  6.50724670E-05 -9.93774470E-05  3.12418203E-03  8.60936451E-05 -9.75293820E-03
  2.87475379E-03 -1.95974727E-04  8.20260953E-05  6.84289940E-04 -2.59460596E-03
  1.65622081E-02  1.85539904E-03  3.74018021E-04 -1.22702543E-05 -1.70907557E-05
  1.33179928E-03 -1.47597175E-04 -1.29606293E-04 -2.10758545E-03  1.56689758E-03
  1.08747815E-03  6.62045692E-04  4.79050319E-04  3.00998582E-04  9.80681240E-04
  2.74864146E-04  1.68660741E-04 -1.85892769E-03  2.90163804E-04 -6.70435464E-05
  1.07501939E-03  9.43369356E-04 -7.69909570E-04  1.62247798E-03 -3.37221358E-05
  5.42229811E-05 -5.28986063E-03 -6.26063556E-03 -2.66520856E-04 -1.05858370E-04
 -6.36863428E-05  7.94415782E-04  2.80882786E-04  1.66548236E-04  7.29576914E-05
 -8.82744984E-05 -4.75220538E-05 -7.87571211E-05 -1.41900666E-04 -6.76048445E-04
 -1.48869683E-04  1.16819483E-04  1.08021068E-03 -1.40368837E-04 -2.65215005E-03
  5.83420695E-02 -1.25828409E-03 -1.61864752E-03 -1.04103564E-03  1.01313657E-02
  9.98473783E-03  6.36466684E-03 -2.71347774E-03  5.89433918E-02 -1.25167460E-03
  1.60137128E-03  1.08998445E-03  1.14705560E-02 -9.41803015E-03 -6.50946535E-03
 -5.70110910E-04  6.99161065E-03  2.52310772E-04 -9.14153351E-05 -6.65229444E-05
  9.33555156E-04 -2.21948166E-03 -1.49153399E-03  1.35985198E-04 -2.27667422E-03
  2.51890571E-02  3.29033136E-02 -6.94202409E-04 -9.12704794E-05 -4.38021072E-05
  7.70766795E-04  5.56620321E-03  3.66601375E-03  5.39851689E-04  5.74704632E-05
  1.02196579E-05 -9.45756328E-04  1.88644452E-05 -1.70181409E-03 -7.33608473E-03
  5.98831220E-03 -1.56657585E-03 -1.08847195E-02  3.06251359E-01  1.01875746E+00
  6.42335558E-02 -4.51495567E-02 -1.94389642E-02  3.34179465E-03 -6.57833357E-03
 -4.43399160E-03 -6.80340937E-04  1.36645404E-03  9.20575214E-04  6.31187853E-03
  7.12166767E-03  4.56192770E-03  3.22062972E-03 -1.54672554E-03 -1.10065649E-03
 -4.78943974E-04  6.61429363E-04  9.32636087E-04 -1.65711540E-05  1.05072772E-03
  5.76210465E-03 -7.11788563E-03 -2.97872773E-03 -6.86450204E-03 -1.14322183E-02
  1.40004876E-05  5.50841721E-04  4.49233775E-04  3.33647331E-02 -2.68146190E-04
 -3.37860654E-05 -1.58189088E-05  1.45122243E-03  5.58311203E-03  3.66070083E-03
  2.10494411E-04 -3.50739702E-04 -7.16774146E-04  2.72517803E-04 -5.50241329E-04
  4.81114685E-04 -4.05245871E-03 -3.64541619E-04 -2.01690850E-04 -6.16590033E-03
 -4.89487731E-04  1.09557631E-02 -9.35358371E-05  2.13988253E-04  1.43830155E-04
  8.87317314E-04  4.27580264E-03  2.80871466E-03 -9.22535918E-04 -4.03845039E-02
 -2.17906388E-04  4.35067494E-05  3.40361972E-05 -4.85584106E-04  5.54898162E-03
  3.68527743E-03 -1.39537654E-03 -2.03765814E-02 -3.55579419E-04 -3.93492440E-04
 -2.51843155E-04 -1.12757975E-03  3.93715931E-03  2.63371132E-03 -1.43673844E-05
 -8.25150160E-04  2.27274745E-02  8.10919571E-03 -7.93576624E-04 -6.11363176E-05
 -2.14447171E-05  5.46737004E-03  2.36917626E-03  1.43711969E-03  5.91718417E-04
  1.70384566E-04  9.51877540E-05 -1.11639586E-03  1.81972062E-04 -5.40924246E-04
 -4.54805247E-03  1.77903963E-05  1.27756027E-03 -6.78732520E-03  4.75745362E-04
  1.66673772E-03  5.01068725E-04 -1.48097108E-02 -2.05784372E-03  8.27733761E-01
  4.48283440E-01  2.76745867E-01 -4.58313297E-02 -2.48656878E-02 -1.53528818E-02
  2.08075012E-02  7.74155731E-03  4.62301449E-03  3.66542274E-03  1.22201994E-03
  7.20786895E-04 -1.73865002E-04 -8.03175563E-04 -1.20089212E-03  1.38313422E-03
 -1.18062681E-03  1.60155231E-03  7.93176023E-04  1.00921635E-03 -3.68651048E-03
  9.87875106E-04 -1.58724955E-04 -9.58307294E-04 -1.25540843E-03 -8.84687542E-03
  2.17052161E-04  1.81492632E-04  1.14880398E-04 -1.69381133E-03 -2.27823435E-03
 -1.46712851E-03 -2.16268924E-04  5.01456881E-04  7.97141856E-04 -3.42584842E-04
  7.77607111E-04 -1.18278755E-03  1.39638343E-03  4.07513465E-04  1.58683697E-03
  2.25045077E-03  6.51962762E-05  5.17269158E-03 -8.30911520E-05 -1.53915824E-05
 -8.20329067E-06 -2.39098100E-03  1.03134709E-03  7.40065355E-04 -2.97021538E-04
 -1.57548714E-02 -5.40699690E-05  5.97092658E-06  5.22515393E-06  1.23536337E-03
  3.36308705E-03  2.19636232E-03  3.98971729E-05  6.76898612E-03  3.83021598E-04
  3.53211525E-04  2.24576203E-04  8.06439699E-04 -1.55126369E-03 -1.04623786E-03
  3.32179329E-09 -1.67309766E-07  2.45299966E-06  2.26389277E-06  7.72811663E-06
 -2.15113571E-04  3.25008351E-04 -7.00268433E-05  1.95232383E-03 -2.94958427E-03
 -3.71464548E-05  3.87396191E-04 -4.14190436E-06 -2.92940297E-06 -2.57158974E-04
  6.04411522E-04 -4.28126372E-03  1.40697935E-04  1.43935773E-04  2.84753678E-03
 -4.21774178E-08 -1.75498006E-07  4.38356725E-07 -3.14867157E-06 -1.44232790E-06
  1.97174061E-02 -5.41855799E-01  8.18744506E-01 -1.02107347E-03  2.80561388E-02
 -4.23929220E-02  3.19317797E-04 -8.75424504E-03  1.32274081E-02 -1.55282490E-05
  4.39403272E-04 -6.64071646E-04 -2.49049197E-04  8.15529945E-05 -1.19018757E-04
 -1.39620072E-04 -6.14600093E-05  9.13571423E-04 -3.09612122E-03  3.35037827E-04
  3.77533794E-04  2.07363219E-03 -9.38095264E-09 -1.35264329E-07  8.92768004E-07
  2.06328759E-06 -2.80550069E-06  7.66406690E-05 -1.15787678E-04 -2.77600043E-05
  7.51601407E-04 -1.13540152E-03 -2.52356306E-04 -1.81028641E-04 -1.30130966E-04
 -1.54215308E-04  1.12046088E-04  5.18929119E-04  8.50696386E-04  2.85137487E-04
  3.40050380E-04 -5.46601055E-04  2.52813657E-08  1.24915370E-07  4.34988014E-06
 -1.20273873E-04  1.81710383E-04 -2.75560625E-05  7.68823225E-04 -1.16200159E-03
  1.46417399E-08 -1.30235037E-06  4.26658570E-06 -1.18194901E-04  1.78582026E-04
 -4.90708923E-05  1.36485166E-03 -2.06117549E-03 -1.84920778E-08 -2.00090173E-06
  2.17891784E-06 -6.04917603E-05  9.14987670E-05 -3.20648843E-06  7.67162188E-05
 -1.14711223E-04  3.61283607E-05  6.21822400E-04 -1.43616467E-02 -4.60444478E-03
  5.57543954E-04 -2.15656310E-04 -1.56129151E-04 -6.86242807E-03  6.10223168E-03
  4.20359383E-03 -2.94116046E-04  7.64388232E-05 -1.24334860E-04  6.07630528E-04
  1.52942588E-04  1.82626337E-03 -9.17162642E-03  1.69742356E-03 -3.87436509E-03
 -1.40641922E-02  2.79543622E-03  9.89062261E-03 -2.74602126E-03  1.18367555E-02
 -2.37371351E-04 -5.26767694E-01  6.84903099E-01  4.65963712E-01  2.81659247E-02
 -3.67160967E-02 -2.49774516E-02 -1.58857307E-02  1.70939352E-02  1.16952504E-02
 -3.20909190E-03  4.49170928E-04  3.74435864E-04  1.90756265E-04 -3.42315708E-06
 -4.33936544E-04  3.90771636E-05 -2.61953155E-05 -1.51261492E-04 -5.29273883E-03
  1.36552849E-03 -4.81142497E-04 -7.96793991E-03 -7.96251060E-05 -2.96895919E-04
 -1.26574517E-03  1.87014701E-02  9.37714445E-05  1.03417795E-04  6.62094638E-05
  8.47065776E-04  5.76966843E-04  3.61775939E-04 -1.57258957E-04  2.04728591E-04
  1.81418733E-04  1.01508997E-04  3.27168079E-04 -1.96826868E-05 -5.93216283E-04
  1.84542667E-03 -1.48545297E-03 -9.04306253E-04  2.24330796E-04  2.83057180E-02
  1.00676447E-04  1.38748141E-04  8.93972826E-05 -3.13799684E-03  7.14844476E-03
  4.80625893E-03 -3.50804073E-04 -2.70100569E-02  1.85035156E-04  1.20564550E-04
  7.53787571E-05 -6.78172323E-04  3.56925867E-03  2.37904890E-03 -2.34674518E-04
 -1.16415152E-02  4.31221985E-05  3.44379972E-04  2.26891887E-04 -2.64373154E-03
  1.64758710E-03  1.15445685E-03 -7.01024526E-02  1.37875633E-01 -1.57686136E-02
  4.36607187E-03  6.93583449E-02  3.68220400E-03  7.72703974E-04  1.55342766E-02
  2.03331024E-02  1.30838800E-02 -4.79574830E-03  4.42459064E-04 -4.09707781E-04
  8.59768181E-03  1.27128857E-03 -1.44060408E-03 -2.00785451E-02 -5.27056995E-03
  8.54416947E-03 -3.00447927E-02 -5.68828357E-02 -3.51514525E-01  5.05348967E-01
  1.17790924E-01  7.20257080E-03  5.00015570E-03  5.55858364E-02  3.66669227E-02
  8.67363953E-03  9.01593113E-02  5.94595550E-02  1.09455493E-02  6.26938636E-02
  4.12296589E-02 -1.31861760E-03  2.31737890E-03  1.56581126E-03 -1.31647017E-02
  1.46630744E-02  2.81711169E-02 -2.32797554E-03  2.35629184E-02 -2.92593221E-03
 -7.67716978E-03  4.03052136E-03  2.23645192E-03 -1.12280222E-02  1.88216642E-01
  3.80356094E-01  1.24868374E-01 -1.76833227E-02  1.08989709E-01  6.73953441E-02
  4.19775996E-02 -2.26754803E-02 -3.19428196E-02 -2.05956122E-02 -4.40901116E-03
  5.60751067E-03  8.95350082E-03 -4.25764120E-04  8.94634348E-03 -9.59589583E-04
  6.82558851E-03 -9.53435118E-03  9.20904992E-03  1.04714609E-02  2.67705079E-02
  8.86073563E-02  3.76773214E-03  3.35475181E-03  2.12987776E-03  4.71617328E-03
  1.82178837E-02  1.19439370E-02  2.64745964E-02 -4.70428951E-02  3.49961537E-03
 -2.85828611E-03 -1.97585042E-03  1.04718023E-02  1.41374786E-02  9.10500373E-03
  1.17865367E-01  3.54855616E-02  6.49838496E-03 -1.20687011E-02 -8.14518364E-03
  1.02934474E-02 -3.71908726E-03 -2.71006386E-03 -1.90953857E-01  3.90134064E-01
 -4.94226814E-02 -3.90630457E-02  9.62093045E-02 -1.66561632E-02 -1.33303059E-02