0004_q000_m01_k00_opt_uwb97xd_def2svpd/0004_q000_m01_k00_force_ub3lyp_de
Force     UB3LYP                                                      Gen                 
Number of atoms                            I                6
Info1-9                                    I   N=           9
          13           9           0           0           0         100
           5          18        -502
Full Title                                 C   N=           8
0004_q000_m01_k00_opt_uwb97xd_def2svpd/0004_q000_m01_k00_for
ce_ub3lyp_def2tzvp stable-force     
Route                                      C   N=          15
#p ub3lyp/chkbasis force guess=read geom=check scf=(maxcycle
=900,verytightlineq,xqc) integral=grid=ultrafine symmetry=No
ne density=current pop=(cm5,hlygat,mbs,npa) output=wfx      
Charge                                     I                0
Multiplicity                               I                1
Number of electrons                        I               32
Number of alpha electrons                  I               16
Number of beta electrons                   I               16
Number of basis functions                  I              117
Number of independent functions            I              117
Number of point charges in /Mol/           I                0
Number of translation vectors              I                0
Atomic numbers                             I   N=           6
           6          16           7           1           1           1
Nuclear charges                            R   N=           6
  6.00000000E+00  1.60000000E+01  7.00000000E+00  1.00000000E+00  1.00000000E+00
  1.00000000E+00
Current cartesian coordinates              R   N=          18
  1.67863146E+00  2.68784369E-01  2.05840898E-01  4.73702225E+00  1.96852105E-01
  8.48289160E-02  6.24221873E+00  2.32416928E+00  1.45652951E+00  7.09165380E-01
 -1.25729983E+00 -7.80890272E-01  6.12793001E-01  1.72884379E+00  1.19782199E+00
  5.12841835E+00  3.62849725E+00  2.34675860E+00
Number of symbols in /Mol/                 I                0
Int Atom Types                             I   N=           6
           0           0           0           0           0           0
Force Field                                I                0
Atom Types                                 C   N=           6
                                                            
            
MM charges                                 R   N=           6
  0.00000000E+00  0.00000000E+00  0.00000000E+00  0.00000000E+00  0.00000000E+00
  0.00000000E+00
Integer atomic weights                     I   N=           6
          12          32          14           1           1           1
Real atomic weights                        R   N=           6
  1.20000000E+01  3.19720718E+01  1.40030740E+01  1.00782504E+00  1.00782504E+00
  1.00782504E+00
Atom fragment info                         I   N=           6
           0           0           0           0           0           0
Atom residue num                           I   N=           6
           0           0           0           0           0           0
Nuclear spins                              I   N=           6
           0           0           2           1           1           1
Nuclear ZEff                               R   N=           6
 -3.60000000E+00 -1.36000000E+01 -4.55000000E+00 -1.00000000E+00 -1.00000000E+00
 -1.00000000E+00
Nuclear ZNuc                               R   N=           6
  6.00000000E+00  1.60000000E+01  7.00000000E+00  1.00000000E+00  1.00000000E+00
  1.00000000E+00
Nuclear QMom                               R   N=           6
  0.00000000E+00  0.00000000E+00  2.04400000E+00  0.00000000E+00  0.00000000E+00
  0.00000000E+00
Nuclear GFac                               R   N=           6
  0.00000000E+00  0.00000000E+00  4.03761000E-01  2.79284600E+00  2.79284600E+00
  2.79284600E+00
MicOpt                                     I   N=           6
          -1          -1          -1          -1          -1          -1
Number of residues                         I                0
Number of secondary structures             I                0
Number of contracted shells                I               47
Number of primitive shells                 I               85
Pure/Cartesian d shells                    I                0
Pure/Cartesian f shells                    I                0
Highest angular momentum                   I                3
Largest degree of contraction              I                7
Shell types                                I   N=          47
           0           0           0           0           0           1
           1           1          -2          -2          -3           0
           0           0           0           0           1           1
           1           1           1          -2          -2          -3
           0           0           0           0           0           1
           1           1          -2          -2          -3           0
           0           0           1           0           0           0
           1           0           0           0           1
Number of primitives per shell             I   N=          47
           6           2           1           1           1           4
           1           1           1           1           1           7
           3           2           1           1           5           1
           1           1           1           2           1           1
           6           2           1           1           1           4
           1           1           1           1           1           3
           1           1           1           3           1           1
           1           3           1           1           1
Shell to atom map                          I   N=          47
           1           1           1           1           1           1
           1           1           1           1           1           2
           2           2           2           2           2           2
           2           2           2           2           2           2
           3           3           3           3           3           3
           3           3           3           3           3           4
           4           4           4           5           5           5
           5           6           6           6           6
Primitive exponents                        R   N=          85
  1.35753497E+04  2.03523337E+03  4.63225624E+02  1.31200196E+02  4.28530159E+01
  1.55841858E+01  6.20671385E+00  2.57648965E+00  5.76963394E-01  2.29728314E-01
  9.51644400E-02  3.46972322E+01  7.95826228E+00  2.37808269E+00  8.14332082E-01
  2.88875473E-01  1.00568237E-01  1.09700000E+00  3.18000000E-01  7.61000000E-01
  6.07009281E+04  9.10261069E+03  2.07141660E+03  5.86024768E+02  1.90553950E+02
  6.76303843E+01  2.51273069E+01  1.12574630E+02  3.47955542E+01  6.51155562E+00
  3.23990323E+00  1.54771609E+00  4.05410301E-01  1.45506511E-01  5.64367160E+02
  1.33426244E+02  4.24682712E+01  1.56165276E+01  6.10939885E+00  2.44041602E+00
  8.38822013E-01  3.12887469E-01  1.07701090E-01  3.75600000E+00  8.12000000E-01
  2.73000000E-01  5.57000000E-01  1.97308006E+04  2.95789587E+03  6.73221336E+02
  1.90682495E+02  6.22954419E+01  2.26541612E+01  8.97914774E+00  3.68630024E+00
  8.46600768E-01  3.36471338E-01  1.36476537E-01  4.92003805E+01  1.13467905E+01
  3.42739724E+00  1.17855251E+00  4.16422050E-01  1.42608260E-01  1.65400000E+00
  4.69000000E-01  1.09300000E+00  3.40613410E+01  5.12357460E+00  1.16466260E+00
  3.27230410E-01  1.03072410E-01  8.00000000E-01  3.40613410E+01  5.12357460E+00
  1.16466260E+00  3.27230410E-01  1.03072410E-01  8.00000000E-01  3.40613410E+01
  5.12357460E+00  1.16466260E+00  3.27230410E-01  1.03072410E-01  8.00000000E-01
Contraction coefficients                   R   N=          85
  6.06455036E-04  4.69790889E-03  2.43324776E-02  9.73999683E-02  3.01955843E-01
  6.62336091E-01  6.55953085E-01  3.75856333E-01  1.00000000E+00  1.00000000E+00
  1.00000000E+00  1.13272200E-02  7.61696592E-02  3.01922522E-01  7.27850273E-01
  1.00000000E+00  1.00000000E+00  1.00000000E+00  1.00000000E+00  1.00000000E+00
  5.23800749E-04  4.05063268E-03  2.08270042E-02  8.14968503E-02  2.37491138E-01
  4.47261715E-01  3.48919184E-01  1.00455699E-01  4.33911729E-01 -1.20843306E+00
  6.74981294E-01  3.47087958E-01  1.00000000E+00  1.00000000E+00  3.48869236E-03
  2.76851268E-02  1.26594002E-01  3.61659257E-01  6.12220344E-01  1.00000000E+00
  1.00000000E+00  1.00000000E+00  1.00000000E+00  1.82851975E-01  9.14259873E-01
  1.00000000E+00  1.00000000E+00  5.86264026E-04  4.54288206E-03  2.35584135E-02
  9.47091933E-02  2.97197849E-01  6.69162469E-01  6.45966836E-01  3.87005744E-01
  1.00000000E+00  1.00000000E+00  1.00000000E+00  1.14488251E-02  7.84223380E-02
  3.08180947E-01  7.20271964E-01  1.00000000E+00  1.00000000E+00  1.00000000E+00
  1.00000000E+00  1.00000000E+00  2.54393072E-02  1.90085949E-01  8.52441130E-01
  1.00000000E+00  1.00000000E+00  1.00000000E+00  2.54393072E-02  1.90085949E-01
  8.52441130E-01  1.00000000E+00  1.00000000E+00  1.00000000E+00  2.54393072E-02
  1.90085949E-01  8.52441130E-01  1.00000000E+00  1.00000000E+00  1.00000000E+00
Coordinates of each shell                  R   N=         141
  1.67863146E+00  2.68784369E-01  2.05840898E-01  1.67863146E+00  2.68784369E-01
  2.05840898E-01  1.67863146E+00  2.68784369E-01  2.05840898E-01  1.67863146E+00
  2.68784369E-01  2.05840898E-01  1.67863146E+00  2.68784369E-01  2.05840898E-01
  1.67863146E+00  2.68784369E-01  2.05840898E-01  1.67863146E+00  2.68784369E-01
  2.05840898E-01  1.67863146E+00  2.68784369E-01  2.05840898E-01  1.67863146E+00
  2.68784369E-01  2.05840898E-01  1.67863146E+00  2.68784369E-01  2.05840898E-01
  1.67863146E+00  2.68784369E-01  2.05840898E-01  4.73702225E+00  1.96852105E-01
  8.48289160E-02  4.73702225E+00  1.96852105E-01  8.48289160E-02  4.73702225E+00
  1.96852105E-01  8.48289160E-02  4.73702225E+00  1.96852105E-01  8.48289160E-02
  4.73702225E+00  1.96852105E-01  8.48289160E-02  4.73702225E+00  1.96852105E-01
  8.48289160E-02  4.73702225E+00  1.96852105E-01  8.48289160E-02  4.73702225E+00
  1.96852105E-01  8.48289160E-02  4.73702225E+00  1.96852105E-01  8.48289160E-02
  4.73702225E+00  1.96852105E-01  8.48289160E-02  4.73702225E+00  1.96852105E-01
  8.48289160E-02  4.73702225E+00  1.96852105E-01  8.48289160E-02  4.73702225E+00
  1.96852105E-01  8.48289160E-02  6.24221873E+00  2.32416928E+00  1.45652951E+00
  6.24221873E+00  2.32416928E+00  1.45652951E+00  6.24221873E+00  2.32416928E+00
  1.45652951E+00  6.24221873E+00  2.32416928E+00  1.45652951E+00  6.24221873E+00
  2.32416928E+00  1.45652951E+00  6.24221873E+00  2.32416928E+00  1.45652951E+00
  6.24221873E+00  2.32416928E+00  1.45652951E+00  6.24221873E+00  2.32416928E+00
  1.45652951E+00  6.24221873E+00  2.32416928E+00  1.45652951E+00  6.24221873E+00
  2.32416928E+00  1.45652951E+00  6.24221873E+00  2.32416928E+00  1.45652951E+00
  7.09165380E-01 -1.25729983E+00 -7.80890272E-01  7.09165380E-01 -1.25729983E+00
 -7.80890272E-01  7.09165380E-01 -1.25729983E+00 -7.80890272E-01  7.09165380E-01
 -1.25729983E+00 -7.80890272E-01  6.12793001E-01  1.72884379E+00  1.19782199E+00
  6.12793001E-01  1.72884379E+00  1.19782199E+00  6.12793001E-01  1.72884379E+00
  1.19782199E+00  6.12793001E-01  1.72884379E+00  1.19782199E+00  5.12841835E+00
  3.62849725E+00  2.34675860E+00  5.12841835E+00  3.62849725E+00  2.34675860E+00
  5.12841835E+00  3.62849725E+00  2.34675860E+00  5.12841835E+00  3.62849725E+00
  2.34675860E+00
Num ILSW                                   I              100
ILSW                                       I   N=         100
           1           0           0           0           2           0
           0           0           0           0         402          -1
           5           0           0           0           2           0
           0           0           0           0           1           0
           1           1           0           0           0           0
           0           0      100000           0          -1           0
           0           0           0           0           0           0
           0           0           0           1           0           0
           0 -2000000000           1           0           0           0
           0           0           4          52           0           0
           0           0           5           0           0           0
           0           0           0           6           0           1
           0           0           0           0           0           0
           0           0           0           0           0           0
           0           0           0           0           0           0
           0           0           0           0           0           0
           0           0           0           0
Num RLSW                                   I               52
RLSW                                       R   N=          52
  8.00000000E-01  7.20000000E-01  1.00000000E+00  8.10000000E-01  2.00000000E-01
  0.00000000E+00  0.00000000E+00  1.00000000E+00  0.00000000E+00  0.00000000E+00
  0.00000000E+00  0.00000000E+00  1.00000000E+00  0.00000000E+00  0.00000000E+00
  0.00000000E+00  0.00000000E+00  1.00000000E+00  0.00000000E+00  0.00000000E+00
  0.00000000E+00  0.00000000E+00  1.00000000E+00  0.00000000E+00  0.00000000E+00
  0.00000000E+00  0.00000000E+00  1.00000000E+00  0.00000000E+00  0.00000000E+00
  0.00000000E+00  0.00000000E+00  1.00000000E+00  0.00000000E+00  0.00000000E+00
  0.00000000E+00  0.00000000E+00  0.00000000E+00  1.00000000E+00  1.00000000E+00
  0.00000000E+00  1.00000000E+00  0.00000000E+00  0.00000000E+00  0.00000000E+00
  0.00000000E+00  0.00000000E+00  0.00000000E+00  0.00000000E+00  0.00000000E+00
  0.00000000E+00  0.00000000E+00
MxBond                                     I                3
NBond                                      I   N=           6
           3           2           2           1           1           1
IBond                                      I   N=          18
           2           4           5           1           3           0
           2           6           0           1           0           0
           1           0           0           3           0           0
RBond                                      R   N=          18
  2.00000000E+00  1.00000000E+00  1.00000000E+00  2.00000000E+00  2.00000000E+00
  0.00000000E+00  2.00000000E+00  1.00000000E+00  0.00000000E+00  1.00000000E+00
  0.00000000E+00  0.00000000E+00  1.00000000E+00  0.00000000E+00  0.00000000E+00
  1.00000000E+00  0.00000000E+00  0.00000000E+00
Virial Ratio                               R      2.002457628128744E+00
SCF Energy                                 R     -4.928523135169713E+02
Total Energy                               R     -4.928523135169713E+02
S**2                                       R      1.776356839400250E-15
S**2 after annihilation                    R      9.094947017729282E-13
RMS Force                                  R      3.417514021517869E-03
RMS Density                                R      2.825366633642684E-09
Job Status                                 I                1
Nuclear derivative order                   I                1
External E-field                           R   N=          35
  0.00000000E+00  0.00000000E+00  0.00000000E+00  0.00000000E+00  0.00000000E+00
  0.00000000E+00  0.00000000E+00  0.00000000E+00  0.00000000E+00  0.00000000E+00
  0.00000000E+00  0.00000000E+00  0.00000000E+00  0.00000000E+00  0.00000000E+00
  0.00000000E+00  0.00000000E+00  0.00000000E+00  0.00000000E+00  0.00000000E+00
  0.00000000E+00  0.00000000E+00  0.00000000E+00  0.00000000E+00  0.00000000E+00
  0.00000000E+00  0.00000000E+00  0.00000000E+00  0.00000000E+00  0.00000000E+00
  0.00000000E+00  0.00000000E+00  0.00000000E+00  0.00000000E+00  0.00000000E+00
IOpCl                                      I                1
IROHF                                      I                0
Alpha Orbital Energies                     R   N=         117
 -8.89451874E+01 -1.43131481E+01 -1.02074396E+01 -8.01373696E+00 -5.97522449E+00
 -5.97471148E+00 -5.97066550E+00 -9.29184611E-01 -7.67025652E-01 -6.10258010E-01
 -4.99378262E-01 -4.72339055E-01 -3.88532583E-01 -3.58900193E-01 -3.00408633E-01
 -2.42008951E-01 -7.35780898E-02  2.68012305E-02  4.51931807E-02  6.52465832E-02
  8.96867114E-02  1.37837693E-01  1.54951605E-01  2.07630751E-01  2.09127610E-01
  2.51584397E-01  2.87643835E-01  2.88346867E-01  3.24945948E-01  3.45516732E-01
  3.54184444E-01  3.92923209E-01  4.17665154E-01  4.27667935E-01  4.34666829E-01
  4.43891403E-01  4.82284709E-01  5.32200763E-01  5.55346975E-01  6.42503347E-01
  6.55922339E-01  7.38715747E-01  8.01899661E-01  8.92929605E-01  9.36063073E-01
  9.85285918E-01  9.95899409E-01  1.01817534E+00  1.19309437E+00  1.27539515E+00
  1.30224268E+00  1.33721386E+00  1.40695510E+00  1.42871284E+00  1.43275592E+00
  1.45626034E+00  1.50782145E+00  1.54682548E+00  1.56272527E+00  1.58329683E+00
  1.62329123E+00  1.65281131E+00  1.67950794E+00  1.73946615E+00  1.74416879E+00
  1.76564267E+00  1.80484846E+00  1.90084907E+00  1.94508269E+00  1.95789974E+00
  2.00435254E+00  2.02031032E+00  2.03863231E+00  2.12065980E+00  2.15200755E+00
  2.17404705E+00  2.33644813E+00  2.36541278E+00  2.40554761E+00  2.43609267E+00
  2.51495127E+00  2.53488668E+00  2.64078489E+00  2.67808352E+00  2.80366040E+00
  2.93971314E+00  3.05429676E+00  3.07908797E+00  3.13022346E+00  3.16134710E+00
  3.18754893E+00  3.28277499E+00  3.40999717E+00  3.43406591E+00  3.47603098E+00
  3.61258890E+00  3.67477642E+00  3.96872831E+00  4.01746200E+00  4.05914749E+00
  4.22809668E+00  4.28335722E+00  4.33341530E+00  4.45387779E+00  4.57821058E+00
  4.58298775E+00  4.75612316E+00  4.87089725E+00  5.00043759E+00  5.09985242E+00
  5.49233350E+00  8.76925700E+00  9.04041054E+00  9.42001611E+00  2.06255862E+01
  2.18923813E+01  3.15773866E+01
Beta Orbital Energies                      R   N=         117
 -8.89451874E+01 -1.43131481E+01 -1.02074396E+01 -8.01373696E+00 -5.97522449E+00
 -5.97471148E+00 -5.97066550E+00 -9.29184611E-01 -7.67025652E-01 -6.10258010E-01
 -4.99378262E-01 -4.72339055E-01 -3.88532583E-01 -3.58900193E-01 -3.00408633E-01
 -2.42008951E-01 -7.35780898E-02  2.68012305E-02  4.51931807E-02  6.52465832E-02
  8.96867114E-02  1.37837693E-01  1.54951605E-01  2.07630751E-01  2.09127610E-01
  2.51584397E-01  2.87643835E-01  2.88346867E-01  3.24945948E-01  3.45516732E-01
  3.54184444E-01  3.92923209E-01  4.17665154E-01  4.27667935E-01  4.34666829E-01
  4.43891403E-01  4.82284709E-01  5.32200763E-01  5.55346975E-01  6.42503347E-01
  6.55922339E-01  7.38715747E-01  8.01899661E-01  8.92929605E-01  9.36063073E-01
  9.85285918E-01  9.95899409E-01  1.01817534E+00  1.19309437E+00  1.27539515E+00
  1.30224268E+00  1.33721386E+00  1.40695510E+00  1.42871284E+00  1.43275592E+00
  1.45626034E+00  1.50782145E+00  1.54682548E+00  1.56272527E+00  1.58329683E+00
  1.62329123E+00  1.65281131E+00  1.67950794E+00  1.73946615E+00  1.74416879E+00
  1.76564267E+00  1.80484846E+00  1.90084907E+00  1.94508269E+00  1.95789974E+00
  2.00435254E+00  2.02031032E+00  2.03863231E+00  2.12065980E+00  2.15200755E+00
  2.17404705E+00  2.33644813E+00  2.36541278E+00  2.40554761E+00  2.43609267E+00
  2.51495127E+00  2.53488668E+00  2.64078489E+00  2.67808352E+00  2.80366040E+00
  2.93971314E+00  3.05429676E+00  3.07908797E+00  3.13022346E+00  3.16134710E+00
  3.18754893E+00  3.28277499E+00  3.40999717E+00  3.43406591E+00  3.47603098E+00
  3.61258890E+00  3.67477642E+00  3.96872831E+00  4.01746200E+00  4.05914749E+00
  4.22809668E+00  4.28335722E+00  4.33341530E+00  4.45387779E+00  4.57821058E+00
  4.58298775E+00  4.75612316E+00  4.87089725E+00  5.00043759E+00  5.09985242E+00
  5.49233350E+00  8.76925700E+00  9.04041054E+00  9.42001611E+00  2.06255862E+01
  2.18923813E+01  3.15773866E+01
Alpha MO coefficients                      R   N=       13689
  2.53266214E-06 -1.74809800E-05  1.08812438E-03 -3.97664233E-03  6.94213792E-05
  2.73588010E-04  1.32713518E-06 -5.68797399E-06 -3.22508771E-03  1.08998963E-04
  1.49543227E-04 -2.25776560E-04  2.28274194E-04  1.56512067E-04  6.38586039E-05
  6.44270766E-06 -1.05266558E-05 -1.01892607E-04  1.77044327E-06  7.51786331E-04
  1.53191455E-04  1.10269287E-04 -1.40433777E-03  1.35835911E-04 -1.66218737E-05
  2.91162345E-04 -3.28539812E-06  3.08513605E-05 -7.24135740E-06 -3.72147863E-04
  9.25818033E-06  9.99257014E-01 -3.17995148E-02 -1.13154671E-02  4.54121647E-03
  3.29304633E-03 -3.01616405E-05  9.00722028E-05  6.03358887E-05 -4.07037892E-05
 -8.23907265E-05 -5.35511321E-05  3.35921795E-04 -1.73051706E-04 -1.22582566E-04
 -2.05458445E-03  1.71375540E-03  1.18345074E-03 -8.55295882E-05  1.01055594E-04
  6.89120002E-05 -2.00437184E-04  9.29543434E-05  2.10058659E-04  1.60600602E-04
  1.63836733E-04 -8.78975006E-04  4.51544562E-04  5.85578549E-04  9.85709526E-04
  7.86943778E-04 -2.49067612E-04  2.73220095E-04  1.36127830E-05 -8.98553313E-05
  3.65572084E-04 -6.23910545E-04  9.38113286E-05  2.15827887E-05 -7.91068082E-05
  9.69792843E-04 -2.61442622E-03 -5.94857851E-04 -1.46368585E-04 -2.14261087E-04
 -1.38282380E-04  9.68098541E-04  1.45221359E-03  9.37821070E-04  8.68569826E-05
  5.53577927E-04  3.64305523E-04 -5.11011861E-06  2.25953592E-05  3.16883001E-05
 -1.98594767E-05  3.44767346E-05  1.70956889E-04 -4.49428939E-04 -6.20805905E-04
  2.67133544E-04 -6.94644751E-04 -1.41832019E-04  9.10840554E-06  4.70391463E-06
 -5.59948158E-05  1.98384548E-04 -1.60139025E-04  6.84639597E-05 -1.10712747E-05
 -2.05414582E-04  1.16521527E-04 -4.77729459E-05  4.95370651E-06  4.42775637E-06
  1.96766892E-05 -2.01768584E-04 -1.92672001E-04 -8.61837774E-05 -3.33086757E-05
 -1.99823781E-05 -3.16052686E-05 -1.14837193E-04 -2.10386093E-04  1.75905101E-05
  1.63463922E-05  1.03924174E-05  4.38725583E-06 -2.33384268E-05  1.70054053E-04
  3.80028348E-04 -2.96286429E-03 -1.25052196E-05  5.03588056E-05  3.36347079E-05
  1.65666884E-03 -1.23188481E-04 -1.21343508E-04 -1.35344847E-03  4.30763313E-04
  3.17614588E-04 -7.79552947E-05  2.81784971E-05  7.96768579E-05  6.47949080E-05
  5.17131976E-05  5.00278125E-05 -1.97673253E-04 -8.79804616E-04  6.76022036E-04
 -2.98272093E-04  3.50868024E-05 -1.73671155E-05  2.49837391E-05 -5.78488958E-05
  3.69607224E-05  3.15972286E-06 -9.49591492E-05  8.04396710E-05 -1.83187292E-04
 -6.01196217E-04  4.42355201E-04  3.45824398E-03 -3.09913592E-05 -2.37783912E-05
 -1.49921761E-05  1.23200780E-04  5.29753269E-05  3.20988767E-05 -6.46848643E-04
 -4.33680538E-04 -2.71471773E-04  4.03454543E-03  3.79703107E-03  2.41597075E-03
 -1.66273323E-03 -5.09070837E-04 -2.97016323E-04 -1.96204089E-05  2.37948965E-04
  2.80496339E-04 -2.22977938E-04  3.59208946E-04 -3.19262032E-04  9.96068621E-04
  1.76285589E-03 -1.02354158E-03  1.52955588E-03 -3.02698047E-04 -9.56130557E-05
  4.56653416E-05 -2.03412716E-04  2.35429767E-04 -5.91274442E-05  6.66376480E-05
  4.48271660E-01  6.27138565E-01  3.55910356E-02 -2.65420643E-02  1.06030830E-02
 -2.32966135E-03 -6.04826077E-04 -3.44132449E-04  3.78417061E-03  2.77110465E-03
  1.74283393E-03 -1.33759822E-03  5.03988279E-04  3.65911697E-04 -8.76052801E-05
  6.07877747E-05  2.96704030E-04 -1.05275440E-04  1.00652810E-04  3.68653323E-04
 -7.04628453E-04 -1.18875434E-03  4.27774683E-04 -1.10034782E-03 -1.53719717E-04
 -2.21267419E-06  1.13089193E-05 -7.63655549E-05  2.06350847E-04 -1.51192954E-04
  5.82070553E-05  9.24142658E-05  1.12908585E-03  1.26415782E-04  1.08270552E-04
  1.11920889E-04  7.14818558E-05  7.09407375E-05  8.61078809E-04 -1.09948156E-04
  2.76352687E-04 -8.46718357E-05 -6.26947153E-05  1.79709608E-04  8.77974239E-04
 -3.04510928E-03 -1.02469681E-04  1.52796041E-04  1.03604972E-04  4.66727893E-01
  6.08867972E-01  3.54569073E-02 -1.82224580E-02  9.65140385E-03  7.31955019E-04
  8.66789242E-06 -1.17352713E-05 -4.52996846E-03 -3.25578320E-04 -1.06677770E-04
 -1.06835316E-03 -1.36601081E-04 -6.47010324E-05 -5.52824251E-04 -5.67466675E-05
  8.28243304E-04  2.56455109E-04 -2.17409311E-05  2.89475105E-04 -6.79755161E-06
  1.59949390E-03 -1.85720119E-03 -5.73474562E-05  6.36796423E-06 -4.77553143E-05
  5.53412458E-06  6.22778884E-05 -1.08177345E-03  8.09026208E-04  6.39433874E-05
 -1.58368925E-05  8.63921738E-06  1.13633296E-05  6.84934454E-04  3.80752498E-03
  3.49718815E-05 -1.36212925E-05 -9.85428495E-06 -1.09307994E-04  5.80805687E-05
  4.10609647E-05 -9.04958498E-05 -1.69479613E-04 -1.09988119E-04 -1.75130054E-03
  4.29026120E-04  3.25967664E-04 -4.53270050E-04  1.29423055E-03  8.67380954E-04
  9.64181929E-05  2.80338404E-05 -1.32681870E-04 -5.61192516E-05  3.10657050E-05
 -1.66038672E-04 -1.71360577E-04  4.82014253E-04 -1.08929450E-04 -2.40745284E-04
  4.24227479E-05 -5.68661578E-04  7.39365114E-05 -2.17390575E-04 -7.11289320E-05
  7.95317639E-04 -2.04669192E-04  1.79333640E-06 -1.27978807E-05  9.68263572E-05
  2.34334330E-04 -3.11760163E-03 -1.09629571E-04 -5.25556447E-06 -8.40761737E-07
  4.87690396E-04 -3.14370888E-04 -2.19808464E-04  1.35010480E-03  4.33059038E-04
  2.54140425E-04 -4.63435933E-05  2.05690579E-05  2.64313651E-05  5.60095703E-05
  3.66517561E-05  2.51783229E-04  3.32481325E-05 -6.13566179E-05 -3.85582907E-04
  1.88520227E-05 -6.65250437E-07 -4.60044276E-05 -1.84196847E-05  4.15575304E-05
 -9.24132249E-06  6.32385389E-05  5.37847195E-05 -7.88558150E-04 -2.58324800E-03
 -1.97638663E-03 -1.13376605E-03 -1.67275330E-03 -1.07985558E-03 -7.59954316E-04
 -2.36164095E-03 -2.03620532E-03 -1.25761697E-03  1.54285919E-03  1.05139427E-03
 -4.56791831E-06  8.94473972E-04 -5.05920827E-05  5.68015674E-05 -1.60201225E-04
 -1.07420672E-04 -7.90445328E-05 -1.68722179E-04  3.75653450E-03 -1.41705539E-02
  2.97332926E-03  8.77718178E-04 -5.06262599E-06 -2.44159938E-05 -1.15077723E-02
  4.80287914E-04  5.94065317E-04  1.71237876E-04  8.19367143E-04  5.38232659E-04
  2.09051538E-04  1.42476576E-05 -3.87182821E-05 -3.29409044E-04 -4.49069312E-06
  2.58071510E-03  5.49016722E-04  4.74748710E-04 -4.90426913E-03  5.00537154E-04
 -5.94832989E-05  8.16239477E-04 -1.40202026E-05  9.96659871E-05 -7.78792224E-05
 -1.00528816E-03  5.23619073E-05 -2.87842556E-01 -2.38941184E-01  8.06410962E-01
  3.38802496E-02  4.30510912E-03 -1.82474803E-03  3.69819778E-03  2.49142105E-03
 -1.37046950E-03  2.28740479E-03  1.54680298E-03  1.30980817E-03 -5.47229924E-04
 -3.93578090E-04 -8.08791853E-03  5.72918218E-03  3.98562863E-03  5.66075873E-04
 -4.65328351E-04 -3.21614305E-04 -6.41143877E-04  4.37010539E-04  5.18673696E-04
  6.32773429E-04  7.35654349E-04 -3.14981502E-03  1.43492507E-03  1.91480870E-03
  3.70264383E-03  2.54514094E-03 -8.89057297E-04  1.06492821E-03  5.07534340E-05
 -3.17050975E-04  1.29092110E-03 -2.33270076E-03  3.26359763E-04 -4.12847017E-05
 -2.60438101E-04  3.02708264E-03 -8.59544477E-03 -9.55132136E-05 -4.39636106E-04
 -6.40506166E-04 -4.13327004E-04  3.05382256E-03  4.61833247E-03  2.98305750E-03
 -3.55176537E-04  1.53953096E-03  1.02753364E-03 -1.45237859E-05  5.83075254E-05
  8.20569753E-05 -4.91851296E-05  8.91306436E-05  5.20885060E-04 -1.35435355E-03
 -1.86960163E-03  7.94156533E-04 -2.09402627E-03 -3.00941955E-04  1.77510383E-05
  1.25789151E-05 -1.24600128E-04  4.11250977E-04 -3.30735751E-04  1.38916653E-04
 -1.06801376E-04 -7.91232616E-04  4.46143282E-05 -1.31723526E-04 -7.61248039E-06
 -1.86760653E-06 -1.21429521E-05 -8.85628613E-04 -8.99950853E-04 -3.07024880E-04
 -6.71297212E-05 -3.70772240E-05 -8.56495075E-05 -5.77519851E-04 -8.99272000E-04
 -1.28894910E-05  2.97065579E-05  1.99684758E-05  1.40095237E-04  2.16094971E-04
  1.40013520E-03 -1.27913944E-02 -3.31353615E-03 -1.59761040E-04 -3.13448778E-05
 -1.68859371E-05 -1.00443987E-02  5.02616016E-04  5.73508296E-04 -1.65623649E-03
 -5.03066461E-04 -2.93035377E-04  9.17558319E-05 -3.01507116E-05 -2.62584384E-05
 -1.33824423E-04 -5.67690191E-05  1.43099883E-03  3.78435578E-04  3.41280141E-04
 -2.79159383E-03  3.88804952E-04  1.18630770E-06 -2.08517330E-04  3.72290072E-05
 -1.05142001E-04 -6.04400881E-05  3.15404257E-04 -9.05294945E-05  3.71808149E-04
  2.64153486E-04 -1.21464227E-03  1.43004863E-04  6.39486729E-03  6.06795631E-01
  3.20231625E-01  1.97226663E-01  2.89616274E-01  1.52986736E-01  9.42289069E-02
  6.72357547E-02  3.48964517E-02  2.14663789E-02 -2.26147373E-02 -9.21135497E-03
 -5.55084391E-03 -1.96143148E-03  2.43145161E-04  2.07225200E-04  3.50403763E-04
  6.29839508E-04  8.34548724E-04 -1.36369972E-03  8.99583747E-04 -2.52078460E-03
 -2.04698978E-03 -2.59474214E-03  6.71885189E-03 -2.75137110E-03  3.55619618E-04
  7.41399422E-04 -1.15216075E-04  4.71247625E-04 -6.25425955E-04 -5.08738148E-04
  9.25681763E-05 -1.34099503E-04 -2.18355127E-04 -5.58219757E-04  6.32926036E-03
  3.54173911E-03 -8.62503841E-05 -2.63907254E-04 -1.72585335E-04 -2.54462043E-03
 -2.64821264E-03 -1.69152306E-03 -1.58137513E-03 -9.31921739E-04 -5.78562897E-04
 -1.17273959E-05  1.99622420E-05  7.27778897E-05 -4.31148532E-05  3.10452323E-05
 -1.55092903E-04  2.41800769E-04  3.23270953E-04 -2.53175591E-05  3.81828107E-04
 -3.16597690E-04  1.39553263E-05  2.48187926E-05 -1.53736693E-04  3.48187086E-04
 -2.82079079E-04  1.20754831E-04 -2.07226333E-04 -1.12794949E-04  2.71588757E-05
  3.25799374E-04 -1.50307054E-04 -1.07302021E-04 -2.25059105E-04 -1.78167685E-04
  6.00209873E-04 -1.23372394E-04  9.27276708E-05  6.43520311E-05  5.86799090E-05
 -1.24167290E-03 -1.42879823E-04  1.03467974E-04  2.51385899E-04  1.63868257E-04
  2.63675030E-08  3.72646052E-08  2.74489935E-07 -2.36218038E-06 -7.00691279E-07
 -2.14603305E-06  5.85177054E-05 -8.84263048E-05  2.08209635E-05 -6.25161047E-04
  9.44820698E-04 -1.54192939E-05  4.17422753E-04 -6.30991049E-04 -2.16674467E-05
  5.45572318E-06 -1.04212435E-05 -1.22645622E-05 -4.27137986E-06  4.20440520E-05