0004_q000_m01_k00_opt_uwb97xd_def2svpd/0004_q000_m01_k00_force_ub3lyp_de
Force     UB3LYP                                                      Gen                 
Number of atoms                            I                6
Info1-9                                    I   N=           9
          13           9           0           0           0         100
           5          18        -502
Full Title                                 C   N=           8
0004_q000_m01_k00_opt_uwb97xd_def2svpd/0004_q000_m01_k00_for
ce_ub3lyp_def2svp stable-force      
Route                                      C   N=          15
#p ub3lyp/chkbasis force guess=read geom=check scf=(maxcycle
=900,verytightlineq,xqc) integral=grid=ultrafine symmetry=No
ne density=current pop=(cm5,hlygat,mbs,npa) output=wfx      
Charge                                     I                0
Multiplicity                               I                1
Number of electrons                        I               32
Number of alpha electrons                  I               16
Number of beta electrons                   I               16
Number of basis functions                  I               61
Number of independent functions            I               61
Number of point charges in /Mol/           I                0
Number of translation vectors              I                0
Atomic numbers                             I   N=           6
           6          16           7           1           1           1
Nuclear charges                            R   N=           6
  6.00000000E+00  1.60000000E+01  7.00000000E+00  1.00000000E+00  1.00000000E+00
  1.00000000E+00
Current cartesian coordinates              R   N=          18
  1.67863146E+00  2.68784369E-01  2.05840898E-01  4.73702225E+00  1.96852105E-01
  8.48289160E-02  6.24221873E+00  2.32416928E+00  1.45652951E+00  7.09165380E-01
 -1.25729983E+00 -7.80890272E-01  6.12793001E-01  1.72884379E+00  1.19782199E+00
  5.12841835E+00  3.62849725E+00  2.34675860E+00
Number of symbols in /Mol/                 I                0
Int Atom Types                             I   N=           6
           0           0           0           0           0           0
Force Field                                I                0
Atom Types                                 C   N=           6
                                                            
            
MM charges                                 R   N=           6
  0.00000000E+00  0.00000000E+00  0.00000000E+00  0.00000000E+00  0.00000000E+00
  0.00000000E+00
Integer atomic weights                     I   N=           6
          12          32          14           1           1           1
Real atomic weights                        R   N=           6
  1.20000000E+01  3.19720718E+01  1.40030740E+01  1.00782504E+00  1.00782504E+00
  1.00782504E+00
Atom fragment info                         I   N=           6
           0           0           0           0           0           0
Atom residue num                           I   N=           6
           0           0           0           0           0           0
Nuclear spins                              I   N=           6
           0           0           2           1           1           1
Nuclear ZEff                               R   N=           6
 -3.60000000E+00 -1.36000000E+01 -4.55000000E+00 -1.00000000E+00 -1.00000000E+00
 -1.00000000E+00
Nuclear ZNuc                               R   N=           6
  6.00000000E+00  1.60000000E+01  7.00000000E+00  1.00000000E+00  1.00000000E+00
  1.00000000E+00
Nuclear QMom                               R   N=           6
  0.00000000E+00  0.00000000E+00  2.04400000E+00  0.00000000E+00  0.00000000E+00
  0.00000000E+00
Nuclear GFac                               R   N=           6
  0.00000000E+00  0.00000000E+00  4.03761000E-01  2.79284600E+00  2.79284600E+00
  2.79284600E+00
MicOpt                                     I   N=           6
          -1          -1          -1          -1          -1          -1
Number of residues                         I                0
Number of secondary structures             I                0
Number of contracted shells                I               29
Number of primitive shells                 I               57
Pure/Cartesian d shells                    I                0
Pure/Cartesian f shells                    I                0
Highest angular momentum                   I                2
Largest degree of contraction              I                5
Shell types                                I   N=          29
           0           0           0           1           1          -2
           0           0           0           0           1           1
           1          -2           0           0           0           1
           1          -2           0           0           1           0
           0           1           0           0           1
Number of primitives per shell             I   N=          29
           5           1           1           3           1           1
           5           3           1           1           5           1
           1           1           5           1           1           3
           1           1           3           1           1           3
           1           1           3           1           1
Shell to atom map                          I   N=          29
           1           1           1           1           1           1
           2           2           2           2           2           2
           2           2           3           3           3           3
           3           3           4           4           4           5
           5           5           6           6           6
Primitive exponents                        R   N=          57
  1.23840169E+03  1.86290050E+02  4.22511763E+01  1.16765579E+01  3.59305065E+00
  4.02451474E-01  1.30901827E-01  9.46809706E+00  2.01035451E+00  5.47710047E-01
  1.52686138E-01  8.00000000E-01  9.18493030E+03  1.38151055E+03  3.13871476E+02
  8.80538706E+01  2.70399149E+01  4.56487313E+01  4.96645223E+00  2.01162420E+00
  3.56610770E-01  1.35072215E-01  2.61982334E+02  6.13068947E+01  1.91037299E+01
  6.65677204E+00  2.39596352E+00  6.17761617E-01  1.69933769E-01  5.50000000E-01
  1.71284159E+03  2.57648127E+02  5.84582459E+01  1.61983679E+01  5.00526008E+00
  5.87318566E-01  1.87645923E-01  1.35714702E+01  2.92573729E+00  7.99277508E-01
  2.19543480E-01  1.00000000E+00  1.30107010E+01  1.96225720E+00  4.44537960E-01
  1.21949620E-01  8.00000000E-01  1.30107010E+01  1.96225720E+00  4.44537960E-01
  1.21949620E-01  8.00000000E-01  1.30107010E+01  1.96225720E+00  4.44537960E-01
  1.21949620E-01  8.00000000E-01
Contraction coefficients                   R   N=          57
  5.51736505E-03  4.10888286E-02  1.82253821E-01  4.68284594E-01  4.45758173E-01
  1.00000000E+00  1.00000000E+00  5.68883320E-02  3.12940593E-01  7.60650165E-01
  1.00000000E+00  1.00000000E+00 -5.47294661E-03 -4.09544022E-02 -1.84758290E-01
 -4.75672806E-01 -4.34951536E-01 -9.19040458E-02  5.56987772E-01  5.11154683E-01
  1.00000000E+00  1.00000000E+00 -9.18305466E-03 -6.59022265E-02 -2.45877845E-01
 -4.82314711E-01 -3.89563144E-01  1.00000000E+00  1.00000000E+00  1.00000000E+00
 -5.44779958E-03 -4.06271746E-02 -1.81119623E-01 -4.68439756E-01 -4.46168463E-01
  1.00000000E+00  1.00000000E+00 -5.88481170E-02 -3.20246248E-01 -7.53282265E-01
  1.00000000E+00  1.00000000E+00  3.34854848E-02  2.34721871E-01  8.13770285E-01
  1.00000000E+00  1.00000000E+00  3.34854848E-02  2.34721871E-01  8.13770285E-01
  1.00000000E+00  1.00000000E+00  3.34854848E-02  2.34721871E-01  8.13770285E-01
  1.00000000E+00  1.00000000E+00
Coordinates of each shell                  R   N=          87
  1.67863146E+00  2.68784369E-01  2.05840898E-01  1.67863146E+00  2.68784369E-01
  2.05840898E-01  1.67863146E+00  2.68784369E-01  2.05840898E-01  1.67863146E+00
  2.68784369E-01  2.05840898E-01  1.67863146E+00  2.68784369E-01  2.05840898E-01
  1.67863146E+00  2.68784369E-01  2.05840898E-01  4.73702225E+00  1.96852105E-01
  8.48289160E-02  4.73702225E+00  1.96852105E-01  8.48289160E-02  4.73702225E+00
  1.96852105E-01  8.48289160E-02  4.73702225E+00  1.96852105E-01  8.48289160E-02
  4.73702225E+00  1.96852105E-01  8.48289160E-02  4.73702225E+00  1.96852105E-01
  8.48289160E-02  4.73702225E+00  1.96852105E-01  8.48289160E-02  4.73702225E+00
  1.96852105E-01  8.48289160E-02  6.24221873E+00  2.32416928E+00  1.45652951E+00
  6.24221873E+00  2.32416928E+00  1.45652951E+00  6.24221873E+00  2.32416928E+00
  1.45652951E+00  6.24221873E+00  2.32416928E+00  1.45652951E+00  6.24221873E+00
  2.32416928E+00  1.45652951E+00  6.24221873E+00  2.32416928E+00  1.45652951E+00
  7.09165380E-01 -1.25729983E+00 -7.80890272E-01  7.09165380E-01 -1.25729983E+00
 -7.80890272E-01  7.09165380E-01 -1.25729983E+00 -7.80890272E-01  6.12793001E-01
  1.72884379E+00  1.19782199E+00  6.12793001E-01  1.72884379E+00  1.19782199E+00
  6.12793001E-01  1.72884379E+00  1.19782199E+00  5.12841835E+00  3.62849725E+00
  2.34675860E+00  5.12841835E+00  3.62849725E+00  2.34675860E+00  5.12841835E+00
  3.62849725E+00  2.34675860E+00
Num ILSW                                   I              100
ILSW                                       I   N=         100
           1           0           0           0           2           0
           0           0           0           0         402          -1
           5           0           0           0           2           0
           0           0           0           0           1           0
           1           1           0           0           0           0
           0           0      100000           0          -1           0
           0           0           0           0           0           0
           0           0           0           1           0           0
           0 -2000000000           1           0           0           0
           0           0           4          52           0           0
           0           0           5           0           0           0
           0           0           0           6           0           1
           0           0           0           0           0           0
           0           0           0           0           0           0
           0           0           0           0           0           0
           0           0           0           0           0           0
           0           0           0           0
Num RLSW                                   I               52
RLSW                                       R   N=          52
  8.00000000E-01  7.20000000E-01  1.00000000E+00  8.10000000E-01  2.00000000E-01
  0.00000000E+00  0.00000000E+00  1.00000000E+00  0.00000000E+00  0.00000000E+00
  0.00000000E+00  0.00000000E+00  1.00000000E+00  0.00000000E+00  0.00000000E+00
  0.00000000E+00  0.00000000E+00  1.00000000E+00  0.00000000E+00  0.00000000E+00
  0.00000000E+00  0.00000000E+00  1.00000000E+00  0.00000000E+00  0.00000000E+00
  0.00000000E+00  0.00000000E+00  1.00000000E+00  0.00000000E+00  0.00000000E+00
  0.00000000E+00  0.00000000E+00  1.00000000E+00  0.00000000E+00  0.00000000E+00
  0.00000000E+00  0.00000000E+00  0.00000000E+00  1.00000000E+00  1.00000000E+00
  0.00000000E+00  1.00000000E+00  0.00000000E+00  0.00000000E+00  0.00000000E+00
  0.00000000E+00  0.00000000E+00  0.00000000E+00  0.00000000E+00  0.00000000E+00
  0.00000000E+00  0.00000000E+00
MxBond                                     I                3
NBond                                      I   N=           6
           3           2           2           1           1           1
IBond                                      I   N=          18
           2           4           5           1           3           0
           2           6           0           1           0           0
           1           0           0           3           0           0
RBond                                      R   N=          18
  2.00000000E+00  1.00000000E+00  1.00000000E+00  2.00000000E+00  2.00000000E+00
  0.00000000E+00  2.00000000E+00  1.00000000E+00  0.00000000E+00  1.00000000E+00
  0.00000000E+00  0.00000000E+00  1.00000000E+00  0.00000000E+00  0.00000000E+00
  1.00000000E+00  0.00000000E+00  0.00000000E+00
Virial Ratio                               R      2.003646815576897E+00
SCF Energy                                 R     -4.925829254915163E+02
Total Energy                               R     -4.925829254915163E+02
S**2                                       R     -1.065814103640150E-14
S**2 after annihilation                    R     -4.263256414560510E-14
RMS Force                                  R      3.320687196690610E-03
RMS Density                                R      1.536011752177028E-09
Job Status                                 I                1
Nuclear derivative order                   I                1
External E-field                           R   N=          35
  0.00000000E+00  0.00000000E+00  0.00000000E+00  0.00000000E+00  0.00000000E+00
  0.00000000E+00  0.00000000E+00  0.00000000E+00  0.00000000E+00  0.00000000E+00
  0.00000000E+00  0.00000000E+00  0.00000000E+00  0.00000000E+00  0.00000000E+00
  0.00000000E+00  0.00000000E+00  0.00000000E+00  0.00000000E+00  0.00000000E+00
  0.00000000E+00  0.00000000E+00  0.00000000E+00  0.00000000E+00  0.00000000E+00
  0.00000000E+00  0.00000000E+00  0.00000000E+00  0.00000000E+00  0.00000000E+00
  0.00000000E+00  0.00000000E+00  0.00000000E+00  0.00000000E+00  0.00000000E+00
IOpCl                                      I                1
IROHF                                      I                0
Alpha Orbital Energies                     R   N=          61
 -8.89341474E+01 -1.43153824E+01 -1.02139862E+01 -8.02353521E+00 -5.99107347E+00
 -5.98905743E+00 -5.98550312E+00 -9.25085439E-01 -7.58325215E-01 -6.01590296E-01
 -4.95660969E-01 -4.67085950E-01 -3.87027805E-01 -3.55085921E-01 -2.86510689E-01
 -2.32607544E-01 -6.41930764E-02  5.34215441E-02  6.82830384E-02  8.60759906E-02
  1.36966418E-01  2.02516256E-01  3.12180953E-01  4.00071603E-01  4.67710408E-01
  4.92680158E-01  4.95286997E-01  5.87928611E-01  5.98224270E-01  6.31654670E-01
  6.34193576E-01  6.42296928E-01  6.58025052E-01  7.11011401E-01  7.48966731E-01
  7.93999917E-01  8.17761698E-01  8.59548104E-01  9.49663922E-01  1.02160274E+00
  1.09849207E+00  1.15587143E+00  1.17753200E+00  1.41214675E+00  1.51470371E+00
  1.54447329E+00  1.57781221E+00  1.66470862E+00  1.97728078E+00  2.02110495E+00
  2.02876683E+00  2.09454633E+00  2.19053781E+00  2.30400350E+00  2.38102706E+00
  2.52166282E+00  2.52732547E+00  2.75180888E+00  2.85274942E+00  2.87321017E+00
  3.21462629E+00
Beta Orbital Energies                      R   N=          61
 -8.89341474E+01 -1.43153824E+01 -1.02139862E+01 -8.02353521E+00 -5.99107347E+00
 -5.98905743E+00 -5.98550312E+00 -9.25085439E-01 -7.58325215E-01 -6.01590296E-01
 -4.95660969E-01 -4.67085950E-01 -3.87027805E-01 -3.55085921E-01 -2.86510689E-01
 -2.32607544E-01 -6.41930764E-02  5.34215441E-02  6.82830384E-02  8.60759906E-02
  1.36966418E-01  2.02516256E-01  3.12180953E-01  4.00071603E-01  4.67710408E-01
  4.92680158E-01  4.95286997E-01  5.87928611E-01  5.98224270E-01  6.31654670E-01
  6.34193576E-01  6.42296928E-01  6.58025052E-01  7.11011401E-01  7.48966731E-01
  7.93999917E-01  8.17761698E-01  8.59548104E-01  9.49663922E-01  1.02160274E+00
  1.09849207E+00  1.15587143E+00  1.17753200E+00  1.41214675E+00  1.51470371E+00
  1.54447329E+00  1.57781221E+00  1.66470862E+00  1.97728078E+00  2.02110495E+00
  2.02876683E+00  2.09454633E+00  2.19053781E+00  2.30400350E+00  2.38102706E+00
  2.52166282E+00  2.52732547E+00  2.75180888E+00  2.85274942E+00  2.87321017E+00
  3.21462629E+00
Alpha MO coefficients                      R   N=        3721
  1.31715585E-04 -5.65800486E-04  2.23195547E-03 -4.74348912E-04  4.30140049E-07
  1.16689733E-05  8.99886804E-04  2.06556987E-04  1.15112887E-04  3.15651180E-04
  7.46937858E-05  6.88807668E-06 -5.57005795E-04  7.29348430E-05  9.94227481E-01
 -2.18673501E-02  1.01139986E-02 -6.16654617E-03 -1.03936220E-04  1.47563815E-04
  1.00153411E-04 -3.75665145E-04  4.34871152E-04  2.96813548E-04  1.65695846E-03
  8.05344576E-05  1.35188612E-05 -1.52747149E-04  2.04197861E-04  2.22060619E-04
  5.92726910E-05  3.25446705E-04 -7.88071356E-05 -2.83786407E-05 -5.91307365E-04
 -1.57508630E-04 -1.90223972E-04 -1.22105212E-04  4.55024983E-04  8.41139011E-04
  5.45711579E-04  1.53833081E-04 -2.84824728E-04 -4.77874911E-04  1.62387860E-04
 -4.45410776E-04 -8.39336796E-05  2.92348754E-04  6.06025273E-05  2.58257005E-05
  1.56373643E-05 -8.82798196E-05 -1.81003785E-04 -4.28160706E-05 -7.00531832E-05
 -4.53398397E-05 -4.87764809E-05  2.40000316E-04 -1.60992755E-04 -1.69957439E-04
 -1.08595167E-04 -3.76011059E-05  9.41302027E-05  2.73694099E-03  3.38360362E-04
  5.27648194E-05  2.67706937E-05  1.27534843E-03  9.23126072E-04  5.80376380E-04
 -7.66855382E-05  1.75515270E-04 -1.01754200E-04  2.05073614E-04  2.74878061E-04
 -6.72738077E-05 -5.36065681E-04  1.79159464E-03 -1.09142090E-02  1.95410476E-04
  2.90939541E-04  1.87844696E-04  3.88732327E-04  8.76047396E-04  5.70405524E-04
 -8.77016313E-04 -4.58225193E-03 -3.01141680E-03 -3.55707402E-05  6.38791248E-04
  5.16217927E-04 -4.27111599E-04  9.63866467E-04  9.88799324E-01 -4.22718767E-02
  2.52165750E-02 -3.44820415E-03  4.88365077E-04  4.06474029E-04 -4.04873709E-03
 -3.11540683E-03 -1.96434480E-03  2.79609167E-04  6.63091680E-04 -1.08759086E-03
  3.87533697E-04  9.71420305E-04  8.67593165E-05  1.41329588E-05 -8.25106126E-05
 -5.86752041E-05 -3.68589580E-05 -1.79160516E-04 -1.36598342E-04  7.49044062E-05
 -7.46101668E-05 -5.11844033E-05  3.09579237E-03 -4.44389385E-03  2.49894017E-03
 -2.21392050E-03 -1.52572513E-03  9.88291105E-01  4.69703424E-02 -2.78398627E-02
 -7.62785853E-04 -6.61843995E-05 -2.52914567E-05  7.33248367E-04 -4.43405080E-04
 -3.11232407E-04 -1.19844753E-03 -1.80072623E-04  2.35516504E-03  8.54100056E-05
 -1.36897966E-04  9.19137411E-05  7.70019329E-04 -1.92480668E-03  4.51365894E-03
  4.53181227E-04 -9.25940417E-06 -1.70043355E-05  1.80646119E-03 -9.99862870E-05
 -1.09529076E-04  5.14674953E-04  6.46240496E-04  4.15358334E-04  1.39038498E-03
  2.56185292E-04 -8.38995174E-05 -2.35085050E-03  2.12296977E-04 -3.26666239E-05
 -2.23254278E-04 -7.41399001E-04 -2.63204943E-04 -5.36985873E-05 -2.92327212E-05
 -4.66370367E-04  5.56689147E-04  3.79594956E-04 -3.89366835E-05 -1.03611882E-04
  8.04938525E-05  7.10043485E-06 -1.51831952E-04 -4.60151574E-03  6.85798466E-03
 -1.45059605E-03 -2.13250579E-03 -1.37650894E-03 -4.41522046E-03  7.30737013E-03
 -1.52395597E-03  2.10128348E-03  1.42741282E-03 -3.83105252E-04  2.01482711E-04
 -1.31862851E-04 -5.43581799E-05 -3.27800608E-05  2.14224185E-04 -1.92856288E-03
  6.27819859E-03 -1.28010537E-03  2.94987028E-05  5.02408013E-05  2.44853285E-03
  7.20230789E-04  4.17908764E-04  5.82758142E-04  1.46292114E-04 -1.57967543E-04
 -8.84126943E-04  1.48460054E-04  3.06431299E-01  1.02026643E+00  5.13126863E-02
 -2.18861260E-02  3.36866164E-03 -6.31431458E-03 -4.25991836E-03 -1.25899042E-03
  1.60150367E-03  1.09011326E-03  4.22720214E-03 -1.21820148E-04 -1.82098431E-04
 -4.57870657E-04  5.95133206E-04  5.81990072E-04  2.50013918E-04  9.50558043E-04
 -1.01624617E-04 -4.95937140E-04 -8.68190575E-04 -4.48459274E-04 -5.39483094E-04
 -3.46249781E-04  1.21286136E-03  1.79531700E-03  1.15890816E-03  2.87320404E-04
 -4.04572474E-04 -8.73492372E-04  2.77053695E-04 -6.40034663E-04  3.87833545E-05
  9.40290191E-04  3.69143158E-04  1.30692593E-04  7.76350402E-05 -1.02484866E-04
 -5.55260068E-04  1.26490651E-04 -1.78692232E-04 -1.21309091E-04  1.37029083E-04
  8.60977597E-04 -3.73656243E-04 -5.35657086E-04 -3.45498969E-04  7.60881767E-05
 -1.12792467E-03  5.06672420E-03 -1.33197291E-03  1.51461258E-04  1.32178228E-04
  2.09590241E-03 -1.33974323E-03 -9.36854222E-04  7.32638554E-04  2.64242720E-04
 -5.80596770E-05 -1.23714810E-03  3.06787431E-04  3.97474875E-04  1.34391387E-03
  7.83068667E-04 -5.85377092E-03  8.26368149E-01  4.50449218E-01  2.78206565E-01
 -4.39607055E-02 -2.37734254E-02 -1.46747278E-02  9.44093832E-03  2.94402025E-03
  1.72114513E-03 -2.80326781E-04 -8.02065415E-04 -1.20497917E-03  1.57042164E-03
 -1.16557984E-03 -5.03430693E-05 -9.51795045E-05  1.93866850E-03  3.61012212E-04
  6.41265324E-04  4.15713724E-04 -2.79311614E-03 -7.61299989E-04 -4.36563798E-04
 -3.55702858E-04  5.22857777E-04  1.02262619E-03 -2.94763049E-04  8.25897466E-04
 -4.60988104E-04 -1.77761739E-04  2.51333745E-04  3.21862290E-05  1.52571661E-05
  3.90365866E-04  3.32890724E-04  4.40564901E-05 -1.71884125E-04 -1.14850938E-04
 -9.76735902E-04 -5.18606846E-04  1.26576341E-04  4.30046246E-04  2.81605350E-04
  6.14411447E-09 -1.02625476E-07  5.11553902E-07  4.93136883E-06 -1.39003122E-04
  2.10041370E-04 -2.99309619E-05  8.32889952E-04 -1.25857037E-03 -1.73138603E-05
  3.19597067E-04  3.07720405E-06  5.21949983E-06 -2.11734269E-04 -4.01613399E-08
 -1.60488653E-07  1.95052725E-07 -6.62267997E-07  1.97257421E-02 -5.41946706E-01
  8.18883209E-01 -9.93926981E-04  2.73035729E-02 -4.12558096E-02  1.74846882E-04
 -4.79723639E-03  7.24840552E-03 -2.73435699E-04  1.08465970E-04 -1.29995096E-04
 -1.52349777E-04 -7.99901924E-05 -5.23309725E-09 -5.52332832E-08  3.03235486E-07
 -4.16195589E-06  1.14679743E-04 -1.73238388E-04 -2.12197742E-05  5.78784123E-04
 -8.74536673E-04 -2.56771895E-04 -1.67129900E-04 -1.31796909E-04 -1.56104337E-04
  1.02742717E-04 -1.45225729E-08  1.49569127E-09  2.61717779E-06 -7.19834174E-05
  1.08782305E-04  3.05418425E-08  4.64632537E-08  3.59947101E-06 -9.93676823E-05
  1.50081147E-04 -3.77234418E-08 -1.37640884E-07  9.05266953E-07 -2.41851435E-05
  3.66272670E-05 -1.70776973E-05  8.38259091E-04 -6.49175132E-03  6.88562597E-04
  9.75470278E-05  4.80442708E-05 -2.13011905E-03 -1.62429026E-03 -1.02395666E-03
 -3.89351793E-04  1.95034129E-04 -6.46937470E-05  7.12166661E-04  3.43217076E-04
  2.78233596E-03  9.97283242E-03 -3.38094353E-03  7.45070000E-03 -5.29336810E-01
  6.83792660E-01  4.65293177E-01  2.72409431E-02 -3.49446363E-02 -2.37829045E-02
 -6.94877200E-03  7.44010758E-03  5.09111901E-03  2.04448584E-04  9.50476894E-05
 -3.80206829E-04 -3.79531603E-05  1.20170776E-04 -3.44956690E-05  2.84580764E-04
 -2.04500274E-03  3.23391354E-04  1.96129550E-04  1.22015066E-04  8.66605055E-04
 -8.02734809E-05 -7.39264313E-05 -2.32001554E-04  2.36132050E-04  2.08659809E-04
  2.05022130E-04  3.83699865E-04 -2.99358273E-04  3.42999410E-04  1.82786734E-04
 -8.11383368E-05 -5.80783395E-05  6.06165557E-04  9.98322021E-04 -7.41761903E-05
 -3.61378355E-05 -2.21429313E-05  8.26974869E-05 -7.39364100E-04  3.50064925E-04
  4.17840170E-04  2.68091163E-04 -7.01953201E-02  1.34549725E-01  8.96728779E-03
  6.95059096E-02  4.20728539E-03  1.11672095E-03  5.93223814E-03  7.47054562E-05
 -9.30333895E-05 -4.80693312E-03  5.35471596E-04 -3.98524514E-04  8.60021026E-03
  1.41277118E-03 -5.70662601E-02 -3.52497011E-01  5.03964614E-01  1.45174605E-01
  4.57231519E-03  5.58088239E-02  3.68248743E-02  9.48109340E-03  9.33535633E-02
  6.15543899E-02 -8.08664406E-03  4.72643488E-02  3.14755614E-02 -1.29281883E-02
  1.42163431E-02  2.89585060E-02 -3.36943483E-03  2.28542655E-02  1.86763094E-01
  3.74830502E-01  1.40967107E-01  1.11204796E-01  6.81867140E-02  4.24480055E-02
 -2.48501771E-02 -2.12494936E-02 -1.34653248E-02 -4.54998510E-03  5.73559621E-03
  8.63742616E-03  7.59003097E-05  9.15927084E-03  2.52045338E-02  7.55388370E-03
  4.33053782E-03  3.14387978E-03  1.97678787E-03  2.71133042E-02  5.07738289E-03
  3.62628073E-03 -3.02856531E-03 -2.09161088E-03  1.10519854E-01  3.56668989E-03
  5.35247481E-03 -1.26095737E-02 -8.47554615E-03 -1.89440411E-01  3.78271899E-01
  9.58474029E-02  9.95543245E-02 -1.74877518E-02 -1.39607140E-02  1.33991538E-02
  8.99657593E-04  2.74641534E-04 -7.62108857E-03 -2.36767754E-03  3.06637615E-03
  1.07488756E-02 -2.63361955E-03 -2.88410438E-02 -1.80489560E-01  2.63412113E-01
  1.07964112E-01 -1.07781799E-01 -4.54424340E-02 -2.74865458E-02 -1.80082486E-01
 -7.58005787E-02 -4.58419569E-02 -1.10513193E-01 -4.87001173E-02 -2.95771610E-02
 -1.45405884E-02 -1.27538229E-02 -2.05616013E-02  4.35775551E-02 -1.72587993E-02
 -1.55305938E-01 -3.20236192E-01 -1.57148070E-01 -6.22934425E-02  8.29776925E-03
  6.99792861E-03  1.90262165E-02  3.20831033E-03  1.66449935E-03  1.59650116E-03
  3.61654344E-04 -5.50889650E-03  1.88944434E-03  3.80465570E-04  1.16665105E-01
  1.47481634E-02  7.12361803E-03  9.81019297E-03  6.32170786E-03  9.63976142E-02
  1.20977292E-02  6.62675516E-03 -8.40031007E-03 -5.71900543E-03 -1.35265391E-01
 -1.54667026E-02 -7.36570974E-03  1.06420392E-02  7.22170210E-03  1.41716470E-01
 -2.88102912E-01 -1.02011361E-01  1.32381144E-01 -1.85776725E-02 -1.54783720E-02
  3.65089458E-02 -7.30626430E-03 -5.71291816E-03  3.79764588E-04  2.32180954E-04
 -6.25819931E-03  4.63754551E-03  3.44558172E-04 -4.47513888E-02 -2.85233089E-01
  4.45772433E-01  1.72584282E-01  4.80559930E-02 -1.21329372E-02 -9.18583244E-03
  8.12657772E-02 -1.60894689E-02 -1.26033103E-02  8.19440772E-02 -3.42506099E-02
 -2.46384954E-02  3.97159850E-03  8.88274054E-03 -7.53755323E-03 -1.16497262E-03
  1.29421472E-02 -8.66178668E-02 -1.78028433E-01 -1.10174474E-01 -4.72070630E-02
  1.89598756E-01  1.26631029E-01  7.42985076E-03 -5.26250870E-02 -3.50105526E-02
  1.51180229E-03  7.18120193E-03  2.02485436E-03 -4.89831400E-03  1.06181612E-02
 -1.53527757E-01 -3.67668419E-02 -3.12675168E-03 -1.12029388E-02 -7.33952138E-03
 -1.83630236E-01 -4.58686573E-02 -6.01384398E-03  1.09063588E-02  7.36295207E-03
 -2.33397842E-01 -5.64361366E-02 -1.13572204E-02  1.26233107E-02  8.62991895E-03
  5.08324373E-02 -9.82418159E-02 -9.28412681E-02  2.94798522E-01 -8.32897860E-02
 -6.22025884E-02  8.24544248E-02 -1.74784990E-02 -1.35479917E-02 -5.33916570E-03
 -2.35032530E-03 -5.10397598E-03  1.37401181E-02 -2.83961960E-03 -6.16014437E-03
 -3.88330728E-02  5.41643161E-02  4.73584849E-02 -1.40410440E-01 -6.00701270E-02
 -3.63777329E-02 -2.52550975E-01 -1.09618493E-01 -6.64722478E-02 -1.99267964E-01
 -8.02545802E-02 -4.83178765E-02 -1.42318361E-04 -1.79495113E-02 -1.15339811E-02
  1.14569403E-02 -2.69610481E-02 -3.12474632E-03 -1.51021912E-02 -4.05380045E-04
  5.44045280E-02 -2.63495450E-01 -1.75716759E-01 -2.13515796E-02  9.48308347E-02
  6.32825502E-02 -1.80528654E-03 -8.90844624E-03 -5.44314583E-03  8.44317720E-03
 -1.31609599E-02 -9.28692076E-02 -2.34302163E-02  2.26074124E-03 -7.52584080E-03
 -5.03516586E-03 -2.32026904E-01 -6.76067876E-02 -3.52261179E-03  1.16637203E-02
  7.80466425E-03  2.37065109E-01  7.31578088E-02  1.00486036E-02 -1.00111014E-02
 -6.86912543E-03  7.32560832E-03 -1.12712662E-02 -2.42287156E-02  1.24701356E-01
  3.37197820E-01  2.20182074E-01  3.95013592E-02  1.22701214E-01  8.02622364E-02
 -3.03028996E-03 -1.94385326E-03 -3.38280065E-03  8.26132863E-03 -2.52704592E-03
 -2.15883591E-04 -1.21998402E-03  1.16729844E-03  1.43118735E-02 -6.02693325E-02
  5.95474394E-02  4.08601164E-02 -1.08674401E-01  1.03602565E-01  7.11814374E-02
 -8.35053346E-02  1.28069133E-01  8.67698230E-02 -2.86259892E-04 -3.02854285E-02
  5.83899753E-03 -2.07810039E-03 -4.56500404E-02 -4.39322894E-02 -8.94722611E-02
 -1.28552634E-01  7.79722193E-02 -2.13358578E-03 -3.28604988E-03 -3.48572454E-02
  1.06004152E-02  7.85241690E-03 -3.31875086E-03  2.08391868E-03 -1.16677924E-03
  6.55905043E-03  3.56619463E-03 -3.33139063E-01 -1.09024372E-01 -1.08305226E-02
 -8.84606002E-03 -5.59444136E-03  2.09448696E-01  7.32160735E-02  1.17796782E-02
 -1.86860854E-03 -1.51981082E-03 -4.37825407E-04  1.09518920E-02 -4.75957911E-03
 -1.67812144E-03 -9.96278072E-04  5.73415452E-06 -1.42266217E-05 -1.12883577E-05
  4.05364487E-03 -1.12661979E-01  1.70252349E-01  2.44903552E-03 -6.79463672E-02
  1.02668360E-01 -7.90403758E-04  1.57743156E-02  1.84572031E-04  2.99057637E-04
 -1.04518813E-02 -3.86352731E-06 -2.49904800E-05  3.18023854E-05  5.51554668E-05
  4.33082978E-03 -1.18862210E-01  1.79562288E-01  7.77601415E-03 -2.13398982E-01
  3.22375586E-01  8.67385675E-03 -2.38270606E-01  3.59964826E-01  3.52223335E-02
 -1.22213463E-02  1.68033387E-02  1.97221481E-02  9.13673075E-03 -8.74423146E-06
 -1.82513893E-05 -2.89242941E-05 -5.44159002E-03  1.49515186E-01 -2.25936143E-01
  3.51560898E-03 -9.65171266E-02  1.45843011E-01 -1.12120605E-02 -1.48796126E-02
 -6.03257751E-03 -7.18301396E-03  9.49471366E-03 -4.36213132E-06 -2.49611075E-06
  1.08932232E-04 -3.02026127E-03  4.56387911E-03  2.61252268E-05  1.17470267E-05
  1.13045003E-04 -3.10729881E-03  4.69306091E-03  2.03761824E-05  1.20075070E-05
  2.16561448E-04 -5.93668636E-03  8.96692601E-03 -2.24064205E-02  5.55222410E-02
  3.23170987E-02  1.35682641E-01 -1.35909885E-01 -9.31782943E-02  5.70077438E-02
 -4.96644158E-02 -3.42181113E-02 -3.85780574E-03  9.49840104E-03 -1.27145603E-03
  6.99534553E-03  1.48040168E-02  2.00172341E-02  1.29472043E-01 -1.65995067E-01
 -2.87717664E-01 -8.42634395E-02  1.62329500E-01  1.09487597E-01 -1.50368886E-01
  2.97595821E-01  2.00621902E-01 -1.79158794E-01  2.99819582E-01  2.02796169E-01
 -1.63343987E-02  1.46551445E-02  3.29322041E-02 -8.84012242E-04  2.39207477E-02
 -1.24130938E-02 -2.01645384E-02 -1.31020562E-02  1.87443065E-01  1.78863143E-01
  1.13840906E-01 -1.23554243E-01 -8.89625710E-02 -5.58845484E-02 -6.97641226E-03
  9.93304407E-03 -1.24592851E-03  1.23214203E-02  1.58602001E-02  1.19689701E-01
  5.68618884E-02  5.60340054E-03  1.10801980E-03  5.99584163E-04 -1.94031370E-01
 -9.83630924E-02 -2.45765536E-03  3.60021435E-03  2.44284003E-03 -1.11882093E-01
 -8.00471055E-02 -1.10346845E-02 -6.08815276E-04 -1.35519938E-04  4.97374579E-02
 -1.29307799E-01 -1.76857483E-01 -2.18031434E-01 -3.24612438E-02 -1.62931784E-02
 -1.07892492E-01  2.68578675E-02  2.03304676E-02  2.25926183E-03  8.03043735E-04