0004_q000_m01_k00_opt_uwb97xd_def2svpd/0004_q000_m01_k00_force_uwb97xd_d
Force     UwB97XD                                                     Gen                 
Number of atoms                            I                6
Info1-9                                    I   N=           9
          13           9           0           0           0         100
           5          18       -5802
Full Title                                 C   N=           8
0004_q000_m01_k00_opt_uwb97xd_def2svpd/0004_q000_m01_k00_for
ce_uwb97xd_def2tzvpd stable-force   
Route                                      C   N=          15
#p uwb97xd/chkbasis force guess=read geom=check scf=(maxcycl
e=900,verytightlineq,xqc) integral=grid=ultrafine symmetry=N
one density=current pop=(cm5,hlygat,mbs,npa) output=wfx     
Charge                                     I                0
Multiplicity                               I                1
Number of electrons                        I               32
Number of alpha electrons                  I               16
Number of beta electrons                   I               16
Number of basis functions                  I              147
Number of independent functions            I              147
Number of point charges in /Mol/           I                0
Number of translation vectors              I                0
Atomic numbers                             I   N=           6
           6          16           7           1           1           1
Nuclear charges                            R   N=           6
  6.00000000E+00  1.60000000E+01  7.00000000E+00  1.00000000E+00  1.00000000E+00
  1.00000000E+00
Current cartesian coordinates              R   N=          18
  1.67863146E+00  2.68784369E-01  2.05840898E-01  4.73702225E+00  1.96852105E-01
  8.48289160E-02  6.24221873E+00  2.32416928E+00  1.45652951E+00  7.09165380E-01
 -1.25729983E+00 -7.80890272E-01  6.12793001E-01  1.72884379E+00  1.19782199E+00
  5.12841835E+00  3.62849725E+00  2.34675860E+00
Number of symbols in /Mol/                 I                0
Int Atom Types                             I   N=           6
           0           0           0           0           0           0
Force Field                                I                0
Atom Types                                 C   N=           6
                                                            
            
MM charges                                 R   N=           6
  0.00000000E+00  0.00000000E+00  0.00000000E+00  0.00000000E+00  0.00000000E+00
  0.00000000E+00
Integer atomic weights                     I   N=           6
          12          32          14           1           1           1
Real atomic weights                        R   N=           6
  1.20000000E+01  3.19720718E+01  1.40030740E+01  1.00782504E+00  1.00782504E+00
  1.00782504E+00
Atom fragment info                         I   N=           6
           0           0           0           0           0           0
Atom residue num                           I   N=           6
           0           0           0           0           0           0
Nuclear spins                              I   N=           6
           0           0           2           1           1           1
Nuclear ZEff                               R   N=           6
 -3.60000000E+00 -1.36000000E+01 -4.55000000E+00 -1.00000000E+00 -1.00000000E+00
 -1.00000000E+00
Nuclear ZNuc                               R   N=           6
  6.00000000E+00  1.60000000E+01  7.00000000E+00  1.00000000E+00  1.00000000E+00
  1.00000000E+00
Nuclear QMom                               R   N=           6
  0.00000000E+00  0.00000000E+00  2.04400000E+00  0.00000000E+00  0.00000000E+00
  0.00000000E+00
Nuclear GFac                               R   N=           6
  0.00000000E+00  0.00000000E+00  4.03761000E-01  2.79284600E+00  2.79284600E+00
  2.79284600E+00
MicOpt                                     I   N=           6
          -1          -1          -1          -1          -1          -1
Number of residues                         I                0
Number of secondary structures             I                0
Number of contracted shells                I               57
Number of primitive shells                 I               95
Pure/Cartesian d shells                    I                0
Pure/Cartesian f shells                    I                0
Highest angular momentum                   I                3
Largest degree of contraction              I                7
Shell types                                I   N=          57
           0           0           0           0           0           0
           1           1           1          -2          -2          -2
          -3           0           0           0           0           0
           0           1           1           1           1           1
           1          -2          -2          -2          -3           0
           0           0           0           0           0           1
           1           1          -2          -2          -2          -3
           0           0           0           1           1           0
           0           0           1           1           0           0
           0           1           1
Number of primitives per shell             I   N=          57
           6           2           1           1           1           1
           4           1           1           1           1           1
           1           7           3           2           1           1
           1           5           1           1           1           1
           1           2           1           1           1           6
           2           1           1           1           1           4
           1           1           1           1           1           1
           3           1           1           1           1           3
           1           1           1           1           3           1
           1           1           1
Shell to atom map                          I   N=          57
           1           1           1           1           1           1
           1           1           1           1           1           1
           1           2           2           2           2           2
           2           2           2           2           2           2
           2           2           2           2           2           3
           3           3           3           3           3           3
           3           3           3           3           3           3
           4           4           4           4           4           5
           5           5           5           5           6           6
           6           6           6
Primitive exponents                        R   N=          95
  1.35753497E+04  2.03523337E+03  4.63225624E+02  1.31200196E+02  4.28530159E+01
  1.55841858E+01  6.20671385E+00  2.57648965E+00  5.76963394E-01  2.29728314E-01
  9.51644400E-02  4.84754014E-02  3.46972322E+01  7.95826228E+00  2.37808269E+00
  8.14332082E-01  2.88875473E-01  1.00568237E-01  1.09700000E+00  3.18000000E-01
  9.09853364E-02  7.61000000E-01  6.07009281E+04  9.10261069E+03  2.07141660E+03
  5.86024768E+02  1.90553950E+02  6.76303843E+01  2.51273069E+01  1.12574630E+02
  3.47955542E+01  6.51155562E+00  3.23990323E+00  1.54771609E+00  4.05410301E-01
  1.45506511E-01  5.01788395E-02  5.64367160E+02  1.33426244E+02  4.24682712E+01
  1.56165276E+01  6.10939885E+00  2.44041602E+00  8.38822013E-01  3.12887469E-01
  1.07701090E-01  3.03598336E-02  3.75600000E+00  8.12000000E-01  2.73000000E-01
  8.15470250E-02  5.57000000E-01  1.97308006E+04  2.95789587E+03  6.73221336E+02
  1.90682495E+02  6.22954419E+01  2.26541612E+01  8.97914774E+00  3.68630024E+00
  8.46600768E-01  3.36471338E-01  1.36476537E-01  6.84416058E-02  4.92003805E+01
  1.13467905E+01  3.42739724E+00  1.17855251E+00  4.16422050E-01  1.42608260E-01
  1.65400000E+00  4.69000000E-01  1.28296421E-01  1.09300000E+00  3.40613410E+01
  5.12357460E+00  1.16466260E+00  3.27230410E-01  1.03072410E-01  8.00000000E-01
  9.57741296E-02  3.40613410E+01  5.12357460E+00  1.16466260E+00  3.27230410E-01
  1.03072410E-01  8.00000000E-01  9.57741296E-02  3.40613410E+01  5.12357460E+00
  1.16466260E+00  3.27230410E-01  1.03072410E-01  8.00000000E-01  9.57741296E-02
Contraction coefficients                   R   N=          95
  6.06455036E-04  4.69790889E-03  2.43324776E-02  9.73999683E-02  3.01955843E-01
  6.62336091E-01  6.55953085E-01  3.75856333E-01  1.00000000E+00  1.00000000E+00
  1.00000000E+00  1.00000000E+00  1.13272200E-02  7.61696592E-02  3.01922522E-01
  7.27850273E-01  1.00000000E+00  1.00000000E+00  1.00000000E+00  1.00000000E+00
  1.00000000E+00  1.00000000E+00  5.23800749E-04  4.05063268E-03  2.08270042E-02
  8.14968503E-02  2.37491138E-01  4.47261715E-01  3.48919184E-01  1.00455699E-01
  4.33911729E-01 -1.20843306E+00  6.74981294E-01  3.47087958E-01  1.00000000E+00
  1.00000000E+00  1.00000000E+00  3.48869236E-03  2.76851268E-02  1.26594002E-01
  3.61659257E-01  6.12220344E-01  1.00000000E+00  1.00000000E+00  1.00000000E+00
  1.00000000E+00  1.00000000E+00  1.82851975E-01  9.14259873E-01  1.00000000E+00
  1.00000000E+00  1.00000000E+00  5.86264026E-04  4.54288206E-03  2.35584135E-02
  9.47091933E-02  2.97197849E-01  6.69162469E-01  6.45966836E-01  3.87005744E-01
  1.00000000E+00  1.00000000E+00  1.00000000E+00  1.00000000E+00  1.14488251E-02
  7.84223380E-02  3.08180947E-01  7.20271964E-01  1.00000000E+00  1.00000000E+00
  1.00000000E+00  1.00000000E+00  1.00000000E+00  1.00000000E+00  2.54393072E-02
  1.90085949E-01  8.52441130E-01  1.00000000E+00  1.00000000E+00  1.00000000E+00
  1.00000000E+00  2.54393072E-02  1.90085949E-01  8.52441130E-01  1.00000000E+00
  1.00000000E+00  1.00000000E+00  1.00000000E+00  2.54393072E-02  1.90085949E-01
  8.52441130E-01  1.00000000E+00  1.00000000E+00  1.00000000E+00  1.00000000E+00
Coordinates of each shell                  R   N=         171
  1.67863146E+00  2.68784369E-01  2.05840898E-01  1.67863146E+00  2.68784369E-01
  2.05840898E-01  1.67863146E+00  2.68784369E-01  2.05840898E-01  1.67863146E+00
  2.68784369E-01  2.05840898E-01  1.67863146E+00  2.68784369E-01  2.05840898E-01
  1.67863146E+00  2.68784369E-01  2.05840898E-01  1.67863146E+00  2.68784369E-01
  2.05840898E-01  1.67863146E+00  2.68784369E-01  2.05840898E-01  1.67863146E+00
  2.68784369E-01  2.05840898E-01  1.67863146E+00  2.68784369E-01  2.05840898E-01
  1.67863146E+00  2.68784369E-01  2.05840898E-01  1.67863146E+00  2.68784369E-01
  2.05840898E-01  1.67863146E+00  2.68784369E-01  2.05840898E-01  4.73702225E+00
  1.96852105E-01  8.48289160E-02  4.73702225E+00  1.96852105E-01  8.48289160E-02
  4.73702225E+00  1.96852105E-01  8.48289160E-02  4.73702225E+00  1.96852105E-01
  8.48289160E-02  4.73702225E+00  1.96852105E-01  8.48289160E-02  4.73702225E+00
  1.96852105E-01  8.48289160E-02  4.73702225E+00  1.96852105E-01  8.48289160E-02
  4.73702225E+00  1.96852105E-01  8.48289160E-02  4.73702225E+00  1.96852105E-01
  8.48289160E-02  4.73702225E+00  1.96852105E-01  8.48289160E-02  4.73702225E+00
  1.96852105E-01  8.48289160E-02  4.73702225E+00  1.96852105E-01  8.48289160E-02
  4.73702225E+00  1.96852105E-01  8.48289160E-02  4.73702225E+00  1.96852105E-01
  8.48289160E-02  4.73702225E+00  1.96852105E-01  8.48289160E-02  4.73702225E+00
  1.96852105E-01  8.48289160E-02  6.24221873E+00  2.32416928E+00  1.45652951E+00
  6.24221873E+00  2.32416928E+00  1.45652951E+00  6.24221873E+00  2.32416928E+00
  1.45652951E+00  6.24221873E+00  2.32416928E+00  1.45652951E+00  6.24221873E+00
  2.32416928E+00  1.45652951E+00  6.24221873E+00  2.32416928E+00  1.45652951E+00
  6.24221873E+00  2.32416928E+00  1.45652951E+00  6.24221873E+00  2.32416928E+00
  1.45652951E+00  6.24221873E+00  2.32416928E+00  1.45652951E+00  6.24221873E+00
  2.32416928E+00  1.45652951E+00  6.24221873E+00  2.32416928E+00  1.45652951E+00
  6.24221873E+00  2.32416928E+00  1.45652951E+00  6.24221873E+00  2.32416928E+00
  1.45652951E+00  7.09165380E-01 -1.25729983E+00 -7.80890272E-01  7.09165380E-01
 -1.25729983E+00 -7.80890272E-01  7.09165380E-01 -1.25729983E+00 -7.80890272E-01
  7.09165380E-01 -1.25729983E+00 -7.80890272E-01  7.09165380E-01 -1.25729983E+00
 -7.80890272E-01  6.12793001E-01  1.72884379E+00  1.19782199E+00  6.12793001E-01
  1.72884379E+00  1.19782199E+00  6.12793001E-01  1.72884379E+00  1.19782199E+00
  6.12793001E-01  1.72884379E+00  1.19782199E+00  6.12793001E-01  1.72884379E+00
  1.19782199E+00  5.12841835E+00  3.62849725E+00  2.34675860E+00  5.12841835E+00
  3.62849725E+00  2.34675860E+00  5.12841835E+00  3.62849725E+00  2.34675860E+00
  5.12841835E+00  3.62849725E+00  2.34675860E+00  5.12841835E+00  3.62849725E+00
  2.34675860E+00
Num ILSW                                   I              100
ILSW                                       I   N=         100
           1           0           0           0           2           0
           0           0           0           0        4639          -1
           5           0           0           0           2           0
           0           0           0           0           1           0
           1           1           0           0           0           0
           0           0      100000           0          -1           0
           0           0           0           0           0           0
           0           0           0           1           0           0
           0 -2000000000           1           0           0           0
           0           0         121          52           0           0
           0           0          58           0           0           0
           0           0           0           6           0           1
           0           0           0           0           0           0
           0           0           0           0           0           0
           0           0           0           0           0           0
           0           0           0           0           0           0
           0           0           0           0
Num RLSW                                   I               52
RLSW                                       R   N=          52
  1.00000000E+00  1.00000000E+00  1.00000000E+00  1.00000000E+00  1.00000000E+00
  0.00000000E+00  2.00000000E-01  2.22036000E-01  0.00000000E+00  7.77964000E-01
  0.00000000E+00  2.00000000E-01  0.00000000E+00  0.00000000E+00  1.00000000E+00
  0.00000000E+00  0.00000000E+00  1.00000000E+00  0.00000000E+00  0.00000000E+00
  0.00000000E+00  0.00000000E+00  1.00000000E+00  0.00000000E+00  0.00000000E+00
  0.00000000E+00  0.00000000E+00  1.00000000E+00  0.00000000E+00  0.00000000E+00
  0.00000000E+00  0.00000000E+00  1.00000000E+00  0.00000000E+00  0.00000000E+00
  0.00000000E+00  0.00000000E+00  0.00000000E+00  1.00000000E+00  1.00000000E+00
  0.00000000E+00  1.00000000E+00  0.00000000E+00  0.00000000E+00  0.00000000E+00
  0.00000000E+00  0.00000000E+00  0.00000000E+00  0.00000000E+00  0.00000000E+00
  0.00000000E+00  0.00000000E+00
MxBond                                     I                3
NBond                                      I   N=           6
           3           2           2           1           1           1
IBond                                      I   N=          18
           2           4           5           1           3           0
           2           6           0           1           0           0
           1           0           0           3           0           0
RBond                                      R   N=          18
  2.00000000E+00  1.00000000E+00  1.00000000E+00  2.00000000E+00  2.00000000E+00
  0.00000000E+00  2.00000000E+00  1.00000000E+00  0.00000000E+00  1.00000000E+00
  0.00000000E+00  0.00000000E+00  1.00000000E+00  0.00000000E+00  0.00000000E+00
  1.00000000E+00  0.00000000E+00  0.00000000E+00
Virial Ratio                               R      2.002477491640987E+00
SCF Energy                                 R     -4.927937854339442E+02
Total Energy                               R     -4.927937854339442E+02
S**2                                       R     -3.197442310920451E-14
S**2 after annihilation                    R      7.105427357600825E-15
RMS Force                                  R      6.093908554115022E-03
RMS Density                                R      7.769013612901241E-10
Job Status                                 I                1
Nuclear derivative order                   I                1
External E-field                           R   N=          35
  0.00000000E+00  0.00000000E+00  0.00000000E+00  0.00000000E+00  0.00000000E+00
  0.00000000E+00  0.00000000E+00  0.00000000E+00  0.00000000E+00  0.00000000E+00
  0.00000000E+00  0.00000000E+00  0.00000000E+00  0.00000000E+00  0.00000000E+00
  0.00000000E+00  0.00000000E+00  0.00000000E+00  0.00000000E+00  0.00000000E+00
  0.00000000E+00  0.00000000E+00  0.00000000E+00  0.00000000E+00  0.00000000E+00
  0.00000000E+00  0.00000000E+00  0.00000000E+00  0.00000000E+00  0.00000000E+00
  0.00000000E+00  0.00000000E+00  0.00000000E+00  0.00000000E+00  0.00000000E+00
IOpCl                                      I                1
IROHF                                      I                0
Alpha Orbital Energies                     R   N=         147
 -8.91140943E+01 -1.44314501E+01 -1.03219500E+01 -8.13872276E+00 -6.08554698E+00
 -6.08498225E+00 -6.08081891E+00 -1.02835806E+00 -8.64016833E-01 -7.01522626E-01
 -5.83879071E-01 -5.58552592E-01 -4.74725749E-01 -4.40272790E-01 -3.80997987E-01
 -3.16054961E-01 -4.89681196E-03  6.25590621E-02  6.51016033E-02  7.47843610E-02
  8.38508938E-02  1.11167088E-01  1.25327830E-01  1.38887523E-01  1.62427270E-01
  1.89761496E-01  1.96980949E-01  1.97006076E-01  2.32925227E-01  2.38286235E-01
  2.55357258E-01  2.63792288E-01  2.64164229E-01  2.76978878E-01  2.85034035E-01
  3.10631856E-01  3.12744466E-01  3.21770130E-01  3.36620850E-01  3.62030690E-01
  3.65296396E-01  3.71044553E-01  3.95974178E-01  3.99447792E-01  4.06276557E-01
  4.25239464E-01  4.43407168E-01  4.50533954E-01  4.79718616E-01  5.05776424E-01
  5.08032541E-01  5.29308969E-01  5.32129734E-01  5.61490005E-01  5.68990436E-01
  5.89090446E-01  6.19034711E-01  6.46592424E-01  6.67692545E-01  6.68629696E-01
  7.21305928E-01  7.33336292E-01  7.47863029E-01  7.72613362E-01  7.85224579E-01
  7.96843166E-01  8.12853473E-01  8.72923245E-01  8.98402125E-01  9.23656493E-01
  9.38619399E-01  9.76258923E-01  1.04450463E+00  1.11717075E+00  1.14871205E+00
  1.19706601E+00  1.22623178E+00  1.37407854E+00  1.40209762E+00  1.40912285E+00
  1.54888524E+00  1.62567122E+00  1.65520207E+00  1.66624109E+00  1.67247016E+00
  1.68370678E+00  1.73078405E+00  1.76227143E+00  1.78323487E+00  1.86162665E+00
  1.89880954E+00  1.91884660E+00  1.93507688E+00  1.93724942E+00  1.94365538E+00
  2.01352613E+00  2.05124950E+00  2.05533130E+00  2.12235604E+00  2.16287361E+00
  2.19860700E+00  2.26238698E+00  2.28274812E+00  2.31026709E+00  2.38080284E+00
  2.45076862E+00  2.56652941E+00  2.57064209E+00  2.61504508E+00  2.72379642E+00
  2.72715152E+00  2.75761579E+00  2.85162487E+00  2.87045370E+00  2.97810706E+00
  3.18312157E+00  3.21335513E+00  3.23115143E+00  3.24914619E+00  3.28313822E+00
  3.35667968E+00  3.44538565E+00  3.53476864E+00  3.58179771E+00  3.63900114E+00
  3.76664501E+00  3.85376367E+00  4.08163366E+00  4.16988538E+00  4.29085304E+00
  4.37937268E+00  4.42110758E+00  4.55528200E+00  4.63235097E+00  4.72128764E+00
  4.83053915E+00  4.91702495E+00  5.00810031E+00  5.16211243E+00  5.30765033E+00
  5.65778243E+00  8.98106278E+00  9.31822352E+00  9.65193309E+00  2.09340248E+01
  2.23053391E+01  3.21460543E+01
Beta Orbital Energies                      R   N=         147
 -8.91140943E+01 -1.44314501E+01 -1.03219500E+01 -8.13872276E+00 -6.08554698E+00
 -6.08498225E+00 -6.08081891E+00 -1.02835806E+00 -8.64016833E-01 -7.01522626E-01
 -5.83879071E-01 -5.58552592E-01 -4.74725749E-01 -4.40272790E-01 -3.80997987E-01
 -3.16054961E-01 -4.89681196E-03  6.25590621E-02  6.51016033E-02  7.47843610E-02
  8.38508938E-02  1.11167088E-01  1.25327830E-01  1.38887523E-01  1.62427270E-01
  1.89761496E-01  1.96980949E-01  1.97006076E-01  2.32925227E-01  2.38286235E-01
  2.55357258E-01  2.63792288E-01  2.64164229E-01  2.76978878E-01  2.85034035E-01
  3.10631856E-01  3.12744466E-01  3.21770130E-01  3.36620850E-01  3.62030690E-01
  3.65296396E-01  3.71044553E-01  3.95974178E-01  3.99447792E-01  4.06276557E-01
  4.25239464E-01  4.43407168E-01  4.50533954E-01  4.79718616E-01  5.05776424E-01
  5.08032541E-01  5.29308969E-01  5.32129734E-01  5.61490005E-01  5.68990436E-01
  5.89090446E-01  6.19034711E-01  6.46592424E-01  6.67692545E-01  6.68629696E-01
  7.21305928E-01  7.33336292E-01  7.47863029E-01  7.72613362E-01  7.85224579E-01
  7.96843166E-01  8.12853473E-01  8.72923245E-01  8.98402125E-01  9.23656493E-01
  9.38619399E-01  9.76258923E-01  1.04450463E+00  1.11717075E+00  1.14871205E+00
  1.19706601E+00  1.22623178E+00  1.37407854E+00  1.40209762E+00  1.40912285E+00
  1.54888524E+00  1.62567122E+00  1.65520207E+00  1.66624109E+00  1.67247016E+00
  1.68370678E+00  1.73078405E+00  1.76227143E+00  1.78323487E+00  1.86162665E+00
  1.89880954E+00  1.91884660E+00  1.93507688E+00  1.93724942E+00  1.94365538E+00
  2.01352613E+00  2.05124950E+00  2.05533130E+00  2.12235604E+00  2.16287361E+00
  2.19860700E+00  2.26238698E+00  2.28274812E+00  2.31026709E+00  2.38080284E+00
  2.45076862E+00  2.56652941E+00  2.57064209E+00  2.61504508E+00  2.72379642E+00
  2.72715152E+00  2.75761579E+00  2.85162487E+00  2.87045370E+00  2.97810706E+00
  3.18312157E+00  3.21335513E+00  3.23115143E+00  3.24914619E+00  3.28313822E+00
  3.35667968E+00  3.44538565E+00  3.53476864E+00  3.58179771E+00  3.63900114E+00
  3.76664501E+00  3.85376367E+00  4.08163366E+00  4.16988538E+00  4.29085304E+00
  4.37937268E+00  4.42110758E+00  4.55528200E+00  4.63235097E+00  4.72128764E+00
  4.83053915E+00  4.91702495E+00  5.00810031E+00  5.16211243E+00  5.30765033E+00
  5.65778243E+00  8.98106278E+00  9.31822352E+00  9.65193309E+00  2.09340248E+01
  2.23053391E+01  3.21460543E+01
Alpha MO coefficients                      R   N=       21609
  1.88561423E-06 -1.48126458E-05  9.71411354E-04 -3.48222222E-03 -1.05177180E-03
 -1.84265156E-04  2.59694462E-04  1.64535237E-06 -5.14438643E-06 -2.95325005E-03
  1.50851446E-04  1.70721886E-04  1.52033895E-03  8.99214414E-05  2.30098740E-05
  5.26272551E-05  7.90791657E-06 -8.83931103E-06 -8.40349496E-05  5.37758318E-06
  6.99040368E-04  1.17699465E-04  1.21220019E-04 -1.31972853E-03  8.88821301E-05
 -5.07463650E-04  4.14253136E-04 -9.59133617E-04  1.65818581E-03  6.94590355E-04
 -2.26168911E-05  2.74016536E-04 -3.53915402E-06  2.87120991E-05 -8.16557598E-06
 -3.49955273E-04  1.48067899E-05  9.99265661E-01 -3.17040827E-02 -1.13330458E-02
  5.07631622E-03  2.82533920E-04 -4.36735304E-04 -3.94731574E-05  8.89805024E-05
  5.98372941E-05 -1.34747808E-06 -8.18158936E-05 -5.41165329E-05  2.07823200E-04
 -1.64881651E-04 -1.14098092E-04 -1.64996179E-03  1.69119278E-03  1.15880112E-03
  1.13353862E-03 -3.83650549E-04 -2.81105415E-04  4.30866625E-05 -1.52483098E-05
 -1.11218714E-05 -1.74383983E-04  8.05041449E-05  1.86727098E-04  1.36380814E-04
  1.41959650E-04 -8.42429507E-04  4.77680109E-04  5.98474369E-04  9.09576519E-04
  8.21664699E-04  1.29626332E-05  1.87706954E-04 -2.48447296E-06 -3.50138468E-05
  2.81305518E-04 -2.29164411E-04  2.47940264E-04  1.16570966E-05 -8.08948743E-05
  3.36911498E-04 -5.70105586E-04  8.88039414E-05  1.85662291E-05 -6.85507913E-05
  8.75635620E-04 -2.32929878E-03 -5.00959375E-04 -1.76588229E-04 -1.37611961E-04
 -1.96198235E-04 -1.26539341E-04  9.05166659E-04  1.35875568E-03  8.77486765E-04
 -7.99976663E-05  9.04835626E-04  6.00799178E-04 -5.70274796E-06  2.72298878E-05
  2.85273116E-05 -1.65145696E-05  4.15615590E-05  1.61134356E-04 -4.63176161E-04
 -5.89393843E-04  2.58517076E-04 -7.14349270E-04 -2.58423708E-05  1.01933977E-05
 -1.21208245E-04  1.46780737E-04  1.94682070E-05 -1.47602400E-04  1.12644731E-05
  6.54199445E-06 -6.11086712E-05  1.92179943E-04 -1.58895246E-04  6.77136396E-05
 -9.00308949E-06 -1.48780536E-04  1.42620969E-03 -5.34519837E-05  1.40240974E-05
  1.05660079E-05  1.09699647E-03 -4.12220931E-04 -2.99178858E-04  1.88473508E-05
 -2.89601878E-04  3.15258384E-03 -1.03807108E-04 -2.19076414E-05 -1.20114973E-05
  7.00726998E-04  2.55362718E-04  1.52131183E-04 -4.59568462E-05 -1.86573426E-04
 -6.89736701E-04  2.02878665E-05  4.15066560E-05  2.69807244E-05 -1.02025363E-04
  2.47292196E-04  1.66111693E-04  4.62580171E-06 -2.13392243E-05  1.34069217E-04
  5.18043542E-04 -6.03442819E-03  2.60332609E-03 -5.28391340E-05  3.41231481E-05
  2.38607594E-05  1.80893203E-03 -1.98828052E-05 -5.66442493E-05 -7.03003265E-03
 -2.44193306E-03 -1.44717994E-03 -5.30069638E-05  4.07978645E-05  5.51288616E-05
  4.15382772E-05  6.77677139E-05 -1.64123655E-05 -2.23857041E-04 -7.14557120E-04
  6.52598377E-04 -3.30517962E-04  8.30718623E-04  2.20124984E-03  2.01548030E-03
 -3.31933581E-03  3.19967292E-03  4.45332108E-05 -4.73265247E-06  1.86490382E-05
 -3.86244340E-05  2.99340389E-05 -8.29994390E-06 -8.39036122E-05  6.54634613E-05
 -1.43385371E-04 -5.00558014E-04  3.09092400E-04  1.43878105E-03 -6.55561882E-03
 -2.08779968E-05 -9.68412444E-06 -5.90684650E-06  6.10599148E-05 -4.33363266E-05
 -3.01516404E-05 -4.45881979E-04 -1.09992780E-04 -6.20694203E-05  3.39233992E-03
  2.73391403E-03  1.72779712E-03 -1.17231931E-02 -6.17855267E-03 -3.80736856E-03
 -5.37917341E-05 -3.63824683E-04 -2.39449922E-04 -7.38118980E-05  2.62848547E-04
  3.44086880E-04 -1.85310430E-04  4.03128650E-04 -6.56536879E-05  7.34011681E-04
  1.24260000E-03 -9.99348055E-04  1.10618512E-03  1.13396867E-03 -1.93975108E-03
 -1.54558352E-03 -4.93686143E-04 -3.05602821E-03 -2.92834529E-04 -9.01946023E-05
  3.85470464E-05 -1.88468299E-04  3.06035606E-04 -1.14906858E-04  7.39871329E-05
  4.48666228E-01  6.26873496E-01  3.66767157E-02 -3.41870797E-02  4.58400002E-02
  1.28169703E-02 -2.35064775E-03 -5.49495190E-04 -3.06989080E-04  3.50685963E-03
  2.30540823E-03  1.44124539E-03 -6.30788731E-03  8.19837663E-04  6.95222697E-04
 -8.63008022E-05  6.11121522E-05  3.55530923E-04 -1.57492999E-04  1.00556767E-04
  2.58049455E-04 -6.32573296E-04 -1.08950507E-03  5.28937909E-04 -9.78442932E-04
 -1.19175039E-04 -5.07049852E-04  2.80472322E-03 -2.13453343E-03 -7.68172168E-04
 -1.37562604E-04 -3.26824508E-06  9.57448415E-06 -6.49169465E-05  1.54602288E-04
 -1.12980617E-04  5.59308144E-05  1.23634235E-04  8.09772587E-04 -9.30886943E-03
  8.45293873E-05  1.19376544E-04  7.69837219E-05  8.67796962E-04 -7.19719038E-04
 -4.97130402E-04  4.25592556E-05  6.91804223E-04  2.74717093E-03  2.68825543E-04
 -6.66472211E-05 -5.05782511E-05 -1.93943019E-03 -2.07474119E-03 -1.32663654E-03
  4.57475745E-04 -9.93512831E-04 -2.67110597E-02 -1.42457063E-04  1.17542803E-04
  8.12373335E-05 -5.01247964E-03  4.66127694E-03  3.20642752E-03  4.67239456E-01
  6.08542418E-01  3.80806434E-02 -3.48779736E-02  1.01356886E-01 -9.94847168E-04
  6.85710316E-04 -2.96394524E-05 -3.59411322E-05 -3.96078641E-03 -6.52214314E-05
  5.18587621E-05 -2.04919095E-02 -5.76180485E-03 -3.32066845E-03 -4.90920417E-04
 -5.28520480E-05  6.89249177E-04  2.67180828E-04 -2.26851873E-05  5.92284862E-04
 -2.72902853E-05  9.93249353E-04 -1.86409669E-03 -1.22096496E-04 -6.61190065E-04
 -2.70845827E-04  1.06992028E-02 -7.91819056E-03 -3.98148688E-04  1.61685224E-06
  2.00920182E-05  1.03030520E-05  3.16179014E-05 -7.52297852E-04  4.94518878E-04
  2.64498589E-05 -2.00422056E-05  2.16830445E-05  4.43729599E-05 -2.95632253E-04
  1.48814695E-02 -5.37956077E-04  3.70908784E-05 -1.61995101E-05 -1.16108591E-05
 -7.97433395E-05  6.54056244E-05  4.51952222E-05 -2.69375082E-05 -2.04182366E-04
 -1.34468920E-04 -2.38933427E-03  6.90671000E-04  5.14415810E-04 -2.09901379E-03
  4.89768021E-03  3.29130750E-03 -4.74332833E-04 -8.73506716E-05 -4.64260376E-05
  6.60626615E-06  3.71482314E-05 -5.94541863E-05  3.61734894E-05  5.55662032E-05
 -4.31987484E-04 -3.31958935E-04  2.63663522E-04  5.48375332E-04 -4.47903230E-04
  8.77113851E-04 -1.77916001E-03 -1.24238706E-03 -3.20741209E-04 -2.78347160E-03
  5.09526121E-05 -3.51596645E-04  4.84315507E-05 -1.30366513E-04 -1.17256842E-04
  5.44757921E-04 -1.45395669E-04  2.73482716E-06 -1.45410776E-05  9.68768369E-05
  6.07706983E-04 -1.96551605E-03  1.83938530E-03 -5.70478223E-05  5.40026326E-05
  3.71249859E-05  1.84540295E-04 -6.82921262E-04 -4.56493633E-04  3.17249471E-03
  3.00671478E-03  1.91399516E-03 -5.46026089E-05  1.75207778E-05  3.64086292E-05
  6.20452506E-05  3.30193048E-05  2.77281482E-04  6.27290659E-05 -1.25719757E-04
 -3.77324363E-04  6.05445553E-05  4.26370486E-04 -9.12776264E-04 -6.94228699E-04
 -7.54924938E-05 -1.42452023E-03 -3.61068763E-06 -5.31108599E-05 -1.60805932E-05
  3.24537954E-05  1.96946252E-05  5.24965745E-05  4.74554805E-05 -3.99887100E-04
 -1.27744360E-03 -5.31079509E-02 -8.12098319E-04 -1.13480750E-03 -7.31550930E-04
 -7.02475288E-03 -4.67893100E-03 -2.92771399E-03 -4.32769222E-04 -1.03434341E-03
 -4.48154855E-02 -9.06756064E-04  1.06529800E-03  7.26878138E-04 -6.53496374E-03
  3.24950141E-03  2.30811317E-03 -3.12345552E-06  1.16056199E-03 -6.18390440E-03
  3.90577530E-05 -1.87047408E-04 -1.24768065E-04  1.07449167E-03  1.66518996E-03
  1.07650646E-03 -8.76024741E-05 -1.44020902E-04  2.44945042E-03 -9.01553070E-03
 -1.13739901E-03 -1.44169858E-05  6.79681359E-04  2.59736505E-06 -1.45925598E-05
 -8.26074867E-03  4.14886031E-04  4.72846857E-04  9.95097526E-03  9.00423427E-04
  3.57018821E-04  1.53335766E-04  1.75402397E-05 -2.50638759E-05 -2.44997341E-04
  7.37204360E-06  1.80592359E-03  3.40587811E-04  4.86739034E-04 -3.55963414E-03
  2.83533038E-04 -2.28450863E-03  1.06449524E-03 -4.18076146E-03  7.41139343E-03