0004_q000_m01_k00_opt_uwb97xd_def2svpd/0004_q000_m01_k00_force_uwb97xd_d
Force     UwB97XD                                                     Gen                 
Number of atoms                            I                6
Info1-9                                    I   N=           9
          13           9           0           0           0         100
           5          18       -5802
Full Title                                 C   N=           8
0004_q000_m01_k00_opt_uwb97xd_def2svpd/0004_q000_m01_k00_for
ce_uwb97xd_def2svpd stable-force    
Route                                      C   N=          15
#p uwb97xd/chkbasis force guess=read geom=check scf=(maxcycl
e=900,verytightlineq,xqc) integral=grid=ultrafine symmetry=N
one density=current pop=(cm5,hlygat,mbs,npa) output=wfx     
Charge                                     I                0
Multiplicity                               I                1
Number of electrons                        I               32
Number of alpha electrons                  I               16
Number of beta electrons                   I               16
Number of basis functions                  I               91
Number of independent functions            I               91
Number of point charges in /Mol/           I                0
Number of translation vectors              I                0
Atomic numbers                             I   N=           6
           6          16           7           1           1           1
Nuclear charges                            R   N=           6
  6.00000000E+00  1.60000000E+01  7.00000000E+00  1.00000000E+00  1.00000000E+00
  1.00000000E+00
Current cartesian coordinates              R   N=          18
  1.67863146E+00  2.68784369E-01  2.05840898E-01  4.73702225E+00  1.96852105E-01
  8.48289160E-02  6.24221873E+00  2.32416928E+00  1.45652951E+00  7.09165380E-01
 -1.25729983E+00 -7.80890272E-01  6.12793001E-01  1.72884379E+00  1.19782199E+00
  5.12841835E+00  3.62849725E+00  2.34675860E+00
Number of symbols in /Mol/                 I                0
Int Atom Types                             I   N=           6
           0           0           0           0           0           0
Force Field                                I                0
Atom Types                                 C   N=           6
                                                            
            
MM charges                                 R   N=           6
  0.00000000E+00  0.00000000E+00  0.00000000E+00  0.00000000E+00  0.00000000E+00
  0.00000000E+00
Integer atomic weights                     I   N=           6
          12          32          14           1           1           1
Real atomic weights                        R   N=           6
  1.20000000E+01  3.19720718E+01  1.40030740E+01  1.00782504E+00  1.00782504E+00
  1.00782504E+00
Atom fragment info                         I   N=           6
           0           0           0           0           0           0
Atom residue num                           I   N=           6
           0           0           0           0           0           0
Nuclear spins                              I   N=           6
           0           0           2           1           1           1
Nuclear ZEff                               R   N=           6
 -3.60000000E+00 -1.36000000E+01 -4.55000000E+00 -1.00000000E+00 -1.00000000E+00
 -1.00000000E+00
Nuclear ZNuc                               R   N=           6
  6.00000000E+00  1.60000000E+01  7.00000000E+00  1.00000000E+00  1.00000000E+00
  1.00000000E+00
Nuclear QMom                               R   N=           6
  0.00000000E+00  0.00000000E+00  2.04400000E+00  0.00000000E+00  0.00000000E+00
  0.00000000E+00
Nuclear GFac                               R   N=           6
  0.00000000E+00  0.00000000E+00  4.03761000E-01  2.79284600E+00  2.79284600E+00
  2.79284600E+00
MicOpt                                     I   N=           6
          -1          -1          -1          -1          -1          -1
Number of residues                         I                0
Number of secondary structures             I                0
Number of contracted shells                I               39
Number of primitive shells                 I               67
Pure/Cartesian d shells                    I                0
Pure/Cartesian f shells                    I                0
Highest angular momentum                   I                2
Largest degree of contraction              I                5
Shell types                                I   N=          39
           0           0           0           0           1           1
          -2          -2           0           0           0           0
           0           1           1           1           1          -2
          -2           0           0           0           0           1
           1          -2          -2           0           0           1
           1           0           0           1           1           0
           0           1           1
Number of primitives per shell             I   N=          39
           5           1           1           1           3           1
           1           1           5           3           1           1
           1           5           1           1           1           1
           1           5           1           1           1           3
           1           1           1           3           1           1
           1           3           1           1           1           3
           1           1           1
Shell to atom map                          I   N=          39
           1           1           1           1           1           1
           1           1           2           2           2           2
           2           2           2           2           2           2
           2           3           3           3           3           3
           3           3           3           4           4           4
           4           5           5           5           5           6
           6           6           6
Primitive exponents                        R   N=          67
  1.23840169E+03  1.86290050E+02  4.22511763E+01  1.16765579E+01  3.59305065E+00
  4.02451474E-01  1.30901827E-01  6.70535403E-02  9.46809706E+00  2.01035451E+00
  5.47710047E-01  1.52686138E-01  8.00000000E-01  1.17131851E-01  9.18493030E+03
  1.38151055E+03  3.13871476E+02  8.80538706E+01  2.70399149E+01  4.56487313E+01
  4.96645223E+00  2.01162420E+00  3.56610770E-01  1.35072215E-01  4.49998235E-02
  2.61982334E+02  6.13068947E+01  1.91037299E+01  6.65677204E+00  2.39596352E+00
  6.17761617E-01  1.69933769E-01  4.17067937E-02  5.50000000E-01  1.01728537E-01
  1.71284159E+03  2.57648127E+02  5.84582459E+01  1.61983679E+01  5.00526008E+00
  5.87318566E-01  1.87645923E-01  9.61712415E-02  1.35714702E+01  2.92573729E+00
  7.99277508E-01  2.19543480E-01  1.00000000E+00  1.66977081E-01  1.30107010E+01
  1.96225720E+00  4.44537960E-01  1.21949620E-01  8.00000000E-01  1.17040991E-01
  1.30107010E+01  1.96225720E+00  4.44537960E-01  1.21949620E-01  8.00000000E-01
  1.17040991E-01  1.30107010E+01  1.96225720E+00  4.44537960E-01  1.21949620E-01
  8.00000000E-01  1.17040991E-01
Contraction coefficients                   R   N=          67
  5.51736505E-03  4.10888286E-02  1.82253821E-01  4.68284594E-01  4.45758173E-01
  1.00000000E+00  1.00000000E+00  1.00000000E+00  5.68883320E-02  3.12940593E-01
  7.60650165E-01  1.00000000E+00  1.00000000E+00  1.00000000E+00 -5.47294661E-03
 -4.09544022E-02 -1.84758290E-01 -4.75672806E-01 -4.34951536E-01 -9.19040458E-02
  5.56987772E-01  5.11154683E-01  1.00000000E+00  1.00000000E+00  1.00000000E+00
 -9.18305466E-03 -6.59022265E-02 -2.45877845E-01 -4.82314711E-01 -3.89563144E-01
  1.00000000E+00  1.00000000E+00  1.00000000E+00  1.00000000E+00  1.00000000E+00
 -5.44779958E-03 -4.06271746E-02 -1.81119623E-01 -4.68439756E-01 -4.46168463E-01
  1.00000000E+00  1.00000000E+00  1.00000000E+00 -5.88481170E-02 -3.20246248E-01
 -7.53282265E-01  1.00000000E+00  1.00000000E+00  1.00000000E+00  3.34854848E-02
  2.34721871E-01  8.13770285E-01  1.00000000E+00  1.00000000E+00  1.00000000E+00
  3.34854848E-02  2.34721871E-01  8.13770285E-01  1.00000000E+00  1.00000000E+00
  1.00000000E+00  3.34854848E-02  2.34721871E-01  8.13770285E-01  1.00000000E+00
  1.00000000E+00  1.00000000E+00
Coordinates of each shell                  R   N=         117
  1.67863146E+00  2.68784369E-01  2.05840898E-01  1.67863146E+00  2.68784369E-01
  2.05840898E-01  1.67863146E+00  2.68784369E-01  2.05840898E-01  1.67863146E+00
  2.68784369E-01  2.05840898E-01  1.67863146E+00  2.68784369E-01  2.05840898E-01
  1.67863146E+00  2.68784369E-01  2.05840898E-01  1.67863146E+00  2.68784369E-01
  2.05840898E-01  1.67863146E+00  2.68784369E-01  2.05840898E-01  4.73702225E+00
  1.96852105E-01  8.48289160E-02  4.73702225E+00  1.96852105E-01  8.48289160E-02
  4.73702225E+00  1.96852105E-01  8.48289160E-02  4.73702225E+00  1.96852105E-01
  8.48289160E-02  4.73702225E+00  1.96852105E-01  8.48289160E-02  4.73702225E+00
  1.96852105E-01  8.48289160E-02  4.73702225E+00  1.96852105E-01  8.48289160E-02
  4.73702225E+00  1.96852105E-01  8.48289160E-02  4.73702225E+00  1.96852105E-01
  8.48289160E-02  4.73702225E+00  1.96852105E-01  8.48289160E-02  4.73702225E+00
  1.96852105E-01  8.48289160E-02  6.24221873E+00  2.32416928E+00  1.45652951E+00
  6.24221873E+00  2.32416928E+00  1.45652951E+00  6.24221873E+00  2.32416928E+00
  1.45652951E+00  6.24221873E+00  2.32416928E+00  1.45652951E+00  6.24221873E+00
  2.32416928E+00  1.45652951E+00  6.24221873E+00  2.32416928E+00  1.45652951E+00
  6.24221873E+00  2.32416928E+00  1.45652951E+00  6.24221873E+00  2.32416928E+00
  1.45652951E+00  7.09165380E-01 -1.25729983E+00 -7.80890272E-01  7.09165380E-01
 -1.25729983E+00 -7.80890272E-01  7.09165380E-01 -1.25729983E+00 -7.80890272E-01
  7.09165380E-01 -1.25729983E+00 -7.80890272E-01  6.12793001E-01  1.72884379E+00
  1.19782199E+00  6.12793001E-01  1.72884379E+00  1.19782199E+00  6.12793001E-01
  1.72884379E+00  1.19782199E+00  6.12793001E-01  1.72884379E+00  1.19782199E+00
  5.12841835E+00  3.62849725E+00  2.34675860E+00  5.12841835E+00  3.62849725E+00
  2.34675860E+00  5.12841835E+00  3.62849725E+00  2.34675860E+00  5.12841835E+00
  3.62849725E+00  2.34675860E+00
Num ILSW                                   I              100
ILSW                                       I   N=         100
           1           0           0           0           2           0
           0           0           0           0        4639          -1
           5           0           0           0           2           0
           0           0           0           0           1           0
           1           1           0           0           0           0
           0           0      100000           0          -1           0
           0           0           0           0           0           0
           0           0           0           1           0           0
           0 -2000000000           1           0           0           0
           0           0         121          52           0           0
           0           0          58           0           0           0
           0           0           0           6           0           1
           0           0           0           0           0           0
           0           0           0           0           0           0
           0           0           0           0           0           0
           0           0           0           0           0           0
           0           0           0           0
Num RLSW                                   I               52
RLSW                                       R   N=          52
  1.00000000E+00  1.00000000E+00  1.00000000E+00  1.00000000E+00  1.00000000E+00
  0.00000000E+00  2.00000000E-01  2.22036000E-01  0.00000000E+00  7.77964000E-01
  0.00000000E+00  2.00000000E-01  0.00000000E+00  0.00000000E+00  1.00000000E+00
  0.00000000E+00  0.00000000E+00  1.00000000E+00  0.00000000E+00  0.00000000E+00
  0.00000000E+00  0.00000000E+00  1.00000000E+00  0.00000000E+00  0.00000000E+00
  0.00000000E+00  0.00000000E+00  1.00000000E+00  0.00000000E+00  0.00000000E+00
  0.00000000E+00  0.00000000E+00  1.00000000E+00  0.00000000E+00  0.00000000E+00
  0.00000000E+00  0.00000000E+00  0.00000000E+00  1.00000000E+00  1.00000000E+00
  0.00000000E+00  1.00000000E+00  0.00000000E+00  0.00000000E+00  0.00000000E+00
  0.00000000E+00  0.00000000E+00  0.00000000E+00  0.00000000E+00  0.00000000E+00
  0.00000000E+00  0.00000000E+00
MxBond                                     I                3
NBond                                      I   N=           6
           3           2           2           1           1           1
IBond                                      I   N=          18
           2           4           5           1           3           0
           2           6           0           1           0           0
           1           0           0           3           0           0
RBond                                      R   N=          18
  2.00000000E+00  1.00000000E+00  1.00000000E+00  2.00000000E+00  2.00000000E+00
  0.00000000E+00  2.00000000E+00  1.00000000E+00  0.00000000E+00  1.00000000E+00
  0.00000000E+00  0.00000000E+00  1.00000000E+00  0.00000000E+00  0.00000000E+00
  1.00000000E+00  0.00000000E+00  0.00000000E+00
Virial Ratio                               R      2.004211572329422E+00
SCF Energy                                 R     -4.925437093011114E+02
Total Energy                               R     -4.925437093011114E+02
S**2                                       R     -2.131628207280301E-14
S**2 after annihilation                    R     -1.790567694115427E-12
RMS Force                                  R      1.111269679975580E-06
RMS Density                                R      8.812259990195772E-10
Job Status                                 I                1
Nuclear derivative order                   I                1
External E-field                           R   N=          35
  0.00000000E+00  0.00000000E+00  0.00000000E+00  0.00000000E+00  0.00000000E+00
  0.00000000E+00  0.00000000E+00  0.00000000E+00  0.00000000E+00  0.00000000E+00
  0.00000000E+00  0.00000000E+00  0.00000000E+00  0.00000000E+00  0.00000000E+00
  0.00000000E+00  0.00000000E+00  0.00000000E+00  0.00000000E+00  0.00000000E+00
  0.00000000E+00  0.00000000E+00  0.00000000E+00  0.00000000E+00  0.00000000E+00
  0.00000000E+00  0.00000000E+00  0.00000000E+00  0.00000000E+00  0.00000000E+00
  0.00000000E+00  0.00000000E+00  0.00000000E+00  0.00000000E+00  0.00000000E+00
IOpCl                                      I                1
IROHF                                      I                0
Alpha Orbital Energies                     R   N=          91
 -8.91209704E+01 -1.44433779E+01 -1.03376668E+01 -8.15982603E+00 -6.11318352E+00
 -6.11121250E+00 -6.10747373E+00 -1.03173551E+00 -8.63328908E-01 -7.00780893E-01
 -5.88964964E-01 -5.61793329E-01 -4.79670197E-01 -4.43933868E-01 -3.79730771E-01
 -3.16927251E-01 -6.63338571E-03  7.84768646E-02  8.63267265E-02  9.86222439E-02
  1.18022154E-01  1.30536683E-01  1.47496578E-01  1.55215322E-01  2.05923524E-01
  2.26687084E-01  2.38952491E-01  2.41706382E-01  2.81461371E-01  2.83911764E-01
  2.97656014E-01  2.97940429E-01  3.19627554E-01  3.29273594E-01  3.64700163E-01
  3.70495936E-01  3.79803902E-01  4.00249524E-01  4.11018743E-01  4.34008230E-01
  4.48580785E-01  4.50424825E-01  4.73482126E-01  4.86526773E-01  5.02999943E-01
  5.23291540E-01  5.43186893E-01  5.89269061E-01  6.01466580E-01  6.31532365E-01
  6.55036422E-01  7.26755796E-01  8.18896126E-01  8.42451873E-01  8.56972719E-01
  8.99887888E-01  9.47088947E-01  9.64960479E-01  9.75174837E-01  9.98820478E-01
  1.05033595E+00  1.05064447E+00  1.10436109E+00  1.14161633E+00  1.19978903E+00
  1.21743715E+00  1.23627188E+00  1.27164365E+00  1.34020691E+00  1.40889655E+00
  1.49495106E+00  1.51638018E+00  1.58676649E+00  1.66112097E+00  1.77878688E+00
  1.81657429E+00  1.88299250E+00  2.00198015E+00  2.15059376E+00  2.15226244E+00
  2.17757134E+00  2.24113543E+00  2.33918562E+00  2.47821034E+00  2.54862822E+00
  2.68476070E+00  2.69072323E+00  2.92766675E+00  3.05615755E+00  3.05831171E+00
  3.45602321E+00
Beta Orbital Energies                      R   N=          91
 -8.91209704E+01 -1.44433779E+01 -1.03376668E+01 -8.15982603E+00 -6.11318352E+00
 -6.11121250E+00 -6.10747373E+00 -1.03173551E+00 -8.63328908E-01 -7.00780893E-01
 -5.88964964E-01 -5.61793329E-01 -4.79670197E-01 -4.43933868E-01 -3.79730771E-01
 -3.16927251E-01 -6.63338571E-03  7.84768646E-02  8.63267265E-02  9.86222439E-02
  1.18022154E-01  1.30536683E-01  1.47496578E-01  1.55215322E-01  2.05923524E-01
  2.26687084E-01  2.38952491E-01  2.41706382E-01  2.81461371E-01  2.83911764E-01
  2.97656014E-01  2.97940429E-01  3.19627554E-01  3.29273594E-01  3.64700163E-01
  3.70495936E-01  3.79803902E-01  4.00249524E-01  4.11018743E-01  4.34008230E-01
  4.48580785E-01  4.50424825E-01  4.73482126E-01  4.86526773E-01  5.02999943E-01
  5.23291540E-01  5.43186893E-01  5.89269061E-01  6.01466580E-01  6.31532365E-01
  6.55036422E-01  7.26755796E-01  8.18896126E-01  8.42451873E-01  8.56972719E-01
  8.99887888E-01  9.47088947E-01  9.64960479E-01  9.75174837E-01  9.98820478E-01
  1.05033595E+00  1.05064447E+00  1.10436109E+00  1.14161633E+00  1.19978903E+00
  1.21743715E+00  1.23627188E+00  1.27164365E+00  1.34020691E+00  1.40889655E+00
  1.49495106E+00  1.51638018E+00  1.58676649E+00  1.66112097E+00  1.77878688E+00
  1.81657429E+00  1.88299250E+00  2.00198015E+00  2.15059376E+00  2.15226244E+00
  2.17757134E+00  2.24113543E+00  2.33918562E+00  2.47821034E+00  2.54862822E+00
  2.68476070E+00  2.69072323E+00  2.92766675E+00  3.05615755E+00  3.05831171E+00
  3.45602321E+00
Alpha MO coefficients                      R   N=        8281
  1.09609857E-04 -8.54469088E-04  1.14515546E-02  1.39733703E-02 -2.40666235E-04
 -3.61158944E-05 -1.81476200E-05  4.75499733E-04  1.73342407E-03  1.13607768E-03
  2.90878562E-04  3.74594806E-05  9.79951947E-05 -5.88606492E-04  1.93210283E-05
 -8.84431517E-04 -2.79124088E-03  2.44583243E-03 -3.28864884E-04 -4.11286019E-03
  9.94180981E-01 -2.24005243E-02  1.51755988E-02 -1.53253261E-02 -8.12032723E-03
 -6.87045310E-05  1.27211851E-04  8.58331493E-05 -2.07153385E-04  3.58284719E-04
  2.42048139E-04  3.38584283E-03  3.18523838E-03  2.02682360E-03  1.44582978E-03
 -5.34237320E-04 -3.88159728E-04 -1.45343588E-04  2.54267600E-04  3.79429545E-04
 -9.11010977E-05  3.98910355E-04  2.28002363E-03 -2.63789718E-03 -1.07273821E-03
 -2.82022147E-03 -4.25517873E-03 -3.16856211E-05  4.36059405E-04 -3.54743382E-04
  1.25460314E-02 -6.94656344E-05  3.94368972E-05  2.78077412E-05  6.26046065E-04
  2.74230160E-03  1.80011157E-03  1.24387557E-04 -2.75113737E-04 -4.13482338E-04
  1.57843865E-04 -4.27481785E-04  1.58708838E-04 -1.68745340E-03 -2.04859412E-04
  3.29744144E-05 -2.56187193E-03 -3.58645567E-04  2.78588298E-03 -1.61700947E-04
  4.30450506E-05  3.23532507E-05  2.58370995E-04  1.34416505E-03  8.83476489E-04
 -4.33547491E-04 -1.57968889E-02 -2.12703791E-04  2.85068571E-05  2.39763645E-05
  4.95654471E-06  2.24480367E-03  1.48601781E-03 -7.68131050E-04 -8.26990322E-03
 -1.74610570E-04 -1.02475421E-04 -6.36016514E-05 -2.53448403E-04  1.70504170E-03
  1.13488291E-03 -2.81630360E-05 -2.72186478E-04  3.04521537E-03  2.12516434E-03
  1.51869684E-04  4.11178619E-05  2.35367575E-05  4.99983529E-03  2.53648094E-03
  1.55881094E-03 -1.29365444E-04  1.07346219E-04 -4.80749786E-05  2.55868014E-04
  1.78386521E-04 -1.50320238E-03  1.11273397E-03 -1.19744572E-03  3.52547804E-03
  1.87391865E-03 -3.52167718E-05 -2.50085871E-04  1.16988270E-03 -2.91221741E-02
  4.78261990E-04  1.11380854E-04  1.72606015E-04  1.11545088E-04 -9.83127679E-05
  1.94938989E-04  1.31312338E-04 -3.16085063E-03 -1.05560341E-02 -6.90967661E-03
  1.82465375E-03  1.58168899E-03  1.00303562E-03  1.84880193E-04  1.99548063E-04
  4.15581153E-05 -3.70313726E-04  2.77316715E-04  2.00049591E-03 -2.24256134E-03
 -2.35261624E-03 -1.28148574E-03 -3.61559029E-03  9.88477179E-01 -4.82453143E-02
  5.77166819E-02 -4.26195619E-03 -3.06206781E-03  1.41066279E-05  8.32686840E-05
 -6.77133853E-03 -6.43571656E-03 -4.09619351E-03  2.13137877E-04  6.02639680E-04
 -8.79772577E-04  3.30777657E-04  8.87294589E-04 -3.26164063E-04  1.29307988E-03
  3.04753795E-03 -2.12527370E-03  1.96915999E-03  1.97412368E-04  5.61005432E-03
  4.89328801E-05  1.11062290E-04  7.23089663E-05  4.47429278E-03 -1.12435946E-03
 -8.51509662E-04  5.97007547E-05  1.49869216E-03 -6.74306348E-05  1.51509497E-05
  1.16530506E-05  3.11457562E-04 -9.41958150E-05 -6.99398202E-05  2.05518521E-03
 -1.51527056E-02  1.85202224E-03 -2.02220547E-03 -1.38322013E-03 -5.05508267E-03
  4.43409970E-03  3.05697569E-03  9.87987993E-01  5.58986044E-02 -1.21509523E-01
 -1.65062965E-02 -8.45111395E-04 -6.94268578E-05 -2.54544193E-05  1.16551734E-02
  5.11178939E-04  5.77614737E-05 -8.71826494E-04 -1.27980284E-04  1.64544660E-03
  1.19477378E-04 -9.45967442E-05  3.00823703E-03  6.75723616E-05 -9.34084479E-03
  2.72671230E-03 -2.12148237E-04  7.88611209E-05  6.54528715E-04 -2.47946106E-03
  1.58130593E-02  1.79674551E-03  3.49781137E-04 -1.03014369E-05 -1.52059076E-05
  1.28417987E-03 -1.38736742E-04 -1.22601762E-04 -2.06058149E-03  1.48539786E-03
  1.03242609E-03  6.07751478E-04  4.56099192E-04  2.87119701E-04  9.43468264E-04
  2.61563596E-04  1.53656935E-04 -1.78085814E-03  2.74886142E-04 -4.58134901E-05
  1.01272050E-03  8.87362174E-04 -7.54120491E-04  1.52629196E-03 -3.44462741E-05
  4.23045544E-05 -4.99003848E-03 -5.87666922E-03 -2.63160598E-04 -1.02799970E-04
 -6.17418004E-05  7.42342687E-04  2.64756139E-04  1.57140823E-04  6.74186547E-05
 -8.35623509E-05 -4.31677157E-05 -7.32545892E-05 -1.34131470E-04 -6.47690862E-04
 -1.47684958E-04  1.24165659E-04  1.02490600E-03 -1.42193007E-04 -2.45904687E-03
  5.59551261E-02 -1.15048469E-03 -1.46366693E-03 -9.41056330E-04  9.66507299E-03
  9.55137822E-03  6.08907276E-03 -2.51919882E-03  5.63554066E-02 -1.13459235E-03
  1.44879884E-03  9.86186007E-04  1.09287095E-02 -8.97744226E-03 -6.20481263E-03
 -5.51767882E-04  6.60430732E-03  2.36984167E-04 -8.74055738E-05 -6.35022011E-05
  8.74702229E-04 -2.10589372E-03 -1.41493298E-03  9.90600363E-05 -2.07720716E-03
  2.28467933E-02  2.99602423E-02 -6.27960816E-04 -8.17731761E-05 -3.91057615E-05
  6.41092523E-04  5.14361151E-03  3.38942629E-03  4.96837760E-04  5.48902182E-05
 -9.97710618E-06 -8.54110033E-04  2.05081672E-05 -1.51194423E-03 -6.66610777E-03
  5.45381190E-03 -1.49356983E-03 -9.89514969E-03  3.06341825E-01  1.01977929E+00
  6.07470515E-02 -4.15385426E-02 -1.77044936E-02  3.33971782E-03 -6.54673277E-03
 -4.41336475E-03 -7.25494665E-04  1.39855107E-03  9.43084319E-04  5.72371936E-03
  6.42771593E-03  4.11663719E-03  2.94924664E-03 -1.43103892E-03 -1.01760018E-03
 -4.91743857E-04  6.29410136E-04  9.00548472E-04  3.53815874E-05  1.00421393E-03
  5.27369030E-03 -6.50115253E-03 -2.74336654E-03 -6.26917234E-03 -1.04429191E-02
  2.95827521E-05  5.01911434E-04  3.99491412E-04  3.04423058E-02 -2.39822394E-04
 -2.14760022E-05 -8.35545945E-06  1.35465365E-03  5.09338421E-03  3.33886055E-03
  1.92264111E-04 -3.08345971E-04 -6.55053377E-04  2.48297907E-04 -4.84487226E-04
  4.49090059E-04 -3.70189684E-03 -3.58614818E-04 -1.79073633E-04 -5.63353866E-03
 -4.26238096E-04  1.00948649E-02 -6.08219769E-05  2.02246616E-04  1.35273435E-04
  8.39414615E-04  3.92703667E-03  2.57902697E-03 -8.39320144E-04 -3.68305459E-02
 -1.79269999E-04  3.48421062E-05  2.73715645E-05 -4.88764306E-04  5.05334362E-03
  3.35725716E-03 -1.25204931E-03 -1.85346413E-02 -3.25195536E-04 -3.75565602E-04
 -2.40715047E-04 -1.03430023E-03  3.58085087E-03  2.39557208E-03 -2.59300569E-05
 -8.04051552E-04  2.14759096E-02  7.83898941E-03 -7.81773120E-04 -5.82774583E-05
 -1.97876564E-05  4.91471869E-03  2.26273927E-03  1.37940918E-03  5.86140212E-04
  1.61363161E-04  8.40991179E-05 -1.09664383E-03  1.69085085E-04 -4.43123785E-04
 -4.26966744E-03  1.08620794E-04  1.00973003E-03 -6.37951362E-03  4.60952432E-04
  1.61400637E-03  4.58558446E-04 -1.39460841E-02 -2.01704813E-03  8.29181904E-01
  4.46786712E-01  2.75857700E-01 -4.51097914E-02 -2.43526714E-02 -1.50378341E-02
  1.95264365E-02  7.17479252E-03  4.28090278E-03  3.49339412E-03  1.14031664E-03
  6.70736652E-04 -2.14059317E-04 -8.39881492E-04 -1.25361164E-03  1.49995689E-03
 -1.23040709E-03  1.52824031E-03  7.56673710E-04  9.27213738E-04 -3.48711707E-03
  9.43398089E-04 -1.69365546E-04 -9.52303520E-04 -8.54346615E-04 -8.23683219E-03
  2.12755679E-04  1.69355512E-04  1.06924904E-04 -1.76447458E-03 -2.31043374E-03
 -1.48688491E-03 -2.15169463E-04  4.86355940E-04  7.75341402E-04 -3.24928980E-04
  7.54931840E-04 -1.13660232E-03  1.36661709E-03  4.39059319E-04  1.48277571E-03
  2.19938507E-03  6.12088952E-05  4.63890303E-03 -6.64759119E-05 -1.20597934E-05
 -6.36578339E-06 -2.32193919E-03  9.83371658E-04  7.06476070E-04 -2.90449591E-04
 -1.50793335E-02 -4.07523475E-05  6.00344334E-06  4.95714319E-06  1.05439725E-03
  3.14145519E-03  2.05365932E-03  2.22084638E-05  6.33192490E-03  3.72653088E-04
  3.53047199E-04  2.24729913E-04  7.05841943E-04 -1.45270456E-03 -9.78592444E-04
  7.68310047E-09  2.36346415E-08 -2.01692837E-06  4.67530930E-07  7.43508419E-06
 -2.02527711E-04  3.05946815E-04 -6.78673824E-05  1.85392604E-03 -2.79990973E-03
 -3.45741769E-05  3.74348639E-04 -3.33042650E-06 -1.79839681E-06 -2.48462602E-04
  5.73832078E-04 -4.04757609E-03  1.34220540E-04  1.36768592E-04  2.69096181E-03
  3.61378750E-07  1.29824485E-06 -3.33438414E-07  2.85651913E-07 -1.02488915E-06
  1.95643908E-02 -5.42023715E-01  8.19069439E-01 -9.91238857E-04  2.74679597E-02
 -4.15078757E-02  2.99908748E-04 -8.33509163E-03  1.25965978E-02 -1.57954935E-05
  4.24254364E-04 -6.41300168E-04 -2.69610622E-04  1.09109644E-04 -1.28045943E-04
 -1.50337833E-04 -8.01444398E-05  8.82314593E-04 -2.94054003E-03  3.25588155E-04
  3.67572549E-04  1.96848197E-03  6.95792939E-09 -4.88473524E-08  8.19907030E-07
  4.81301707E-06 -2.46760056E-06  6.73507743E-05 -1.01731057E-04 -2.60485925E-05
  7.13148759E-04 -1.07680390E-03 -2.42368956E-04 -1.73790698E-04 -1.25012635E-04
 -1.48068932E-04  1.07548557E-04  4.93315572E-04  8.01015571E-04  2.70897012E-04
  3.22491535E-04 -5.14964961E-04  5.31607355E-08  2.88959270E-06  4.16261609E-06
 -1.14407936E-04  1.72886281E-04 -2.61057371E-05  7.26182325E-04 -1.09601430E-03
  1.18590862E-08 -2.43630254E-06  4.07749185E-06 -1.12109054E-04  1.69413736E-04
 -4.67172190E-05  1.29365070E-03 -1.95357666E-03 -2.24208705E-08 -3.77523235E-06
  1.97554671E-06 -5.57347687E-05  8.43012161E-05 -3.65461081E-06  7.96975351E-05
 -1.18578220E-04  4.22428868E-05  6.06093351E-04 -1.37828019E-02 -4.71381092E-03
  5.30997043E-04 -2.10760918E-04 -1.52298929E-04 -6.44996516E-03  5.79656163E-03
  3.99188566E-03 -2.86501741E-04  7.65156301E-05 -1.12968710E-04  5.84831201E-04
  1.52094413E-04  1.73052235E-03 -8.67562459E-03  1.55274056E-03 -3.62526562E-03
 -1.33046932E-02  2.81467420E-03  1.00218253E-02 -3.05880268E-03  1.14206526E-02
  1.38930497E-05 -5.25050621E-01  6.86223776E-01  4.66653708E-01  2.75223409E-02
 -3.60653143E-02 -2.45240228E-02 -1.51237490E-02  1.62735281E-02  1.11317537E-02
 -3.09388990E-03  4.46132854E-04  3.69765617E-04  2.22488644E-04 -8.44412477E-07
 -4.69131250E-04  1.38366292E-05 -2.61029485E-05 -1.98078916E-04 -4.98288204E-03
  1.34549975E-03 -4.07857447E-04 -7.49565174E-03 -8.35477997E-05 -2.99277049E-04
 -1.15291560E-03  1.75055615E-02  7.26829052E-05  9.37348936E-05  6.03182996E-05
  7.65415486E-04  4.94113019E-04  3.09089674E-04 -1.52975013E-04  1.96461680E-04
  1.78138629E-04  9.75911628E-05  3.14161303E-04 -3.17456768E-05 -5.24294536E-04
  1.76743811E-03 -1.40404946E-03 -7.98161803E-04  2.18453525E-04  2.69591037E-02
  9.14747869E-05  1.28219720E-04  8.26224437E-05 -2.96590369E-03  6.78765736E-03
  4.56354373E-03 -3.34197412E-04 -2.54232033E-02  1.66647658E-04  1.14543637E-04
  7.18045725E-05 -6.40037277E-04  3.37326255E-03  2.24870498E-03 -2.35083496E-04
 -1.09411199E-02  4.94368650E-05  3.41368895E-04  2.24733114E-04 -2.50126976E-03
  1.54055170E-03  1.08017112E-03 -7.11364697E-02  1.38501016E-01 -8.63342089E-03
  6.66002044E-04  6.90333586E-02  3.70671281E-03  7.96657264E-04  1.56696048E-02
  1.94200777E-02  1.24763904E-02 -4.61398601E-03  4.70378083E-04 -3.56700793E-04
  8.23635916E-03  1.29019848E-03 -1.12479123E-03 -1.89792966E-02 -5.18341179E-03
  7.83846096E-03 -2.84282805E-02 -5.67322360E-02 -3.50854629E-01  4.99855517E-01
  1.24357313E-01  9.93621088E-03  4.46472952E-03  5.48083510E-02  3.61651835E-02
  7.80400741E-03  8.83258838E-02  5.82667682E-02  9.70488120E-03  6.10030121E-02
  4.01401945E-02 -1.73679410E-03  2.64672242E-03  1.79379992E-03 -1.32149752E-02
  1.44399712E-02  2.74258969E-02 -1.59142404E-03  2.32376440E-02 -2.93158252E-03
 -6.94236718E-03  4.17082825E-03  2.06925578E-03 -1.01209104E-02  1.86539939E-01
  3.74246744E-01  1.31023033E-01 -1.68152313E-02  1.06145076E-01  6.64242093E-02
  4.14036331E-02 -2.43981331E-02 -3.18336222E-02 -2.04815737E-02 -4.31458882E-03
  5.48155744E-03  8.66400542E-03 -3.33117731E-04  8.74658851E-03 -1.25991201E-03
  7.07446923E-03 -8.43012574E-03  8.77093305E-03  1.08771553E-02  2.71237448E-02
  8.32421347E-02  3.70305392E-03  3.28246079E-03  2.08358606E-03  3.63278438E-03
  1.70883990E-02  1.12225937E-02  2.70171909E-02 -4.49050241E-02  3.45255692E-03
 -2.85174154E-03 -1.97036924E-03  9.26246473E-03  1.34112842E-02  8.65327710E-03
  1.15618588E-01  3.17881413E-02  6.51131437E-03 -1.16608753E-02 -7.87562983E-03
  8.87696441E-03 -3.05644834E-03 -2.23731283E-03 -1.90545142E-01  3.84311225E-01
 -2.19492337E-02 -3.48880703E-02  9.17510118E-02 -1.65411680E-02 -1.31474776E-02