0005_q000_m01_k00_opt_uwb97xd_def2svpd/0005_q000_m01_k00_force_ub3lyp_de
Force     UB3LYP                                                      Gen                 
Number of atoms                            I                5
Info1-9                                    I   N=           9
          13           9           0           0           0         100
           5          18        -502
Full Title                                 C   N=           8
0005_q000_m01_k00_opt_uwb97xd_def2svpd/0005_q000_m01_k00_for
ce_ub3lyp_def2svp stable-force      
Route                                      C   N=          15
#p ub3lyp/chkbasis force guess=read geom=check scf=(maxcycle
=900,verytightlineq,xqc) integral=grid=ultrafine symmetry=No
ne density=current pop=(cm5,hlygat,mbs,npa) output=wfx      
Charge                                     I                0
Multiplicity                               I                1
Number of electrons                        I               32
Number of alpha electrons                  I               16
Number of beta electrons                   I               16
Number of basis functions                  I               56
Number of independent functions            I               56
Number of point charges in /Mol/           I                0
Number of translation vectors              I                0
Atomic numbers                             I   N=           5
           6          16           8           1           1
Nuclear charges                            R   N=           5
  6.00000000E+00  1.60000000E+01  8.00000000E+00  1.00000000E+00  1.00000000E+00
Current cartesian coordinates              R   N=          15
  1.84630873E+00 -3.74093449E-02 -1.90536037E-01  4.89061526E+00 -6.53203910E-02
 -2.38935210E-01  5.99277468E+00 -1.34985333E+00 -2.48781287E+00  9.79013775E-01
  8.91172187E-01  1.43410851E+00  7.00713826E-01 -8.88557081E-01 -1.68005585E+00
Number of symbols in /Mol/                 I                0
Int Atom Types                             I   N=           5
           0           0           0           0           0
Force Field                                I                0
Atom Types                                 C   N=           5
                                                            
MM charges                                 R   N=           5
  0.00000000E+00  0.00000000E+00  0.00000000E+00  0.00000000E+00  0.00000000E+00
Integer atomic weights                     I   N=           5
          12          32          16           1           1
Real atomic weights                        R   N=           5
  1.20000000E+01  3.19720718E+01  1.59949146E+01  1.00782504E+00  1.00782504E+00
Atom fragment info                         I   N=           5
           0           0           0           0           0
Atom residue num                           I   N=           5
           0           0           0           0           0
Nuclear spins                              I   N=           5
           0           0           0           1           1
Nuclear ZEff                               R   N=           5
 -3.60000000E+00 -1.36000000E+01 -5.60000000E+00 -1.00000000E+00 -1.00000000E+00
Nuclear ZNuc                               R   N=           5
  6.00000000E+00  1.60000000E+01  8.00000000E+00  1.00000000E+00  1.00000000E+00
Nuclear QMom                               R   N=           5
  0.00000000E+00  0.00000000E+00  0.00000000E+00  0.00000000E+00  0.00000000E+00
Nuclear GFac                               R   N=           5
  0.00000000E+00  0.00000000E+00  0.00000000E+00  2.79284600E+00  2.79284600E+00
MicOpt                                     I   N=           5
          -1          -1          -1          -1          -1
Number of residues                         I                0
Number of secondary structures             I                0
Number of contracted shells                I               26
Number of primitive shells                 I               52
Pure/Cartesian d shells                    I                0
Pure/Cartesian f shells                    I                0
Highest angular momentum                   I                2
Largest degree of contraction              I                5
Shell types                                I   N=          26
           0           0           0           1           1          -2
           0           0           0           0           1           1
           1          -2           0           0           0           1
           1          -2           0           0           1           0
           0           1
Number of primitives per shell             I   N=          26
           5           1           1           3           1           1
           5           3           1           1           5           1
           1           1           5           1           1           3
           1           1           3           1           1           3
           1           1
Shell to atom map                          I   N=          26
           1           1           1           1           1           1
           2           2           2           2           2           2
           2           2           3           3           3           3
           3           3           4           4           4           5
           5           5
Primitive exponents                        R   N=          52
  1.23840169E+03  1.86290050E+02  4.22511763E+01  1.16765579E+01  3.59305065E+00
  4.02451474E-01  1.30901827E-01  9.46809706E+00  2.01035451E+00  5.47710047E-01
  1.52686138E-01  8.00000000E-01  9.18493030E+03  1.38151055E+03  3.13871476E+02
  8.80538706E+01  2.70399149E+01  4.56487313E+01  4.96645223E+00  2.01162420E+00
  3.56610770E-01  1.35072215E-01  2.61982334E+02  6.13068947E+01  1.91037299E+01
  6.65677204E+00  2.39596352E+00  6.17761617E-01  1.69933769E-01  5.50000000E-01
  2.26617678E+03  3.40870102E+02  7.73631352E+01  2.14796449E+01  6.65894331E+00
  8.09759757E-01  2.55307722E-01  1.77215043E+01  3.86355054E+00  1.04809209E+00
  2.76415444E-01  1.20000000E+00  1.30107010E+01  1.96225720E+00  4.44537960E-01
  1.21949620E-01  8.00000000E-01  1.30107010E+01  1.96225720E+00  4.44537960E-01
  1.21949620E-01  8.00000000E-01
Contraction coefficients                   R   N=          52
  5.51736505E-03  4.10888286E-02  1.82253821E-01  4.68284594E-01  4.45758173E-01
  1.00000000E+00  1.00000000E+00  5.68883320E-02  3.12940593E-01  7.60650165E-01
  1.00000000E+00  1.00000000E+00 -5.47294661E-03 -4.09544022E-02 -1.84758290E-01
 -4.75672806E-01 -4.34951536E-01 -9.19040458E-02  5.56987772E-01  5.11154683E-01
  1.00000000E+00  1.00000000E+00 -9.18305466E-03 -6.59022265E-02 -2.45877845E-01
 -4.82314711E-01 -3.89563144E-01  1.00000000E+00  1.00000000E+00  1.00000000E+00
 -5.38935039E-03 -4.02347214E-02 -1.80081842E-01 -4.68288577E-01 -4.46926172E-01
  1.00000000E+00  1.00000000E+00  6.26302488E-02  3.33311385E-01  7.41486383E-01
  1.00000000E+00  1.00000000E+00  3.34854848E-02  2.34721871E-01  8.13770285E-01
  1.00000000E+00  1.00000000E+00  3.34854848E-02  2.34721871E-01  8.13770285E-01
  1.00000000E+00  1.00000000E+00
Coordinates of each shell                  R   N=          78
  1.84630873E+00 -3.74093449E-02 -1.90536037E-01  1.84630873E+00 -3.74093449E-02
 -1.90536037E-01  1.84630873E+00 -3.74093449E-02 -1.90536037E-01  1.84630873E+00
 -3.74093449E-02 -1.90536037E-01  1.84630873E+00 -3.74093449E-02 -1.90536037E-01
  1.84630873E+00 -3.74093449E-02 -1.90536037E-01  4.89061526E+00 -6.53203910E-02
 -2.38935210E-01  4.89061526E+00 -6.53203910E-02 -2.38935210E-01  4.89061526E+00
 -6.53203910E-02 -2.38935210E-01  4.89061526E+00 -6.53203910E-02 -2.38935210E-01
  4.89061526E+00 -6.53203910E-02 -2.38935210E-01  4.89061526E+00 -6.53203910E-02
 -2.38935210E-01  4.89061526E+00 -6.53203910E-02 -2.38935210E-01  4.89061526E+00
 -6.53203910E-02 -2.38935210E-01  5.99277468E+00 -1.34985333E+00 -2.48781287E+00
  5.99277468E+00 -1.34985333E+00 -2.48781287E+00  5.99277468E+00 -1.34985333E+00
 -2.48781287E+00  5.99277468E+00 -1.34985333E+00 -2.48781287E+00  5.99277468E+00
 -1.34985333E+00 -2.48781287E+00  5.99277468E+00 -1.34985333E+00 -2.48781287E+00
  9.79013775E-01  8.91172187E-01  1.43410851E+00  9.79013775E-01  8.91172187E-01
  1.43410851E+00  9.79013775E-01  8.91172187E-01  1.43410851E+00  7.00713826E-01
 -8.88557081E-01 -1.68005585E+00  7.00713826E-01 -8.88557081E-01 -1.68005585E+00
  7.00713826E-01 -8.88557081E-01 -1.68005585E+00
Num ILSW                                   I              100
ILSW                                       I   N=         100
           1           0           0           0           2           0
           0           0           0           0         402          -1
           5           0           0           0           2           0
           0           0           0           0           1           0
           1           1           0           0           0           0
           0           0      100000           0          -1           0
           0           0           0           0           0           0
           0           0           0           1           0           0
           0 -2000000000           1           0           0           0
           0           0           4          52           0           0
           0           0           5           0           0           0
           0           0           0           5           0           1
           0           0           0           0           0           0
           0           0           0           0           0           0
           0           0           0           0           0           0
           0           0           0           0           0           0
           0           0           0           0
Num RLSW                                   I               52
RLSW                                       R   N=          52
  8.00000000E-01  7.20000000E-01  1.00000000E+00  8.10000000E-01  2.00000000E-01
  0.00000000E+00  0.00000000E+00  1.00000000E+00  0.00000000E+00  0.00000000E+00
  0.00000000E+00  0.00000000E+00  1.00000000E+00  0.00000000E+00  0.00000000E+00
  0.00000000E+00  0.00000000E+00  1.00000000E+00  0.00000000E+00  0.00000000E+00
  0.00000000E+00  0.00000000E+00  1.00000000E+00  0.00000000E+00  0.00000000E+00
  0.00000000E+00  0.00000000E+00  1.00000000E+00  0.00000000E+00  0.00000000E+00
  0.00000000E+00  0.00000000E+00  1.00000000E+00  0.00000000E+00  0.00000000E+00
  0.00000000E+00  0.00000000E+00  0.00000000E+00  1.00000000E+00  1.00000000E+00
  0.00000000E+00  1.00000000E+00  0.00000000E+00  0.00000000E+00  0.00000000E+00
  0.00000000E+00  0.00000000E+00  0.00000000E+00  0.00000000E+00  0.00000000E+00
  0.00000000E+00  0.00000000E+00
MxBond                                     I                3
NBond                                      I   N=           5
           3           2           1           1           1
IBond                                      I   N=          15
           2           4           5           1           3           0
           2           0           0           1           0           0
           1           0           0
RBond                                      R   N=          15
  2.00000000E+00  1.00000000E+00  1.00000000E+00  2.00000000E+00  2.00000000E+00
  0.00000000E+00  2.00000000E+00  0.00000000E+00  0.00000000E+00  1.00000000E+00
  0.00000000E+00  0.00000000E+00  1.00000000E+00  0.00000000E+00  0.00000000E+00
Virial Ratio                               R      2.003486099286167E+00
SCF Energy                                 R     -5.124531515988112E+02
Total Energy                               R     -5.124531515988112E+02
S**2                                       R     -1.421085471520200E-14
S**2 after annihilation                    R      8.562039965908979E-13
RMS Force                                  R      3.268307757108705E-03
RMS Density                                R      1.434655178430739E-09
Job Status                                 I                1
Nuclear derivative order                   I                1
External E-field                           R   N=          35
  0.00000000E+00  0.00000000E+00  0.00000000E+00  0.00000000E+00  0.00000000E+00
  0.00000000E+00  0.00000000E+00  0.00000000E+00  0.00000000E+00  0.00000000E+00
  0.00000000E+00  0.00000000E+00  0.00000000E+00  0.00000000E+00  0.00000000E+00
  0.00000000E+00  0.00000000E+00  0.00000000E+00  0.00000000E+00  0.00000000E+00
  0.00000000E+00  0.00000000E+00  0.00000000E+00  0.00000000E+00  0.00000000E+00
  0.00000000E+00  0.00000000E+00  0.00000000E+00  0.00000000E+00  0.00000000E+00
  0.00000000E+00  0.00000000E+00  0.00000000E+00  0.00000000E+00  0.00000000E+00
IOpCl                                      I                1
IROHF                                      I                0
Alpha Orbital Energies                     R   N=          56
 -8.89587011E+01 -1.91224154E+01 -1.02307842E+01 -8.04542043E+00 -6.01307189E+00
 -6.01122017E+00 -6.00749244E+00 -1.03068470E+00 -7.93907592E-01 -5.94853951E-01
 -4.85694879E-01 -4.56280945E-01 -4.17500658E-01 -3.84066460E-01 -2.76314211E-01
 -2.67024618E-01 -8.23282496E-02  4.15829710E-02  7.15914227E-02  1.27037422E-01
  1.53324911E-01  3.11229191E-01  3.93525681E-01  4.75187053E-01  4.80741944E-01
  4.84445364E-01  5.84591513E-01  6.17538164E-01  6.32579660E-01  6.37594951E-01
  6.51908817E-01  7.14301813E-01  7.50852691E-01  8.41529326E-01  9.41936777E-01
  1.00443033E+00  1.02099324E+00  1.07502870E+00  1.16257588E+00  1.17213028E+00
  1.31064812E+00  1.52767842E+00  1.53526951E+00  1.64798429E+00  1.96412801E+00
  1.99936080E+00  2.01062160E+00  2.18507484E+00  2.36390656E+00  2.64208352E+00
  2.64625329E+00  2.71361437E+00  2.76622788E+00  2.83718936E+00  2.90738120E+00
  3.29398649E+00
Beta Orbital Energies                      R   N=          56
 -8.89587011E+01 -1.91224154E+01 -1.02307842E+01 -8.04542043E+00 -6.01307189E+00
 -6.01122017E+00 -6.00749244E+00 -1.03068470E+00 -7.93907592E-01 -5.94853951E-01
 -4.85694879E-01 -4.56280945E-01 -4.17500658E-01 -3.84066460E-01 -2.76314211E-01
 -2.67024618E-01 -8.23282496E-02  4.15829710E-02  7.15914227E-02  1.27037422E-01
  1.53324911E-01  3.11229191E-01  3.93525681E-01  4.75187053E-01  4.80741944E-01
  4.84445364E-01  5.84591513E-01  6.17538164E-01  6.32579660E-01  6.37594951E-01
  6.51908817E-01  7.14301813E-01  7.50852691E-01  8.41529326E-01  9.41936777E-01
  1.00443033E+00  1.02099324E+00  1.07502870E+00  1.16257588E+00  1.17213028E+00
  1.31064812E+00  1.52767842E+00  1.53526951E+00  1.64798429E+00  1.96412801E+00
  1.99936080E+00  2.01062160E+00  2.18507484E+00  2.36390656E+00  2.64208352E+00
  2.64625329E+00  2.71361437E+00  2.76622788E+00  2.83718936E+00  2.90738120E+00
  3.29398649E+00
Alpha MO coefficients                      R   N=        3136
  1.35701068E-04 -5.58752498E-04  1.83079441E-03 -4.99830056E-04  9.06659299E-06
  1.57886890E-05  8.45497252E-04 -8.30198515E-06 -1.43402716E-05  3.17621745E-04
 -1.97199670E-05 -9.59772770E-06 -5.61457940E-04 -1.11707281E-05  9.94224315E-01
 -2.19038524E-02  1.01604556E-02 -5.33559417E-03 -1.03216191E-04 -9.98027846E-05
 -1.74746270E-04 -3.24640175E-04 -3.18524263E-04 -5.57742523E-04  1.66894280E-03
 -4.43772399E-04 -7.76737287E-04  2.21827287E-04 -4.36579484E-04  4.45527961E-04
  1.41297990E-04 -2.49401651E-04 -2.48086454E-05  3.91978621E-04 -1.66707912E-03
  7.21643433E-05 -5.43821960E-05 -9.52039521E-05  5.31429660E-04 -8.62208721E-04
 -1.50953349E-03 -4.00590570E-04  4.17322054E-04 -5.48564146E-04  4.67751208E-05
  2.38370737E-04 -9.80712762E-05  2.79436950E-04  7.40427001E-05 -2.50857027E-05
 -4.38845511E-05 -3.55455509E-05  5.21566602E-05 -1.32853957E-05  4.54772543E-05
  7.95633956E-05 -5.53680973E-05  9.26340509E-05  4.35538850E-03  4.45810738E-04
 -3.56809652E-05 -6.25128850E-05  6.27665191E-04 -1.10640841E-03 -1.93645027E-03
 -6.59103022E-05 -2.64287686E-04  2.11784292E-05  1.38921002E-04 -1.50955132E-04
 -3.75285728E-05 -2.29778086E-04  1.11899198E-03 -1.17058421E-02  5.31560699E-05
 -1.18789494E-04 -2.07972968E-04 -3.57640991E-04 -8.39742252E-05 -1.47054133E-04
 -5.70757933E-04  3.83221315E-03  6.70941984E-03 -6.57721308E-05 -2.95817072E-05
 -4.44335466E-04 -4.10277501E-04 -1.68304313E-05  9.88995844E-01 -3.96006689E-02
  2.42604188E-02  9.40503388E-04 -9.92768714E-04 -1.73814725E-03 -2.85530927E-03
  2.92148086E-03  5.11477517E-03  1.25234985E-04 -2.31764101E-04  1.85978552E-04
  2.45026694E-06 -1.32377154E-04  1.20919652E-04 -1.20788007E-04 -9.62646300E-05
  7.90446923E-05  1.38351858E-04 -3.24280390E-04 -1.84736220E-03 -2.74346210E-05
 -2.66124346E-05 -4.65330080E-05  9.88268978E-01  4.70701373E-02 -2.80223792E-02
 -8.00856912E-04  9.39162279E-05  1.64069047E-04  7.22566890E-04  1.60816117E-04
  2.81693382E-04  7.87821141E-04  2.17725733E-04  2.22998585E-03  1.26301293E-03
  1.24085634E-04  9.36364322E-05  7.84619950E-04 -1.97121985E-03  4.31521311E-03
  4.66687194E-04 -6.01517683E-06 -1.04622274E-05  1.92341665E-03  9.96814490E-06
  1.77252577E-05  1.59128027E-04 -2.60610399E-04 -4.56127578E-04  1.31954879E-03
 -2.15112018E-05 -1.02173336E-04 -2.40583910E-03 -1.18410105E-05 -3.68692417E-05
 -2.05158797E-04 -4.49299970E-04  2.30184150E-04 -3.60102000E-05 -6.29554697E-05
 -5.40801755E-04 -1.24893208E-04 -2.18893706E-04 -5.06823536E-05  7.67880622E-05
 -3.73836433E-06  8.34110596E-05  4.38394561E-05 -4.61323107E-03  6.94833068E-03
 -1.33304513E-03  1.32720988E-03  2.32204672E-03 -4.45792892E-03  7.29903389E-03
 -1.65216393E-03 -1.22633482E-03 -2.14613242E-03  2.01121999E-04 -1.88908451E-03
  5.46279290E-03 -1.30184505E-03  1.04035777E-05  1.80010438E-05  2.45729785E-03
 -1.59449716E-04 -2.78511441E-04  4.09774858E-04 -6.83962476E-05 -1.84287462E-04
 -9.26928739E-04 -3.89046764E-05  3.06432221E-01  1.02028847E+00  5.10916513E-02
 -2.00486015E-02  3.84105596E-03  4.11026668E-03  7.19523286E-03 -1.21690689E-03
 -1.05938683E-03 -1.85480754E-03  4.45100335E-03 -8.22682258E-04 -1.43983156E-03
  4.69439518E-04 -1.18922234E-03  1.03435365E-03  4.06892984E-04 -6.79372920E-04
  3.85989644E-05  3.11260936E-04 -2.79504590E-03  1.72076920E-04 -1.39706098E-04
 -2.44579490E-04  1.13458406E-03 -1.96434537E-03 -3.43913645E-03 -5.74191413E-04
  5.37386108E-04 -7.79641346E-04  7.48732988E-05  3.06950611E-04  8.68794905E-06
  8.94895680E-04  3.83988297E-04 -1.05188576E-04 -1.83999157E-04  1.51464640E-05
  9.98479264E-05  2.02861159E-04  1.15644139E-04  2.02363276E-04  6.70461302E-05
 -1.17170509E-03  4.43778571E-03 -1.31632674E-03 -5.62012662E-05 -9.85893115E-05
  1.59565133E-03  4.31648489E-04  7.55638723E-04  6.84167756E-04 -2.77371894E-04
 -2.56957984E-05 -1.21531480E-03 -1.58284272E-04  9.31872026E-04  3.26835589E-03
  2.31298355E-04 -6.29787424E-03  7.19192148E-01 -3.31335685E-01 -5.79845773E-01
 -3.82750764E-02  1.75056237E-02  3.06356032E-02  7.22869400E-03 -1.56837161E-03
 -2.74337580E-03 -1.84905034E-03  1.26181422E-03 -1.73740067E-03  1.15345196E-03
  7.20609434E-04 -2.75052670E-04 -8.92872479E-04  3.63017373E-03 -4.18999900E-05
  2.00915397E-04  3.51800644E-04 -2.35947827E-03  1.73245797E-03  3.03283431E-03
  6.36468578E-04 -7.30459896E-04  8.52535903E-04 -9.67048273E-05 -4.17205605E-04
 -3.48967208E-04  3.09522743E-05  2.79620808E-04 -1.02926761E-05 -1.79973799E-05
  3.04697914E-04 -1.29152211E-04  3.13863887E-05  8.88557426E-05  1.55483002E-04
  4.18644750E-09 -8.23620496E-08  4.34704132E-07 -5.01475541E-08  2.26368989E-04
 -1.29320380E-04 -5.04311166E-08 -1.26333441E-03  7.21534463E-04  1.25280929E-05
 -2.01342762E-04 -8.47116563E-06  7.20632625E-06  3.52554726E-04 -1.08119216E-07
 -3.56963798E-07 -5.86901719E-09 -5.62987358E-07  1.10231500E-04  8.52880518E-01
 -4.87216403E-01 -5.67476164E-06 -4.27924572E-02  2.44457609E-02  9.70134949E-07
  7.33923976E-03 -4.19218862E-03 -3.16499898E-04 -6.49931615E-05  2.15214679E-04
 -1.82584839E-04  1.14155976E-04 -2.99586788E-08 -1.03824837E-07  4.36364708E-07
  7.64151909E-10  1.16379773E-04 -6.64291120E-05 -2.60149719E-07 -6.01229919E-04
  3.43847384E-04 -2.80627722E-04  8.63550501E-05  1.91251630E-04 -1.62082559E-04
 -1.51322651E-04  9.62018572E-08 -8.43591115E-08 -5.40090701E-08  1.09109778E-04
 -6.23730480E-05 -1.28223393E-07 -8.23491908E-08  3.93339036E-08  1.44399267E-04
 -8.25508560E-05  1.78928336E-05 -9.72667509E-04  6.15517844E-03 -8.76565482E-04
  7.85723243E-05  1.37422399E-04  2.24956455E-03 -7.49370056E-04 -1.31141635E-03
  4.38872795E-04  4.20602827E-04 -1.11364434E-05 -7.73214636E-04  2.40438034E-04
 -2.92859761E-03 -1.04725722E-02  3.15727987E-03 -6.20381855E-03  6.68193954E-01
  3.56904092E-01  6.24917802E-01 -3.42209972E-02 -1.81151006E-02 -3.17185374E-02
  8.47003499E-03  3.34797809E-03  5.86244390E-03  9.72948015E-05  1.41730666E-04
  4.61497798E-04  3.75761195E-04  8.09223906E-05  9.01010616E-05 -1.74532311E-04
  1.21714104E-03  1.24190096E-04 -3.23436228E-05 -5.66243947E-05 -5.04938099E-04
 -4.40935660E-04 -7.72036564E-04 -2.02998788E-05  3.92033661E-04 -1.68964201E-04
 -1.64127799E-04  2.23936489E-04  2.75600269E-04 -3.01255344E-04 -1.30128206E-04
 -6.72710758E-05 -1.17675935E-04 -4.97303165E-04 -4.17451946E-04  1.52375181E-04
 -9.50858514E-07 -1.59163770E-06 -3.65775327E-02  6.94616568E-02  1.38795466E-02
  4.24000801E-02 -3.81287375E-03 -6.66933187E-03  8.13617686E-03 -3.49241159E-04
 -6.09362567E-04 -3.87051517E-03 -2.96840362E-03 -5.91274627E-04  6.00649292E-03
 -1.69649220E-03 -4.62099210E-02 -2.83681627E-01  4.06075145E-01  6.76256930E-02
  1.94500347E-02 -4.05438649E-02 -7.09822956E-02  3.12442093E-02 -6.64873346E-02
 -1.16402436E-01  1.43538023E-02 -2.22611699E-02 -3.89721066E-02  2.39392814E-02
 -2.95445533E-02  3.56461533E-02  5.80204630E-04 -1.68765547E-02  2.34556120E-01
  4.68414110E-01  2.67332786E-01 -6.55805717E-02  7.16759561E-02  1.25486581E-01
 -2.40388724E-02  2.41927260E-02  4.23557529E-02  7.47585032E-03 -1.02954173E-02
  1.01170154E-02 -1.01451127E-03 -5.88011440E-03  1.01258134E-02  3.85322828E-03
  2.77908418E-03 -8.91195199E-04 -1.55888089E-03  1.27075058E-02  6.02411625E-04
  2.27088395E-03  1.05992495E-03  1.85469814E-03 -1.98241193E-01  3.95731028E-01
  8.50818691E-02  1.21190342E-01  6.99599212E-03  1.22622250E-02  9.84312943E-03
  1.72675654E-03  3.02424560E-03 -6.53252022E-03  2.06206424E-03  2.11021587E-03
  1.38008455E-02  1.17529129E-03 -4.14826684E-02 -2.59338780E-01  3.79110097E-01
  1.50263330E-01 -1.05597807E-01  2.43603950E-02  4.26360224E-02 -1.74909792E-01
  3.96740952E-02  6.94383339E-02 -1.11044665E-01  2.36803581E-02  4.14442846E-02
 -3.14281274E-02  1.27641417E-02 -1.65713433E-02  3.48876179E-02  7.28487606E-03
 -1.21042967E-01 -2.47348276E-01 -1.85591750E-01 -9.80170968E-03 -1.02115209E-02
 -1.78805336E-02  1.24381671E-03 -5.40438104E-03 -9.46208924E-03 -2.37461858E-03
 -4.01200398E-04 -1.83874747E-03  1.94336290E-03 -2.29520901E-04  1.13304601E-01
  1.12914390E-02  7.22271778E-03 -6.15378692E-03 -1.07665987E-02  9.48324901E-02
  1.06180129E-02  7.69115624E-03  4.95383501E-03  8.66971198E-03  1.54550321E-01
 -3.16648493E-01 -1.33952917E-01  2.08067356E-01  8.54689791E-03  1.49974193E-02
  5.49382657E-02 -1.29434546E-03 -2.25521861E-03 -7.59719858E-03  2.94016071E-04
 -7.00969262E-03  4.89897165E-03  1.67087937E-04 -4.88445237E-02 -3.11993373E-01
  4.87950050E-01  1.96862137E-01  1.50058413E-02  1.82025542E-02  3.18752581E-02
  2.41250668E-02  2.87099534E-02  5.02764620E-02  3.49524800E-02  3.62563621E-02
  6.34887998E-02 -2.51440554E-03  3.90770356E-04 -1.03469522E-02 -7.85013311E-03
  2.24712092E-04 -1.01202980E-01 -2.07202822E-01 -2.02479633E-01 -1.87524893E-02
  5.15764150E-02  9.03000639E-02 -9.14463776E-03  2.36205940E-02  4.13546375E-02
  3.30308288E-03 -1.60645097E-03  3.93157680E-03 -1.08320794E-03 -9.17646781E-04
 -1.90524200E-01 -4.13841702E-02 -2.33349673E-03  7.98797054E-03  1.39769757E-02
 -2.23181053E-01 -5.53620434E-02 -6.64510905E-03 -8.31453241E-03 -1.45497362E-02
  3.09107661E-04 -4.95977564E-03  1.11815526E-02 -6.02978708E-02  2.02388541E-01
  3.54117075E-01 -8.74651395E-03  7.23888557E-02  1.26657648E-01  4.94248133E-03
 -9.35581428E-04  2.75842140E-03 -5.31111365E-03 -5.33044375E-04 -1.24132690E-03
 -7.70756285E-03  3.66797236E-03  2.16588375E-02  5.08377066E-02  4.31232756E-02
  7.54473830E-02  9.06762121E-02  7.71233952E-02  1.34934015E-01  8.33516617E-02
  7.62154244E-02  1.33342839E-01 -5.26288613E-03 -4.66554564E-02 -7.35654010E-03
  4.38393825E-04 -2.66599586E-02  3.95055826E-02  7.61498254E-02  1.21666477E-01
  1.38635650E-01 -1.77453456E-02 -3.11121707E-02  7.79298099E-02 -5.25391384E-03
 -9.22251498E-03  1.53561822E-03  7.10927670E-03 -1.09676509E-03 -3.95763241E-03
  4.05975798E-03  3.07144347E-01  9.91274576E-02  1.04349144E-02 -4.94882917E-03
 -8.65786398E-03 -2.29078642E-01 -6.48797165E-02 -1.15898426E-02 -2.12380175E-03
 -3.71870804E-03 -5.32544618E-03  1.30248477E-04  5.51912315E-02 -3.10996161E-01
 -2.84696745E-02 -4.98464994E-02 -1.06967663E-01 -1.13483036E-02 -1.98625268E-02
  9.38867844E-03  3.28124259E-04  3.86249260E-03 -1.17110277E-02  1.88614893E-04
 -1.69524561E-02 -1.10946168E-01  1.79549521E-01  8.72665281E-02  1.77051444E-01
 -1.20231182E-02 -2.10015667E-02  3.21641322E-01 -2.59061412E-02 -4.52690254E-02
  2.61208750E-01  5.35884534E-03  9.46325518E-03  1.49527130E-02 -2.09822023E-02
  4.65374168E-03 -2.04200566E-02 -1.19796274E-02 -9.32240316E-02 -1.83969143E-01
 -2.47297274E-01  3.84928061E-02  1.61744873E-01  2.83225938E-01  2.60845360E-02
  8.94131899E-02  1.56570437E-01  1.19254916E-02  3.90107417E-04  1.22874966E-02
 -6.15734183E-03  2.23609985E-04  7.57060102E-02  2.49758453E-02 -3.25810965E-03
 -3.13366168E-03 -5.48337147E-03  1.82781129E-01  3.98849356E-02  4.26440472E-04
  5.33416309E-03  9.33476848E-03 -3.39006284E-07  1.66173516E-07  9.46784263E-06
  1.56646455E-05  1.51921672E-01 -8.68258953E-02  5.29056229E-06  8.37281040E-02
 -4.78600151E-02  4.29847850E-04 -8.56982104E-03 -2.92044754E-04  2.51673497E-04
  1.49954796E-02  1.46017723E-06  9.00604950E-06 -2.11527210E-06 -5.08241426E-05
  6.80592564E-06  1.77370020E-01 -1.01368573E-01  1.33655105E-05  3.18768531E-01
 -1.82183176E-01  5.16221306E-06  3.46559843E-01 -1.98029485E-01  3.95706322E-02
  5.01591911E-03 -2.69349824E-02  2.28358751E-02 -8.77406219E-03 -2.56125738E-05
 -4.90749898E-05 -7.35918965E-05 -7.22724710E-05  3.06057916E-01 -1.74710476E-01
 -4.35619643E-05  1.94505585E-01 -1.11038593E-01 -1.63369315E-02  4.98853029E-03
  1.11297502E-02 -9.43214334E-03 -8.74283496E-03 -1.10670856E-06 -1.71045998E-06
  1.69992276E-07  4.10169040E-03 -2.34394551E-03  5.11275834E-07 -9.71164166E-06
  8.88038115E-08  4.13479563E-03 -2.36326719E-03  2.40950649E-03 -5.14894829E-03
  1.13040115E-03 -3.22301516E-02 -9.46322411E-02 -1.65605936E-01 -1.40172538E-02
 -2.69548700E-02 -4.71701719E-02  2.02505874E-04  1.45909840E-02 -1.70108364E-03
 -2.35242846E-03  8.33964900E-03 -1.10465018E-02 -7.02394492E-02  6.93214067E-02
  2.23425324E-01  4.48055166E-02  8.30035695E-02  1.45235479E-01  7.55549552E-02
  1.55587043E-01  2.72243950E-01  1.26680757E-01  1.22925479E-01  2.15038878E-01
 -3.72626851E-02  1.36025979E-02 -4.17877439E-02  1.52928124E-02  7.77922954E-03
  5.81072839E-02  1.09059143E-01  1.66462293E-01  3.49762450E-01 -1.22621457E-01
 -2.14884226E-01  2.23703491E-01 -7.39951407E-02 -1.29686806E-01 -5.09799516E-04
  1.74537190E-02 -5.90292056E-03 -6.09337630E-03  9.96635694E-03 -1.68598803E-01
 -8.68462432E-02 -4.86917667E-03  1.82484848E-03  3.19129403E-03  1.71939639E-01
  8.31483760E-02  4.31516594E-03  2.01861782E-03  3.53265395E-03 -5.79779626E-02
  1.53542904E-01  2.43378986E-01  2.25875925E-01 -8.87082794E-03 -1.55065934E-02
  1.24574812E-01  2.81112404E-02  4.92145850E-02 -4.04253564E-03 -5.14843939E-03
 -2.45267180E-03  4.10818261E-03 -2.94155886E-03  1.55050510E-02  1.00676955E-01
 -1.06745989E-01 -3.46456607E-01 -6.08374462E-02 -4.01048770E-02 -7.02276023E-02
 -1.24929702E-01 -7.34910362E-02 -1.28692603E-01 -2.20175540E-02 -1.00839230E-01
 -1.76555434E-01 -5.63391625E-02 -6.33051576E-02 -1.34364017E-02  8.17164727E-02
 -3.61708567E-02  1.18262430E-03  9.90712506E-03 -2.91399014E-02  4.57406512E-01
  1.49692412E-01  2.62176407E-01  3.62423184E-01  1.07150622E-01  1.87672207E-01
  1.09553371E-02  9.03219826E-03  8.55697091E-03 -8.87759620E-03  5.15967581E-03
 -5.54234258E-02 -1.07260866E-01  3.45889209E-03  1.77756797E-03  3.10921248E-03
 -5.03448625E-02 -8.02203727E-02  1.79483839E-03 -1.12756054E-03 -1.97309209E-03
 -3.24506812E-06  2.71578450E-06  3.81227835E-05 -2.31750958E-05 -3.39758309E-01
  1.94185793E-01 -2.45965057E-05 -2.86239681E-01  1.63573954E-01  1.84330585E-03
  8.38150363E-03 -1.25508765E-03  1.06216285E-03 -1.46727230E-02  2.62954829E-06
  1.70348744E-05 -1.78544376E-05 -6.22890258E-05 -1.26137273E-05 -5.89896922E-02
  3.36811436E-02 -2.24948226E-05 -1.12246092E-01  6.40873953E-02 -3.46308161E-05
 -1.17266256E-01  6.69727914E-02  5.49893876E-02 -4.81584437E-02 -3.74368575E-02
  3.17578534E-02  8.42645403E-02  2.11307663E-06  5.70546726E-06  1.44167847E-05
 -3.52381263E-06  3.85586711E-01 -2.20180906E-01  3.75808753E-07  3.09152577E-01
 -1.76535472E-01 -1.10420931E-02  2.88276550E-03  7.52163018E-03 -6.37574788E-03
 -5.04917253E-03  1.52767367E-05  4.22066442E-06 -1.25170275E-06 -1.09374925E-02
  6.25077009E-03 -2.17367784E-05 -3.37804274E-05 -1.70286933E-06 -9.55908870E-03
  5.46250026E-03 -3.00091875E-08  2.41861829E-06 -4.34712541E-05 -2.34703348E-05
 -3.55153771E-01  2.02962204E-01 -8.37854932E-06 -4.10790942E-01  2.34785287E-01
 -6.35208907E-04 -5.07178076E-03  4.32977664E-04 -3.63725986E-04  8.89389048E-03
  2.52644279E-06  1.66676425E-05 -1.62663512E-05 -8.55497369E-05  5.59001879E-06
  1.60215892E-01 -9.14976704E-02  1.26060447E-05  2.97999106E-01 -1.70186022E-01
  1.57334299E-06  5.29692178E-01 -3.02470475E-01 -4.15711809E-02 -2.28984030E-02