0005_q000_m01_k00_opt_uwb97xd_def2svpd/0005_q000_m01_k00_force_uhf_def2s
Force     UHF                                                         Gen                 
Number of atoms                            I                5
Info1-9                                    I   N=           9
          13           9           0           0           0         100
           5           1           2
Full Title                                 C   N=           8
0005_q000_m01_k00_opt_uwb97xd_def2svpd/0005_q000_m01_k00_for
ce_uhf_def2svpd stable-force        
Route                                      C   N=          15
#p uhf/chkbasis force guess=read geom=check scf=(maxcycle=90
0,verytightlineq,xqc) integral=grid=ultrafine symmetry=None 
density=current pop=(cm5,hlygat,mbs,npa) output=wfx         
Charge                                     I                0
Multiplicity                               I                1
Number of electrons                        I               32
Number of alpha electrons                  I               16
Number of beta electrons                   I               16
Number of basis functions                  I               86
Number of independent functions            I               86
Number of point charges in /Mol/           I                0
Number of translation vectors              I                0
Atomic numbers                             I   N=           5
           6          16           8           1           1
Nuclear charges                            R   N=           5
  6.00000000E+00  1.60000000E+01  8.00000000E+00  1.00000000E+00  1.00000000E+00
Current cartesian coordinates              R   N=          15
  1.84630873E+00 -3.74093449E-02 -1.90536037E-01  4.89061526E+00 -6.53203910E-02
 -2.38935210E-01  5.99277468E+00 -1.34985333E+00 -2.48781287E+00  9.79013775E-01
  8.91172187E-01  1.43410851E+00  7.00713826E-01 -8.88557081E-01 -1.68005585E+00
Number of symbols in /Mol/                 I                0
Int Atom Types                             I   N=           5
           0           0           0           0           0
Force Field                                I                0
Atom Types                                 C   N=           5
                                                            
MM charges                                 R   N=           5
  0.00000000E+00  0.00000000E+00  0.00000000E+00  0.00000000E+00  0.00000000E+00
Integer atomic weights                     I   N=           5
          12          32          16           1           1
Real atomic weights                        R   N=           5
  1.20000000E+01  3.19720718E+01  1.59949146E+01  1.00782504E+00  1.00782504E+00
Atom fragment info                         I   N=           5
           0           0           0           0           0
Atom residue num                           I   N=           5
           0           0           0           0           0
Nuclear spins                              I   N=           5
           0           0           0           1           1
Nuclear ZEff                               R   N=           5
 -3.60000000E+00 -1.36000000E+01 -5.60000000E+00 -1.00000000E+00 -1.00000000E+00
Nuclear ZNuc                               R   N=           5
  6.00000000E+00  1.60000000E+01  8.00000000E+00  1.00000000E+00  1.00000000E+00
Nuclear QMom                               R   N=           5
  0.00000000E+00  0.00000000E+00  0.00000000E+00  0.00000000E+00  0.00000000E+00
Nuclear GFac                               R   N=           5
  0.00000000E+00  0.00000000E+00  0.00000000E+00  2.79284600E+00  2.79284600E+00
MicOpt                                     I   N=           5
          -1          -1          -1          -1          -1
Number of residues                         I                0
Number of secondary structures             I                0
Number of contracted shells                I               36
Number of primitive shells                 I               62
Pure/Cartesian d shells                    I                0
Pure/Cartesian f shells                    I                0
Highest angular momentum                   I                2
Largest degree of contraction              I                5
Shell types                                I   N=          36
           0           0           0           0           1           1
          -2          -2           0           0           0           0
           0           1           1           1           1          -2
          -2           0           0           0           0           1
           1           1          -2          -2           0           0
           1           1           0           0           1           1
Number of primitives per shell             I   N=          36
           5           1           1           1           3           1
           1           1           5           3           1           1
           1           5           1           1           1           1
           1           5           1           1           1           3
           1           1           1           1           3           1
           1           1           3           1           1           1
Shell to atom map                          I   N=          36
           1           1           1           1           1           1
           1           1           2           2           2           2
           2           2           2           2           2           2
           2           3           3           3           3           3
           3           3           3           3           4           4
           4           4           5           5           5           5
Primitive exponents                        R   N=          62
  1.23840169E+03  1.86290050E+02  4.22511763E+01  1.16765579E+01  3.59305065E+00
  4.02451474E-01  1.30901827E-01  6.70535403E-02  9.46809706E+00  2.01035451E+00
  5.47710047E-01  1.52686138E-01  8.00000000E-01  1.17131851E-01  9.18493030E+03
  1.38151055E+03  3.13871476E+02  8.80538706E+01  2.70399149E+01  4.56487313E+01
  4.96645223E+00  2.01162420E+00  3.56610770E-01  1.35072215E-01  4.49998235E-02
  2.61982334E+02  6.13068947E+01  1.91037299E+01  6.65677204E+00  2.39596352E+00
  6.17761617E-01  1.69933769E-01  4.17067937E-02  5.50000000E-01  1.01728537E-01
  2.26617678E+03  3.40870102E+02  7.73631352E+01  2.14796449E+01  6.65894331E+00
  8.09759757E-01  2.55307722E-01  7.65724533E-02  1.77215043E+01  3.86355054E+00
  1.04809209E+00  2.76415444E-01  6.90022764E-02  1.20000000E+00  1.79920243E-01
  1.30107010E+01  1.96225720E+00  4.44537960E-01  1.21949620E-01  8.00000000E-01
  1.17040991E-01  1.30107010E+01  1.96225720E+00  4.44537960E-01  1.21949620E-01
  8.00000000E-01  1.17040991E-01
Contraction coefficients                   R   N=          62
  5.51736505E-03  4.10888286E-02  1.82253821E-01  4.68284594E-01  4.45758173E-01
  1.00000000E+00  1.00000000E+00  1.00000000E+00  5.68883320E-02  3.12940593E-01
  7.60650165E-01  1.00000000E+00  1.00000000E+00  1.00000000E+00 -5.47294661E-03
 -4.09544022E-02 -1.84758290E-01 -4.75672806E-01 -4.34951536E-01 -9.19040458E-02
  5.56987772E-01  5.11154683E-01  1.00000000E+00  1.00000000E+00  1.00000000E+00
 -9.18305466E-03 -6.59022265E-02 -2.45877845E-01 -4.82314711E-01 -3.89563144E-01
  1.00000000E+00  1.00000000E+00  1.00000000E+00  1.00000000E+00  1.00000000E+00
 -5.38935039E-03 -4.02347214E-02 -1.80081842E-01 -4.68288577E-01 -4.46926172E-01
  1.00000000E+00  1.00000000E+00  1.00000000E+00  6.26302488E-02  3.33311385E-01
  7.41486383E-01  1.00000000E+00  1.00000000E+00  1.00000000E+00  1.00000000E+00
  3.34854848E-02  2.34721871E-01  8.13770285E-01  1.00000000E+00  1.00000000E+00
  1.00000000E+00  3.34854848E-02  2.34721871E-01  8.13770285E-01  1.00000000E+00
  1.00000000E+00  1.00000000E+00
Coordinates of each shell                  R   N=         108
  1.84630873E+00 -3.74093449E-02 -1.90536037E-01  1.84630873E+00 -3.74093449E-02
 -1.90536037E-01  1.84630873E+00 -3.74093449E-02 -1.90536037E-01  1.84630873E+00
 -3.74093449E-02 -1.90536037E-01  1.84630873E+00 -3.74093449E-02 -1.90536037E-01
  1.84630873E+00 -3.74093449E-02 -1.90536037E-01  1.84630873E+00 -3.74093449E-02
 -1.90536037E-01  1.84630873E+00 -3.74093449E-02 -1.90536037E-01  4.89061526E+00
 -6.53203910E-02 -2.38935210E-01  4.89061526E+00 -6.53203910E-02 -2.38935210E-01
  4.89061526E+00 -6.53203910E-02 -2.38935210E-01  4.89061526E+00 -6.53203910E-02
 -2.38935210E-01  4.89061526E+00 -6.53203910E-02 -2.38935210E-01  4.89061526E+00
 -6.53203910E-02 -2.38935210E-01  4.89061526E+00 -6.53203910E-02 -2.38935210E-01
  4.89061526E+00 -6.53203910E-02 -2.38935210E-01  4.89061526E+00 -6.53203910E-02
 -2.38935210E-01  4.89061526E+00 -6.53203910E-02 -2.38935210E-01  4.89061526E+00
 -6.53203910E-02 -2.38935210E-01  5.99277468E+00 -1.34985333E+00 -2.48781287E+00
  5.99277468E+00 -1.34985333E+00 -2.48781287E+00  5.99277468E+00 -1.34985333E+00
 -2.48781287E+00  5.99277468E+00 -1.34985333E+00 -2.48781287E+00  5.99277468E+00
 -1.34985333E+00 -2.48781287E+00  5.99277468E+00 -1.34985333E+00 -2.48781287E+00
  5.99277468E+00 -1.34985333E+00 -2.48781287E+00  5.99277468E+00 -1.34985333E+00
 -2.48781287E+00  5.99277468E+00 -1.34985333E+00 -2.48781287E+00  9.79013775E-01
  8.91172187E-01  1.43410851E+00  9.79013775E-01  8.91172187E-01  1.43410851E+00
  9.79013775E-01  8.91172187E-01  1.43410851E+00  9.79013775E-01  8.91172187E-01
  1.43410851E+00  7.00713826E-01 -8.88557081E-01 -1.68005585E+00  7.00713826E-01
 -8.88557081E-01 -1.68005585E+00  7.00713826E-01 -8.88557081E-01 -1.68005585E+00
  7.00713826E-01 -8.88557081E-01 -1.68005585E+00
Num ILSW                                   I              100
ILSW                                       I   N=         100
           1           0           0           0           2           0
           0           0           0           0           0          -1
           5           0           0           0           2           0
           0           0           0           0           1           0
           1           1           0           0           0           0
           0           0      100000           0          -1           0
           0           0           0           0           0           0
           0           0           0           1           0           0
           0 -2000000000           1           0           0           0
           0           0           4          52           0           0
           0           0           0           0           0           0
           0           0           0           5           0           1
           0           0           0           0           0           0
           0           0           0           0           0           0
           0           0           0           0           0           0
           0           0           0           0           0           0
           0           0           0           0
Num RLSW                                   I               52
RLSW                                       R   N=          52
  1.00000000E+00  1.00000000E+00  1.00000000E+00  1.00000000E+00  1.00000000E+00
  0.00000000E+00  0.00000000E+00  1.00000000E+00  0.00000000E+00  0.00000000E+00
  0.00000000E+00  0.00000000E+00  1.00000000E+00  0.00000000E+00  0.00000000E+00
  0.00000000E+00  0.00000000E+00  1.00000000E+00  0.00000000E+00  0.00000000E+00
  0.00000000E+00  0.00000000E+00  1.00000000E+00  0.00000000E+00  0.00000000E+00
  0.00000000E+00  0.00000000E+00  1.00000000E+00  0.00000000E+00  0.00000000E+00
  0.00000000E+00  0.00000000E+00  1.00000000E+00  0.00000000E+00  0.00000000E+00
  0.00000000E+00  0.00000000E+00  0.00000000E+00  1.00000000E+00  1.00000000E+00
  0.00000000E+00  1.00000000E+00  0.00000000E+00  0.00000000E+00  0.00000000E+00
  0.00000000E+00  0.00000000E+00  0.00000000E+00  0.00000000E+00  0.00000000E+00
  0.00000000E+00  0.00000000E+00
MxBond                                     I                3
NBond                                      I   N=           5
           3           2           1           1           1
IBond                                      I   N=          15
           2           4           5           1           3           0
           2           0           0           1           0           0
           1           0           0
RBond                                      R   N=          15
  2.00000000E+00  1.00000000E+00  1.00000000E+00  2.00000000E+00  2.00000000E+00
  0.00000000E+00  2.00000000E+00  0.00000000E+00  0.00000000E+00  1.00000000E+00
  0.00000000E+00  0.00000000E+00  1.00000000E+00  0.00000000E+00  0.00000000E+00
Virial Ratio                               R      2.001132901926763E+00
SCF Energy                                 R     -5.111387017435983E+02
Total Energy                               R     -5.111387017435983E+02
S**2                                       R      4.515195936661023E-01
S**2 after annihilation                    R      4.297451266391894E-02
RMS Force                                  R      1.339538764312927E-02
RMS Density                                R      2.517831903045620E-09
Job Status                                 I                1
Nuclear derivative order                   I                1
External E-field                           R   N=          35
  0.00000000E+00  0.00000000E+00  0.00000000E+00  0.00000000E+00  0.00000000E+00
  0.00000000E+00  0.00000000E+00  0.00000000E+00  0.00000000E+00  0.00000000E+00
  0.00000000E+00  0.00000000E+00  0.00000000E+00  0.00000000E+00  0.00000000E+00
  0.00000000E+00  0.00000000E+00  0.00000000E+00  0.00000000E+00  0.00000000E+00
  0.00000000E+00  0.00000000E+00  0.00000000E+00  0.00000000E+00  0.00000000E+00
  0.00000000E+00  0.00000000E+00  0.00000000E+00  0.00000000E+00  0.00000000E+00
  0.00000000E+00  0.00000000E+00  0.00000000E+00  0.00000000E+00  0.00000000E+00
IOpCl                                      I                1
IROHF                                      I                0
Alpha Orbital Energies                     R   N=          86
 -9.20576456E+01 -2.05694188E+01 -1.12877679E+01 -9.08001473E+00 -6.77230513E+00
 -6.76734424E+00 -6.76440387E+00 -1.38301576E+00 -1.06070916E+00 -8.08919535E-01
 -6.65153199E-01 -6.43198226E-01 -6.20138148E-01 -5.60430868E-01 -4.48613116E-01
 -4.10643107E-01  6.80743378E-02  8.20102684E-02  9.38916568E-02  9.40631313E-02
  1.12298247E-01  1.45821415E-01  1.67879320E-01  2.03401238E-01  2.24072215E-01
  2.37669471E-01  2.52103343E-01  2.77745064E-01  2.84326202E-01  2.94078528E-01
  3.25387422E-01  3.25852285E-01  3.51570748E-01  3.72514597E-01  4.06580084E-01
  4.07577459E-01  4.22829444E-01  4.39970901E-01  4.72154195E-01  4.84846569E-01
  4.86408187E-01  4.95490859E-01  5.46485213E-01  5.66512996E-01  5.70130924E-01
  6.14216948E-01  6.99695112E-01  7.23970263E-01  7.26293020E-01  7.52101017E-01
  7.80716633E-01  9.53927342E-01  9.67376328E-01  9.93931853E-01  1.00778058E+00
  1.05762709E+00  1.10683186E+00  1.12090015E+00  1.14350820E+00  1.18291247E+00
  1.21610455E+00  1.27757818E+00  1.34552855E+00  1.39199391E+00  1.42715185E+00
  1.53983119E+00  1.60265400E+00  1.68769294E+00  1.70458692E+00  1.77230839E+00
  1.84759361E+00  1.94053340E+00  2.03727819E+00  2.07598140E+00  2.35634628E+00
  2.36847357E+00  2.38572487E+00  2.55986084E+00  2.77346772E+00  3.18460029E+00
  3.18860046E+00  3.21111235E+00  3.22584369E+00  3.28038845E+00  3.35414274E+00
  3.76618059E+00
Beta Orbital Energies                      R   N=          86
 -9.20536055E+01 -2.05522674E+01 -1.13056412E+01 -9.07561617E+00 -6.76488380E+00
 -6.76219589E+00 -6.75562688E+00 -1.34873467E+00 -1.07351803E+00 -8.08623173E-01
 -6.71071746E-01 -6.38739907E-01 -5.47584222E-01 -5.45259842E-01 -4.34047622E-01
 -4.00938502E-01  5.40275247E-02  8.15186608E-02  9.34317488E-02  9.42971473E-02
  1.14972483E-01  1.44817811E-01  1.72048888E-01  2.02755777E-01  2.24483677E-01
  2.44550212E-01  2.51299916E-01  2.79605029E-01  2.82614081E-01  2.97370485E-01
  3.05083544E-01  3.19431996E-01  3.40369999E-01  3.71084013E-01  4.08068112E-01
  4.21809986E-01  4.23432884E-01  4.38525993E-01  4.64229905E-01  4.82093150E-01
  4.86868180E-01  4.96122063E-01  5.35172158E-01  5.60477240E-01  5.70588356E-01
  6.16944881E-01  7.00093401E-01  7.22424695E-01  7.26098753E-01  7.60068248E-01
  7.79587238E-01  9.17536710E-01  9.68900940E-01  9.89045406E-01  1.01079827E+00
  1.05350191E+00  1.11920192E+00  1.13207938E+00  1.14241040E+00  1.20645770E+00
  1.20973394E+00  1.27354919E+00  1.34880034E+00  1.39304852E+00  1.43521862E+00
  1.53825695E+00  1.63267456E+00  1.68092675E+00  1.71470664E+00  1.78012061E+00
  1.82940301E+00  1.94018132E+00  2.03393319E+00  2.06812440E+00  2.33286413E+00
  2.34321876E+00  2.36812059E+00  2.52625642E+00  2.76048957E+00  3.19531406E+00
  3.22688091E+00  3.23732746E+00  3.26281696E+00  3.27235317E+00  3.35602254E+00
  3.78333107E+00
Alpha MO coefficients                      R   N=        7396
  9.48814103E-05 -6.07169589E-04  9.16951916E-03  7.29827101E-03 -2.29656478E-04
  5.55700571E-05  9.71125558E-05  5.56020079E-04 -2.05566966E-03 -3.59628285E-03
  3.23183946E-04  5.56539946E-05  6.96168211E-05 -4.77732787E-04  3.19141091E-05
  3.22066149E-04  5.70706819E-03  1.07606497E-03  7.11465231E-04  3.26075073E-03
  9.94233627E-01 -2.20549167E-02  1.37486137E-02 -1.24493036E-02 -5.31189946E-03
 -8.01369081E-05 -9.03087995E-05 -1.58160036E-04 -2.23897813E-04 -2.69111690E-04
 -4.71444688E-04  3.30209542E-03 -2.18498800E-03 -3.82395923E-03  3.43963713E-04
  2.58743500E-04  4.53329303E-04  3.26552930E-04 -4.27425196E-04  5.20855883E-04
  4.87966897E-05 -2.44143708E-04  2.64260514E-04  3.40139718E-03 -1.03466362E-03
 -1.67717963E-03  1.94344044E-03  1.35202398E-05  7.54109946E-04 -2.18479840E-03
  5.27011867E-03 -6.09378307E-05  1.18936245E-05  2.07961802E-05  1.25700162E-03
 -1.18508690E-03 -2.07466834E-03  6.46923986E-04  4.81329812E-04  8.43121304E-04
 -3.17192030E-04  3.46920914E-04 -4.47618334E-04  2.13761440E-05  1.98166159E-04
 -9.09252045E-04  1.08044581E-03 -1.02982050E-03  3.60282403E-04  6.17036072E-04
 -3.59474776E-05  7.63431623E-03 -1.33186865E-04 -3.83425998E-05 -6.71544632E-05
 -5.60988057E-04 -1.27631549E-03 -2.23286950E-03 -4.96840133E-04 -1.63047277E-02
 -1.26999592E-04 -4.31926748E-05 -7.56350419E-05 -4.47128349E-04 -1.53389285E-03
 -2.68347017E-03 -1.64598034E-05 -3.83462562E-04  2.98375271E-04  1.02631358E-03
  1.12605239E-04  1.14890553E-06  2.00131105E-06  3.74201447E-03 -1.74603412E-03
 -3.05540784E-03 -7.96458441E-05 -1.75805675E-04  1.22716685E-06  1.39345228E-04
 -1.00398460E-04 -3.02751424E-03 -1.27723407E-03 -9.71936803E-04  4.09990772E-03
 -7.30754508E-04 -3.61514626E-06  4.11780865E-05  3.27670898E-04 -1.98459818E-02
  2.50863294E-03  1.50916419E-05 -3.40115678E-05 -5.95402554E-05 -3.82183310E-04
  1.97214229E-04  3.45313305E-04  4.12212380E-04  4.65127970E-03  8.14300338E-03
 -3.76596588E-04 -5.73419505E-04 -1.00409241E-03 -1.63416650E-04  1.99094970E-04
 -4.86647345E-04 -2.91049701E-04  1.13754277E-04 -2.06016596E-03  2.27294429E-03
 -2.94208061E-03  9.82015807E-05  1.29826034E-03  9.90056153E-01 -3.69082992E-02
  2.93139268E-02 -5.38375933E-03  9.13921928E-04 -9.83740939E-04 -1.72238678E-03
 -2.90035405E-03  3.13088624E-03  5.48161229E-03  1.32542472E-03 -2.98477249E-04
 -5.22315113E-04  1.41830001E-04 -2.47964643E-04  3.25166047E-04  1.37896651E-04
 -1.41655397E-04  7.76683067E-04 -6.71045246E-04  6.98098412E-04 -5.21612536E-04
 -3.83183956E-04  1.98000076E-04  6.66755052E-03  6.91924629E-06 -3.04857454E-05
 -5.34242245E-05  4.50755787E-03  1.57667462E-04  2.77045737E-04 -1.96132090E-04
  6.52220901E-04 -8.63777212E-05  3.37860563E-05  5.91958688E-05  2.16056667E-03
 -8.60253203E-04 -1.50417938E-03  9.90750630E-01  4.13606992E-02 -8.49608721E-02
 -1.01459744E-02 -2.85903120E-04  7.06721037E-05  1.23546054E-04  8.57123310E-03
 -5.32091633E-04 -9.29635511E-04  2.58458731E-04  7.42857692E-05  1.27643021E-03
  1.05640888E-03  4.22301456E-05 -3.47674752E-03 -3.43620158E-04 -6.17563446E-03
 -1.25606954E-03 -1.96009958E-04  6.17838792E-05  4.16042839E-04 -1.35909867E-03
  8.62179795E-03 -6.89313768E-04  1.76927674E-04 -6.44981582E-06 -1.12633276E-05
  8.17713256E-04  1.55968788E-05  2.74474306E-05 -1.80145330E-03 -1.19755742E-04
 -2.10211701E-04  1.24353347E-03  2.38608202E-05  4.18427078E-05  5.91287775E-04
 -8.31881899E-05  1.48370354E-05 -1.00661299E-03 -4.73319117E-05  6.54269434E-04
 -8.21653409E-04  5.71423670E-04 -4.59438087E-04 -4.69174023E-04 -1.38250425E-05
  3.40142285E-05 -1.44294038E-03  1.17872903E-03  2.09720008E-04 -4.11339360E-05
 -7.20007427E-05 -4.49760271E-04 -7.38520936E-05 -1.29266554E-04 -1.57901093E-03
  1.23968631E-04  2.17120681E-04  1.68276076E-06  5.55831503E-05 -1.76159368E-05
 -2.36909014E-05  3.17509437E-05 -3.60426687E-04 -2.33777008E-04  1.51164379E-04
  8.02740277E-04 -1.33593677E-04 -1.08229041E-03  3.94303129E-02 -5.09077411E-04
  3.74273581E-04  6.54853112E-04  6.37272604E-03 -4.05517314E-03 -7.09354219E-03
 -1.09925494E-03  3.90176639E-02 -5.33660485E-04 -3.51318953E-04 -6.14901262E-04
  7.61646117E-03  3.59170771E-03  6.28574387E-03 -2.56155456E-04 -4.81717008E-04
  6.59176307E-03  5.05339954E-03 -2.83698145E-05  3.99613424E-05  6.98160330E-05
  9.14840223E-04 -2.39227453E-03 -4.18534270E-03 -1.11616939E-05 -7.81528127E-06
 -9.92024167E-05 -9.75649438E-05 -4.39722144E-06  1.20674054E-04  4.63653153E-03
  6.30134240E-04  5.34637715E-04  2.64903034E-03  3.07462274E-01  1.02781397E+00
  3.46787484E-02 -1.94672695E-02 -4.81832437E-03  3.48649067E-03  3.45301695E-03
  6.04520827E-03 -9.09444867E-04 -7.57234641E-04 -1.32595026E-03  2.29679859E-03
 -6.77687921E-04 -1.18558288E-03 -1.10306866E-07  4.49208389E-04  7.86693961E-04
  5.36042263E-05 -4.23687034E-04  1.58291141E-04  9.38565329E-05 -2.42016149E-04
  1.95103532E-05  3.36105714E-03 -1.30440437E-03 -1.57148765E-03  1.92032417E-03
  2.25754068E-04  3.03207071E-04  2.48722746E-04  7.48982039E-03 -1.45848364E-04
  1.17109350E-04  2.04997232E-04  5.61789292E-04 -4.31865962E-04 -7.55921559E-04
  2.87011548E-04  8.36667263E-04  1.46528582E-03  1.74137829E-05 -6.93779900E-05
  2.54537846E-05 -1.56465923E-07 -3.96216231E-05 -6.96100545E-04  8.66640369E-04
 -7.69862336E-04  2.97788729E-04  4.94956208E-04  2.38042146E-04  9.24715135E-03
  1.04387937E-04 -8.38571162E-05 -1.46747228E-04  2.73884121E-04 -1.37329732E-03
 -2.40235418E-03 -3.13905334E-04 -1.38187480E-02  7.66928804E-05 -1.23049317E-05
 -2.15498515E-05 -6.09008048E-04 -1.38092415E-03 -2.41582840E-03 -8.33484091E-09
  2.76476465E-08 -1.10879909E-07 -3.34076562E-07 -1.10003674E-08  2.21619454E-04
 -1.26773118E-04 -1.68522777E-07 -1.98832634E-03  1.13960748E-03  3.70593193E-06
 -1.73056613E-04 -2.49157027E-06  2.13767358E-06  3.02907707E-04  1.46082827E-05
  1.69010879E-03 -9.65631926E-06  7.40406071E-06 -2.96681865E-03 -9.18958373E-08
 -2.80000952E-07 -4.25516741E-07  5.40741951E-07  1.33109315E-06  9.88680483E-05
  8.55429489E-01 -4.88625239E-01 -4.32181959E-06 -3.63427857E-02  2.07590321E-02
  7.60515887E-07  9.46675704E-03 -5.40487409E-03  2.18611671E-07 -6.42432866E-05
  3.67891496E-05 -2.03734395E-04 -1.03442265E-04  1.38499883E-04 -1.17498542E-04
  1.81396334E-04  6.64018996E-04  1.19902669E-03 -4.52209684E-04  3.82949925E-04
 -2.10170651E-03 -3.35231457E-08 -1.60320289E-07  6.75884230E-07 -1.77948995E-06
 -1.66564493E-08 -1.23938697E-04  7.07430539E-05 -1.77689127E-07 -5.40383409E-04
  3.09222290E-04  5.01043418E-08 -8.68265399E-04  4.95527562E-04 -1.48856123E-04
  5.12143924E-05  1.01418176E-04 -8.59721124E-05 -8.97223600E-05  3.34179291E-04
 -2.33445295E-04 -2.27207511E-04  1.92803057E-04  4.08371297E-04 -1.41487927E-07
 -8.15674255E-06  2.27178319E-08  1.36018928E-04 -7.76800577E-05  6.13910584E-07
 -9.76484635E-04  5.60568846E-04  1.73620401E-07  8.16693635E-06  1.59985061E-08
  1.32414746E-04 -7.56410517E-05 -3.50998398E-07 -1.35678339E-03  7.77737562E-04
 -2.43079582E-04 -4.85280883E-04  1.93570910E-02  1.04168069E-02 -3.84787239E-04
  4.78625908E-06  8.32159919E-06  4.23702433E-03 -2.34451248E-04 -4.09911490E-04
  4.92853516E-04 -3.38290308E-05  5.71367230E-05 -7.86301094E-04 -1.92077592E-05
 -8.20567710E-04  1.98079430E-03 -1.96149064E-05  1.39669475E-03  1.13197816E-03
 -7.50905892E-05 -3.52690382E-04  1.18727278E-03 -1.74111661E-02 -5.13856271E-03
  8.84334625E-01 -2.14264732E-01 -3.74931281E-01 -4.05596428E-02  1.03170417E-02
  1.80538614E-02  1.51085858E-02 -1.40003983E-03 -2.44732816E-03  3.82472613E-03
 -4.41819529E-04 -7.72932249E-04 -1.46312719E-03  1.02773659E-03 -1.38460609E-03
  9.01095980E-04  5.86960140E-04  2.46919426E-03 -8.08343503E-04  7.66887342E-04
 -3.37173294E-03 -4.60743068E-04 -4.14675247E-04 -1.23330083E-03  1.40334580E-03
  1.34530757E-03  1.38814235E-04 -2.27117571E-04 -3.97648680E-04 -2.26446814E-03
  1.60169929E-03  2.80406969E-03 -1.47455915E-03  7.83274396E-04  1.37129805E-03
  3.21623206E-04 -3.19162242E-04  3.98668702E-04 -8.68017798E-05 -1.82278367E-04
  6.85273715E-04 -1.81605027E-03  1.55116843E-03  6.42693292E-04 -1.03752133E-03
 -7.47495950E-05 -2.66845096E-03 -2.70115297E-05  9.82872050E-06  1.72525446E-05
 -7.59192036E-04  4.72951958E-04  8.28198720E-04 -4.87455790E-05 -7.87832771E-03
 -5.71915692E-05  6.55299149E-06  1.14127069E-05  4.69579212E-04 -1.05100090E-03
 -1.84010570E-03 -1.21731725E-04 -2.80137630E-04  7.90851325E-03  7.16344647E-03
 -1.40335318E-04 -1.09695928E-04 -1.91776246E-04  3.50513734E-03  2.60993147E-03
  4.56550465E-03  1.35342752E-04  1.90158678E-04  3.30901840E-05 -1.95403623E-04
  1.08639720E-04  1.82336108E-04 -1.02695457E-02  6.27409982E-04  4.21534804E-04
 -5.86837126E-03 -2.69475865E-03 -9.98415995E-03  4.71523135E-03 -5.16744789E-03
 -2.01412347E-03  4.32564978E-01  4.38768652E-01  7.68233826E-01 -1.83123230E-02
 -1.95764222E-02 -3.42756240E-02  8.52418888E-03  6.80260579E-03  1.19086456E-02
  3.26507962E-03  5.45391928E-04  9.54610151E-04  5.49290974E-04 -7.73026150E-05
  8.22797053E-04  1.91429042E-05 -4.42079096E-05 -3.17750677E-04 -4.71254668E-03
 -1.08649012E-03 -7.31955857E-04 -2.69210769E-03  3.48730250E-04  7.29140222E-04
  9.76409201E-04 -5.04050225E-03 -2.96223937E-04  1.63445212E-04  2.86129216E-04
 -1.12295816E-04 -8.45447387E-04 -1.48013226E-03 -9.43035151E-04 -1.38048079E-03
 -2.41724606E-03 -1.08957836E-04  2.74049201E-04 -1.76332172E-04 -1.92286135E-05
  1.56541312E-04 -7.43301873E-04  5.82065697E-04 -1.25786875E-03 -1.96379624E-04
  3.32518006E-04 -2.20229061E-04 -2.14542093E-02 -7.12860528E-05  3.80242764E-05
  6.66151942E-05  2.17426128E-03  2.78753555E-03  4.87739595E-03  2.26215592E-04
  1.72339971E-02 -6.91815751E-05  4.43925316E-05  7.77566739E-05 -2.89712309E-04
  1.94148091E-03  3.39682581E-03 -2.81845399E-02  5.40931109E-02  1.37073602E-02
 -1.52353759E-02  3.49036101E-02 -2.74096703E-03 -4.79466375E-03  3.58494152E-02
 -1.96459056E-02 -3.43677652E-02 -4.04832194E-03 -2.66936324E-03  5.98020671E-05
  7.08160408E-03 -1.52564697E-03 -2.63737550E-02  2.45196782E-02 -1.85728115E-02
  2.37946792E-02  1.40070326E-02 -3.91726646E-02 -2.42791785E-01  3.51263806E-01
 -6.48232296E-02 -2.14010609E-02  1.93378483E-02 -3.69764392E-02 -6.47373887E-02
  2.82487228E-02 -5.66249571E-02 -9.91381486E-02  2.66954573E-02 -1.28688543E-02
 -2.25235593E-02 -4.52724798E-03  1.67044744E-03  2.92645894E-03  2.24456057E-02
 -2.68736050E-02  3.10575631E-02 -2.24439769E-03 -1.53501372E-02  5.43997566E-04
  2.15867469E-02 -7.05088433E-03 -9.25515581E-03  1.23335614E-02  2.52958635E-01
  5.03221660E-01  3.38980860E-01  5.61715461E-02 -4.92723059E-02  5.51380754E-02
  9.65312502E-02 -3.16115684E-02  3.38203155E-02  5.92116535E-02  6.17267301E-04
  6.39120170E-03  1.11920241E-02  7.17799051E-03 -9.99691670E-03  7.99305196E-03
 -3.00426481E-03 -5.70920361E-03  3.62646141E-03 -6.42863727E-03  7.00203736E-03
  1.97991973E-03 -3.67181767E-03  1.09018430E-02  1.23797091E-01  2.17282765E-03
 -9.52066887E-04 -1.66541964E-03  2.08947860E-02 -8.49543416E-03 -1.48522004E-02
  1.02542023E-02 -4.38274591E-02  1.65808740E-03  7.46181781E-04  1.30545733E-03
  1.14399587E-02 -1.42248756E-02 -2.48918283E-02 -1.80351359E-01  3.58025763E-01
 -8.59735408E-02 -7.46934339E-02  1.21472596E-01  4.53774751E-03  7.95620210E-03
  1.23241294E-02 -2.19104010E-03 -3.83046867E-03 -7.38924937E-03  6.20990410E-04
  7.13368546E-03  2.12034310E-02  3.50957778E-04 -1.66566344E-02 -6.17423753E-03
 -1.68802257E-02  8.96084968E-03 -3.52978898E-03 -4.73831951E-02 -3.00586749E-01
  4.33417000E-01  2.21452358E-01  2.46222155E-02 -9.60963376E-02  1.92758187E-02
  3.37340111E-02 -1.53633603E-01  3.01634697E-02  5.27876411E-02 -1.52724249E-01
  2.84636919E-02  4.98088973E-02 -2.35190564E-02  5.09520264E-03  8.91811241E-03
 -3.46182644E-02  1.18044696E-02 -2.05238634E-02  3.57516764E-02  6.73711473E-03
 -2.05339552E-02  6.57095565E-03 -9.80416497E-03  2.39967371E-02  3.74817906E-03
 -1.14906027E-01 -2.37478190E-01 -1.75152506E-01  7.56262426E-03 -3.14386950E-02
  1.17560530E-02  2.05796752E-02 -8.26854446E-03  1.91938026E-03  3.35986806E-03
  3.36789612E-04 -1.12965084E-03 -1.97929702E-03 -6.56015212E-05 -2.92036602E-03
  2.11991067E-03  2.61382808E-03 -1.66861955E-03 -1.20056791E-03  2.87827077E-03
 -2.89395742E-03 -1.33418763E-03  1.64500850E-03  1.12799019E-01  8.99974101E-02
  8.26094180E-03 -6.41023764E-03 -1.12145901E-02  1.86920179E-02 -5.53297179E-03
 -9.67677535E-03  9.48916998E-02  8.25665982E-02  8.84518562E-03  5.13165891E-03
  8.98064613E-03  1.39268053E-02  3.25807497E-03  5.70386425E-03  1.59518609E-01
 -3.18579339E-01 -8.39836250E-02  9.79681885E-03  1.72757941E-01  3.57767366E-03
  6.29162869E-03  3.49093611E-02 -4.42925828E-03 -7.74771707E-03 -9.61451259E-03
 -1.28374575E-03 -1.54254936E-02 -1.52447237E-03 -7.32674847E-04  1.53503898E-02
 -5.66230945E-03  4.37089609E-03 -2.14462200E-02 -3.23046226E-03 -4.45624191E-02