0005_q000_m01_k00_opt_uwb97xd_def2svpd/0005_q000_m01_k00_force_uwb97xd_d
Force     UwB97XD                                                     Gen                 
Number of atoms                            I                5
Info1-9                                    I   N=           9
          13           9           0           0           0         100
           5          18       -5802
Full Title                                 C   N=           8
0005_q000_m01_k00_opt_uwb97xd_def2svpd/0005_q000_m01_k00_for
ce_uwb97xd_def2svp stable-force     
Route                                      C   N=          15
#p uwb97xd/chkbasis force guess=read geom=check scf=(maxcycl
e=900,verytightlineq,xqc) integral=grid=ultrafine symmetry=N
one density=current pop=(cm5,hlygat,mbs,npa) output=wfx     
Charge                                     I                0
Multiplicity                               I                1
Number of electrons                        I               32
Number of alpha electrons                  I               16
Number of beta electrons                   I               16
Number of basis functions                  I               56
Number of independent functions            I               56
Number of point charges in /Mol/           I                0
Number of translation vectors              I                0
Atomic numbers                             I   N=           5
           6          16           8           1           1
Nuclear charges                            R   N=           5
  6.00000000E+00  1.60000000E+01  8.00000000E+00  1.00000000E+00  1.00000000E+00
Current cartesian coordinates              R   N=          15
  1.84630873E+00 -3.74093449E-02 -1.90536037E-01  4.89061526E+00 -6.53203910E-02
 -2.38935210E-01  5.99277468E+00 -1.34985333E+00 -2.48781287E+00  9.79013775E-01
  8.91172187E-01  1.43410851E+00  7.00713826E-01 -8.88557081E-01 -1.68005585E+00
Number of symbols in /Mol/                 I                0
Int Atom Types                             I   N=           5
           0           0           0           0           0
Force Field                                I                0
Atom Types                                 C   N=           5
                                                            
MM charges                                 R   N=           5
  0.00000000E+00  0.00000000E+00  0.00000000E+00  0.00000000E+00  0.00000000E+00
Integer atomic weights                     I   N=           5
          12          32          16           1           1
Real atomic weights                        R   N=           5
  1.20000000E+01  3.19720718E+01  1.59949146E+01  1.00782504E+00  1.00782504E+00
Atom fragment info                         I   N=           5
           0           0           0           0           0
Atom residue num                           I   N=           5
           0           0           0           0           0
Nuclear spins                              I   N=           5
           0           0           0           1           1
Nuclear ZEff                               R   N=           5
 -3.60000000E+00 -1.36000000E+01 -5.60000000E+00 -1.00000000E+00 -1.00000000E+00
Nuclear ZNuc                               R   N=           5
  6.00000000E+00  1.60000000E+01  8.00000000E+00  1.00000000E+00  1.00000000E+00
Nuclear QMom                               R   N=           5
  0.00000000E+00  0.00000000E+00  0.00000000E+00  0.00000000E+00  0.00000000E+00
Nuclear GFac                               R   N=           5
  0.00000000E+00  0.00000000E+00  0.00000000E+00  2.79284600E+00  2.79284600E+00
MicOpt                                     I   N=           5
          -1          -1          -1          -1          -1
Number of residues                         I                0
Number of secondary structures             I                0
Number of contracted shells                I               26
Number of primitive shells                 I               52
Pure/Cartesian d shells                    I                0
Pure/Cartesian f shells                    I                0
Highest angular momentum                   I                2
Largest degree of contraction              I                5
Shell types                                I   N=          26
           0           0           0           1           1          -2
           0           0           0           0           1           1
           1          -2           0           0           0           1
           1          -2           0           0           1           0
           0           1
Number of primitives per shell             I   N=          26
           5           1           1           3           1           1
           5           3           1           1           5           1
           1           1           5           1           1           3
           1           1           3           1           1           3
           1           1
Shell to atom map                          I   N=          26
           1           1           1           1           1           1
           2           2           2           2           2           2
           2           2           3           3           3           3
           3           3           4           4           4           5
           5           5
Primitive exponents                        R   N=          52
  1.23840169E+03  1.86290050E+02  4.22511763E+01  1.16765579E+01  3.59305065E+00
  4.02451474E-01  1.30901827E-01  9.46809706E+00  2.01035451E+00  5.47710047E-01
  1.52686138E-01  8.00000000E-01  9.18493030E+03  1.38151055E+03  3.13871476E+02
  8.80538706E+01  2.70399149E+01  4.56487313E+01  4.96645223E+00  2.01162420E+00
  3.56610770E-01  1.35072215E-01  2.61982334E+02  6.13068947E+01  1.91037299E+01
  6.65677204E+00  2.39596352E+00  6.17761617E-01  1.69933769E-01  5.50000000E-01
  2.26617678E+03  3.40870102E+02  7.73631352E+01  2.14796449E+01  6.65894331E+00
  8.09759757E-01  2.55307722E-01  1.77215043E+01  3.86355054E+00  1.04809209E+00
  2.76415444E-01  1.20000000E+00  1.30107010E+01  1.96225720E+00  4.44537960E-01
  1.21949620E-01  8.00000000E-01  1.30107010E+01  1.96225720E+00  4.44537960E-01
  1.21949620E-01  8.00000000E-01
Contraction coefficients                   R   N=          52
  5.51736505E-03  4.10888286E-02  1.82253821E-01  4.68284594E-01  4.45758173E-01
  1.00000000E+00  1.00000000E+00  5.68883320E-02  3.12940593E-01  7.60650165E-01
  1.00000000E+00  1.00000000E+00 -5.47294661E-03 -4.09544022E-02 -1.84758290E-01
 -4.75672806E-01 -4.34951536E-01 -9.19040458E-02  5.56987772E-01  5.11154683E-01
  1.00000000E+00  1.00000000E+00 -9.18305466E-03 -6.59022265E-02 -2.45877845E-01
 -4.82314711E-01 -3.89563144E-01  1.00000000E+00  1.00000000E+00  1.00000000E+00
 -5.38935039E-03 -4.02347214E-02 -1.80081842E-01 -4.68288577E-01 -4.46926172E-01
  1.00000000E+00  1.00000000E+00  6.26302488E-02  3.33311385E-01  7.41486383E-01
  1.00000000E+00  1.00000000E+00  3.34854848E-02  2.34721871E-01  8.13770285E-01
  1.00000000E+00  1.00000000E+00  3.34854848E-02  2.34721871E-01  8.13770285E-01
  1.00000000E+00  1.00000000E+00
Coordinates of each shell                  R   N=          78
  1.84630873E+00 -3.74093449E-02 -1.90536037E-01  1.84630873E+00 -3.74093449E-02
 -1.90536037E-01  1.84630873E+00 -3.74093449E-02 -1.90536037E-01  1.84630873E+00
 -3.74093449E-02 -1.90536037E-01  1.84630873E+00 -3.74093449E-02 -1.90536037E-01
  1.84630873E+00 -3.74093449E-02 -1.90536037E-01  4.89061526E+00 -6.53203910E-02
 -2.38935210E-01  4.89061526E+00 -6.53203910E-02 -2.38935210E-01  4.89061526E+00
 -6.53203910E-02 -2.38935210E-01  4.89061526E+00 -6.53203910E-02 -2.38935210E-01
  4.89061526E+00 -6.53203910E-02 -2.38935210E-01  4.89061526E+00 -6.53203910E-02
 -2.38935210E-01  4.89061526E+00 -6.53203910E-02 -2.38935210E-01  4.89061526E+00
 -6.53203910E-02 -2.38935210E-01  5.99277468E+00 -1.34985333E+00 -2.48781287E+00
  5.99277468E+00 -1.34985333E+00 -2.48781287E+00  5.99277468E+00 -1.34985333E+00
 -2.48781287E+00  5.99277468E+00 -1.34985333E+00 -2.48781287E+00  5.99277468E+00
 -1.34985333E+00 -2.48781287E+00  5.99277468E+00 -1.34985333E+00 -2.48781287E+00
  9.79013775E-01  8.91172187E-01  1.43410851E+00  9.79013775E-01  8.91172187E-01
  1.43410851E+00  9.79013775E-01  8.91172187E-01  1.43410851E+00  7.00713826E-01
 -8.88557081E-01 -1.68005585E+00  7.00713826E-01 -8.88557081E-01 -1.68005585E+00
  7.00713826E-01 -8.88557081E-01 -1.68005585E+00
Num ILSW                                   I              100
ILSW                                       I   N=         100
           1           0           0           0           2           0
           0           0           0           0        4639          -1
           5           0           0           0           2           0
           0           0           0           0           1           0
           1           1           0           0           0           0
           0           0      100000           0          -1           0
           0           0           0           0           0           0
           0           0           0           1           0           0
           0 -2000000000           1           0           0           0
           0           0         121          52           0           0
           0           0          58           0           0           0
           0           0           0           5           0           1
           0           0           0           0           0           0
           0           0           0           0           0           0
           0           0           0           0           0           0
           0           0           0           0           0           0
           0           0           0           0
Num RLSW                                   I               52
RLSW                                       R   N=          52
  1.00000000E+00  1.00000000E+00  1.00000000E+00  1.00000000E+00  1.00000000E+00
  0.00000000E+00  2.00000000E-01  2.22036000E-01  0.00000000E+00  7.77964000E-01
  0.00000000E+00  2.00000000E-01  0.00000000E+00  0.00000000E+00  1.00000000E+00
  0.00000000E+00  0.00000000E+00  1.00000000E+00  0.00000000E+00  0.00000000E+00
  0.00000000E+00  0.00000000E+00  1.00000000E+00  0.00000000E+00  0.00000000E+00
  0.00000000E+00  0.00000000E+00  1.00000000E+00  0.00000000E+00  0.00000000E+00
  0.00000000E+00  0.00000000E+00  1.00000000E+00  0.00000000E+00  0.00000000E+00
  0.00000000E+00  0.00000000E+00  0.00000000E+00  1.00000000E+00  1.00000000E+00
  0.00000000E+00  1.00000000E+00  0.00000000E+00  0.00000000E+00  0.00000000E+00
  0.00000000E+00  0.00000000E+00  0.00000000E+00  0.00000000E+00  0.00000000E+00
  0.00000000E+00  0.00000000E+00
MxBond                                     I                3
NBond                                      I   N=           5
           3           2           1           1           1
IBond                                      I   N=          15
           2           4           5           1           3           0
           2           0           0           1           0           0
           1           0           0
RBond                                      R   N=          15
  2.00000000E+00  1.00000000E+00  1.00000000E+00  2.00000000E+00  2.00000000E+00
  0.00000000E+00  2.00000000E+00  0.00000000E+00  0.00000000E+00  1.00000000E+00
  0.00000000E+00  0.00000000E+00  1.00000000E+00  0.00000000E+00  0.00000000E+00
Virial Ratio                               R      2.003449353180890E+00
SCF Energy                                 R     -5.123915657953529E+02
Total Energy                               R     -5.123915657953529E+02
S**2 after annihilation                    R      5.329070518200766E-15
RMS Force                                  R      3.930541935913330E-03
RMS Density                                R      9.407194791781582E-10
Job Status                                 I                1
Nuclear derivative order                   I                1
External E-field                           R   N=          35
  0.00000000E+00  0.00000000E+00  0.00000000E+00  0.00000000E+00  0.00000000E+00
  0.00000000E+00  0.00000000E+00  0.00000000E+00  0.00000000E+00  0.00000000E+00
  0.00000000E+00  0.00000000E+00  0.00000000E+00  0.00000000E+00  0.00000000E+00
  0.00000000E+00  0.00000000E+00  0.00000000E+00  0.00000000E+00  0.00000000E+00
  0.00000000E+00  0.00000000E+00  0.00000000E+00  0.00000000E+00  0.00000000E+00
  0.00000000E+00  0.00000000E+00  0.00000000E+00  0.00000000E+00  0.00000000E+00
  0.00000000E+00  0.00000000E+00  0.00000000E+00  0.00000000E+00  0.00000000E+00
IOpCl                                      I                1
IROHF                                      I                0
Alpha Orbital Energies                     R   N=          56
 -8.91277243E+01 -1.92450793E+01 -1.03458229E+01 -8.17065080E+00 -6.12365760E+00
 -6.12180061E+00 -6.11801409E+00 -1.13246765E+00 -8.93901220E-01 -6.88463766E-01
 -5.74792439E-01 -5.43585484E-01 -5.05980271E-01 -4.68347068E-01 -3.58895838E-01
 -3.44710229E-01 -1.27884206E-02  1.17116530E-01  1.53688875E-01  2.10575768E-01
  2.30930176E-01  3.88924925E-01  4.80585160E-01  5.56672402E-01  5.68609401E-01
  5.69095612E-01  6.66895097E-01  7.05905643E-01  7.14640948E-01  7.26130444E-01
  7.37457493E-01  8.00660491E-01  8.37717710E-01  9.30932371E-01  1.02823428E+00
  1.09379081E+00  1.11462027E+00  1.16790463E+00  1.24275695E+00  1.26206885E+00
  1.40155246E+00  1.61244124E+00  1.61928576E+00  1.73499212E+00  2.04912903E+00
  2.08750530E+00  2.09394922E+00  2.26710711E+00  2.45079249E+00  2.73080008E+00
  2.73514250E+00  2.80388488E+00  2.85493315E+00  2.92600375E+00  2.99703531E+00
  3.38582173E+00
Beta Orbital Energies                      R   N=          56
 -8.91277243E+01 -1.92450793E+01 -1.03458229E+01 -8.17065080E+00 -6.12365760E+00
 -6.12180061E+00 -6.11801409E+00 -1.13246765E+00 -8.93901220E-01 -6.88463766E-01
 -5.74792439E-01 -5.43585484E-01 -5.05980271E-01 -4.68347068E-01 -3.58895838E-01
 -3.44710229E-01 -1.27884206E-02  1.17116530E-01  1.53688875E-01  2.10575768E-01
  2.30930176E-01  3.88924925E-01  4.80585160E-01  5.56672402E-01  5.68609401E-01
  5.69095612E-01  6.66895097E-01  7.05905643E-01  7.14640948E-01  7.26130444E-01
  7.37457493E-01  8.00660491E-01  8.37717710E-01  9.30932371E-01  1.02823428E+00
  1.09379081E+00  1.11462027E+00  1.16790463E+00  1.24275695E+00  1.26206885E+00
  1.40155246E+00  1.61244124E+00  1.61928576E+00  1.73499212E+00  2.04912903E+00
  2.08750530E+00  2.09394922E+00  2.26710711E+00  2.45079249E+00  2.73080008E+00
  2.73514250E+00  2.80388488E+00  2.85493315E+00  2.92600375E+00  2.99703531E+00
  3.38582173E+00
Alpha MO coefficients                      R   N=        3136
  1.34536217E-04 -5.54284631E-04  1.81637805E-03 -4.95562908E-04  8.98452114E-06
  1.56457036E-05  8.38696699E-04 -8.24075496E-06 -1.42346281E-05  3.15002677E-04
 -1.95989727E-05 -9.66820312E-06 -5.57004601E-04 -1.11022909E-05  9.94245272E-01
 -2.18195307E-02  1.00850586E-02 -5.29338987E-03 -1.02539606E-04 -9.87241220E-05
 -1.72854514E-04 -3.22107718E-04 -3.15776375E-04 -5.52930297E-04  1.65547205E-03
 -4.40179952E-04 -7.70449755E-04  2.20021230E-04 -4.32991836E-04  4.41990611E-04
  1.40254479E-04 -2.47351917E-04 -2.45808671E-05  3.88659234E-04 -1.65342642E-03
  7.15146471E-05 -5.38473689E-05 -9.42676557E-05  5.26971611E-04 -8.55018537E-04
 -1.49694493E-03 -3.97318839E-04  4.13880335E-04 -5.44101642E-04  4.63721800E-05
  2.36404874E-04 -9.72297130E-05  2.77014923E-04  7.35210821E-05 -2.48943248E-05
 -4.35497460E-05 -3.52741247E-05  5.15884429E-05 -1.30694494E-05  4.51230557E-05
  7.89437418E-05 -5.52455852E-05  9.56665485E-05  4.23465735E-03  4.39342115E-04
 -3.57964337E-05 -6.27129432E-05  6.09676476E-04 -1.07299619E-03 -1.87797225E-03
 -6.56654096E-05 -2.57360078E-04  1.85334870E-05  1.35383677E-04 -1.46998287E-04
 -3.63703865E-05 -2.23722480E-04  1.08565904E-03 -1.13756185E-02  5.17027265E-05
 -1.14472734E-04 -2.00415897E-04 -3.44919037E-04 -8.18410722E-05 -1.43318731E-04
 -5.53014007E-04  3.72464583E-03  6.52109064E-03 -5.39025240E-05 -3.84042065E-05
 -4.18409980E-04 -4.00254057E-04 -2.18719621E-05  9.89171013E-01 -3.88808391E-02
  2.35801644E-02  9.47755648E-04 -1.00190511E-03 -1.75413892E-03 -2.78350385E-03
  2.84759256E-03  4.98541323E-03  1.15753182E-04 -2.17929996E-04  1.72312870E-04
  2.75293000E-06 -1.24475807E-04  1.14131761E-04 -1.19816602E-04 -9.29938942E-05
  7.67924021E-05  1.34409553E-04 -3.12622828E-04 -1.79456869E-03 -2.56064873E-05
 -2.56340275E-05 -4.48217129E-05  9.88595323E-01  4.55342251E-02 -2.69287799E-02
 -6.19733518E-04  9.50359556E-05  1.66059897E-04  7.04144487E-04  1.51403909E-04
  2.65215108E-04  7.15750627E-04  2.02304064E-04  2.12193689E-03  1.26054539E-03
  1.15268438E-04  9.02016301E-05  7.52069612E-04 -1.89690028E-03  4.13747696E-03
  4.38242228E-04 -6.59382334E-06 -1.14811373E-05  1.84948326E-03  7.58283925E-06
  1.35367058E-05  1.37559300E-04 -2.51264207E-04 -4.39774137E-04  1.26134126E-03
 -2.09416088E-05 -1.06663897E-04 -2.31032088E-03 -1.15347377E-05 -3.64517972E-05
 -1.95240871E-04 -4.35034483E-04  2.28150211E-04 -3.43677814E-05 -6.00774857E-05
 -5.08012408E-04 -1.19625938E-04 -2.09659112E-04 -4.88203913E-05  7.26281609E-05
 -1.92874265E-06  8.23187986E-05  4.14640333E-05 -4.33922380E-03  6.70201987E-03
 -1.23139494E-03  1.22056571E-03  2.13546722E-03 -4.18167554E-03  7.03328856E-03
 -1.51518180E-03 -1.12476127E-03 -1.96837115E-03  1.60362223E-04 -1.77019384E-03
  5.06020065E-03 -1.19035318E-03  8.83418572E-06  1.52767091E-05  2.25447048E-03
 -1.63602933E-04 -2.85785897E-04  3.59146281E-04 -6.79882213E-05 -1.88322772E-04
 -8.43991562E-04 -3.86982605E-05  3.06508133E-01  1.02118375E+00  4.86822223E-02
 -1.87178338E-02  3.84111168E-03  4.04277681E-03  7.07607853E-03 -1.24707531E-03
 -1.02791493E-03 -1.79955640E-03  4.11511309E-03 -7.30774260E-04 -1.27903554E-03
  4.15306723E-04 -1.12272679E-03  9.78198961E-04  4.34246314E-04 -6.41471970E-04
  5.22070136E-05  2.66714479E-04 -2.51964782E-03  1.48647909E-04 -1.14756494E-04
 -2.00899572E-04  1.02617024E-03 -1.79437880E-03 -3.14160931E-03 -5.10128797E-04
  4.68111579E-04 -6.93366971E-04  6.56330001E-05  2.67375797E-04  2.85608665E-05
  8.31256142E-04  3.71533439E-04 -1.00306713E-04 -1.75462847E-04  1.55298206E-05
  7.29601258E-05  2.06835587E-04  1.08490153E-04  1.89845589E-04  5.22790572E-05
 -1.16977993E-03  4.26371761E-03 -1.29369139E-03 -5.13416012E-05 -8.97684773E-05
  1.50492096E-03  3.96613900E-04  6.92583212E-04  6.67081660E-04 -2.57170739E-04
 -3.14855482E-05 -1.19257511E-03 -1.47025060E-04  8.61042937E-04  3.01082281E-03
  2.90625318E-04 -6.08398834E-03  7.27011103E-01 -3.27832221E-01 -5.72509083E-01
 -3.80700263E-02  1.70323163E-02  2.97475762E-02  6.95839897E-03 -1.44743027E-03
 -2.52166437E-03 -1.88441882E-03  1.25290434E-03 -1.73225942E-03  1.22154975E-03
  7.15398389E-04 -2.87298203E-04 -8.73302382E-04  3.54941707E-03 -3.76785807E-05
  1.83327420E-04  3.21150061E-04 -2.28163200E-03  1.66441374E-03  2.91294584E-03
  6.00887423E-04 -6.94720481E-04  8.04416190E-04 -9.12712139E-05 -3.96668158E-04
 -3.17745833E-04  3.17113877E-05  2.76367798E-04 -1.25249689E-05 -2.17507796E-05
  2.86408846E-04 -1.38181648E-04  4.20129843E-05  8.50476359E-05  1.49017291E-04
  2.74235993E-08 -8.16162452E-07  3.38160493E-06 -8.39817644E-07  2.15128732E-04
 -1.22963807E-04  1.03135795E-06 -1.19527605E-03  6.83080412E-04  1.39686065E-05
 -1.96595316E-04 -9.20015989E-06  7.07991878E-06  3.43902729E-04  8.49629114E-08
  3.03742174E-07  4.62474265E-07 -4.56378312E-06  5.88535282E-04  8.52995081E-01
 -4.87696083E-01 -3.03676995E-05 -4.19533828E-02  2.39878033E-02  5.65804622E-06
  7.01318865E-03 -4.00758993E-03 -3.17264719E-04 -8.15909782E-05  2.14042541E-04
 -1.81713892E-04  1.44754993E-04 -2.02038355E-07 -5.84621260E-07  2.41424355E-06
 -1.07850172E-08  9.85668958E-05 -5.60234836E-05 -1.59659608E-06 -5.73401099E-04
  3.30023839E-04 -2.67304643E-04  8.24621572E-05  1.82824116E-04 -1.54629208E-04
 -1.45351490E-04 -7.76869127E-08 -5.71982235E-08  1.14149353E-07  1.02907017E-04
 -5.88537260E-05  2.09144862E-08 -1.97858185E-07  7.06807031E-08  1.35924162E-04
 -7.75827658E-05  8.39556289E-06 -9.48927873E-04  5.83702295E-03 -8.38534632E-04
  7.23864027E-05  1.26636577E-04  2.12168190E-03 -7.12794275E-04 -1.24752583E-03
  4.13063602E-04  4.11642747E-04 -1.86166126E-05 -7.37334645E-04  2.35264428E-04
 -2.92543671E-03 -1.05075081E-02  3.30541935E-03 -5.95658406E-03  6.60087144E-01
  3.60751838E-01  6.31762546E-01 -3.32202044E-02 -1.79820682E-02 -3.14908353E-02
  8.03702125E-03  3.23136790E-03  5.65907328E-03  8.13694088E-05  1.33356207E-04
  4.72834170E-04  4.16806128E-04  7.60186939E-05  1.00450729E-04 -1.52350350E-04
  1.14383302E-03  9.00630003E-05 -3.03407864E-05 -5.31066941E-05 -4.69057930E-04
 -4.43095216E-04 -7.75893448E-04 -2.11768212E-05  3.74991285E-04 -1.63921811E-04
 -1.56621963E-04  2.14213385E-04  2.65904373E-04 -2.96759324E-04 -1.18315085E-04
 -6.66499174E-05 -1.16578851E-04 -4.63929582E-04 -3.84893819E-04  1.58660125E-04
 -1.54101099E-06 -2.61269127E-06 -3.72124953E-02  7.01681985E-02  1.51130851E-02
  4.25336335E-02 -3.82151024E-03 -6.68455077E-03  8.06319533E-03 -4.22215748E-04
 -7.37358499E-04 -3.75384140E-03 -2.97962447E-03 -5.86090364E-04  5.81039222E-03
 -1.70279100E-03 -4.61742439E-02 -2.83736820E-01  4.03596877E-01  7.25328162E-02
  1.91573442E-02 -4.02995159E-02 -7.05560724E-02  3.08337559E-02 -6.58978879E-02
 -1.15374380E-01  1.38340397E-02 -2.20982579E-02 -3.86872207E-02  2.36231995E-02
 -2.94787723E-02  3.53532911E-02  7.85836403E-04 -1.68377482E-02  2.33503266E-01
  4.64767674E-01  2.69450660E-01 -6.42132022E-02  7.01658378E-02  1.22842253E-01
 -2.43258099E-02  2.46310256E-02  4.31227905E-02  7.53061153E-03 -1.03742683E-02
  1.01640542E-02 -1.05407732E-03 -5.92513284E-03  1.02424173E-02  3.51128829E-03
  2.74384312E-03 -8.63381872E-04 -1.51017096E-03  1.29293981E-02  1.30970352E-04
  2.22917942E-03  1.05163276E-03  1.84017288E-03 -1.98061828E-01  3.92269038E-01
  9.56566943E-02  1.17345577E-01  6.94812341E-03  1.21784737E-02  9.66370556E-03
  2.22693685E-03  3.89960682E-03 -6.07841622E-03  2.14929804E-03  2.04556048E-03
  1.29381073E-02  1.22514422E-03 -4.07997718E-02 -2.55280365E-01  3.70095196E-01
  1.53577548E-01 -1.04852808E-01  2.43860373E-02  4.26815314E-02 -1.73156310E-01
  3.96851009E-02  6.94590725E-02 -1.10326979E-01  2.34218617E-02  4.09923919E-02
 -3.12920307E-02  1.24955336E-02 -1.64105657E-02  3.48411453E-02  7.13171447E-03
 -1.21505514E-01 -2.47002229E-01 -1.90208977E-01 -1.09000527E-02 -9.25588333E-03
 -1.62066968E-02  1.32041432E-03 -5.49542411E-03 -9.62108491E-03 -2.41294274E-03
 -3.19472052E-04 -1.91516548E-03  1.91962077E-03 -1.82830986E-04  1.13694922E-01
  8.67069119E-03  6.90361012E-03 -6.04424480E-03 -1.05745935E-02  9.53418659E-02
  8.85785724E-03  7.44569076E-03  4.84872737E-03  8.48574058E-03  1.52928483E-01
 -3.11468146E-01 -1.45175180E-01  2.05992416E-01  8.91137517E-03  1.56345299E-02
  5.76558928E-02 -1.22343910E-03 -2.13078537E-03 -7.10406861E-03  4.37121912E-04
 -6.72159460E-03  4.38400911E-03  2.49493164E-04 -4.87447591E-02 -3.11672112E-01
  4.84593522E-01  2.02875834E-01  1.62838854E-02  1.85105561E-02  3.24129281E-02
  2.66955825E-02  2.93404576E-02  5.13771338E-02  3.68208752E-02  3.76965775E-02
  6.60082200E-02 -2.59868997E-03 -1.92379922E-04 -9.53972118E-03 -6.74933271E-03
 -1.08085911E-04 -1.02097883E-01 -2.08848042E-01 -2.05053364E-01 -2.02100421E-02
  5.33550526E-02  9.34118580E-02 -1.03488602E-02  2.48464174E-02  4.34996271E-02
  3.35909639E-03 -1.64151347E-03  3.94563087E-03 -1.16385917E-03 -9.37715532E-04
 -1.87962906E-01 -3.57676400E-02 -2.28036829E-03  7.83215518E-03  1.37038782E-02
 -2.22167838E-01 -4.89521302E-02 -6.46685445E-03 -8.22142489E-03 -1.43864038E-02
 -2.77715615E-04 -4.49404296E-03  1.89156452E-02 -6.51010463E-02  1.98791147E-01
  3.47823307E-01 -7.66723588E-03  7.97113754E-02  1.39471378E-01  4.90238671E-03
 -1.64156161E-04  2.70937793E-03 -5.29785674E-03 -9.21007811E-05 -1.44477476E-03
 -9.10469284E-03  5.61588237E-03  2.40351930E-02  5.39032506E-02  4.40745394E-02
  7.71150406E-02  9.60514538E-02  7.89926689E-02  1.38210749E-01  9.27823434E-02
  7.53248965E-02  1.31789082E-01 -6.13474180E-03 -4.61207540E-02 -8.61055732E-03
  4.70341311E-04 -2.63548480E-02  3.93923905E-02  7.59600480E-02  1.19088234E-01
  1.48223497E-01 -1.78570035E-02 -3.13073072E-02  8.46327614E-02 -5.99544178E-03
 -1.05209778E-02  1.61446212E-03  7.57313227E-03 -1.12805371E-03 -4.13106750E-03
  4.32468629E-03  3.05371594E-01  8.27579721E-02  9.91579018E-03 -5.26745608E-03
 -9.21472052E-03 -2.22718948E-01 -5.08854263E-02 -1.11750693E-02 -2.25102405E-03
 -3.94093122E-03 -6.64110130E-03  2.34659880E-03  6.93130832E-02 -3.08788822E-01
 -3.23753092E-02 -5.66874786E-02 -1.06956460E-01 -1.48717034E-02 -2.60308806E-02
  8.84014885E-03  7.60326841E-05  3.41043040E-03 -1.12935047E-02  4.45135504E-05
 -1.61609535E-02 -1.06018492E-01  1.72834000E-01  7.65868389E-02  1.76390533E-01
 -1.24487577E-02 -2.17568189E-02  3.20622210E-01 -2.66636528E-02 -4.66145414E-02
  2.61891698E-01  6.92020737E-03  1.21789043E-02  1.52901998E-02 -2.19404297E-02
  4.76802547E-03 -2.08623211E-02 -1.25266044E-02 -9.15874118E-02 -1.82189409E-01
 -2.38764995E-01  4.54535575E-02  1.61716470E-01  2.83162766E-01  3.05025735E-02
  9.14040743E-02  1.60049084E-01  1.21646609E-02  4.65936376E-04  1.25133101E-02
 -6.30636512E-03  2.66634357E-04  7.02451968E-02  2.01899000E-02 -3.17024692E-03
 -3.08652857E-03 -5.40109766E-03  1.88358253E-01  3.30603363E-02  8.75294176E-04
  5.58454951E-03  9.77245412E-03 -8.48979831E-07  1.97820837E-06  8.17490254E-06
  2.11661639E-05  1.53603909E-01 -8.77800904E-02  9.11380960E-06  8.69112790E-02
 -4.96744329E-02  2.17243151E-04 -8.66612155E-03 -1.47719507E-04  1.29757640E-04
  1.51638320E-02  1.93078095E-06  1.19828703E-05 -5.23851999E-06 -5.64801075E-05
  3.35894585E-06  1.75051156E-01 -1.00045306E-01  7.63767676E-06  3.14657101E-01
 -1.79838008E-01  7.24930928E-07  3.41225801E-01 -1.94986206E-01  4.10469530E-02
  5.22015641E-03 -2.79392293E-02  2.36864651E-02 -9.13563978E-03 -2.44437607E-05
 -4.71014615E-05 -7.06709603E-05 -7.55591247E-05  3.09083414E-01 -1.76446896E-01
 -4.66576821E-05  1.99030643E-01 -1.13629079E-01 -1.67338612E-02  5.05620478E-03
  1.13996849E-02 -9.66095391E-03 -8.86158623E-03  1.72772541E-06 -7.12974534E-07
  3.95728845E-07  4.37245275E-03 -2.49877399E-03 -5.09666205E-06 -9.00615383E-06
 -6.00943919E-08  4.18475820E-03 -2.39197664E-03  1.98427201E-03 -4.38390561E-03
  3.47829107E-03 -2.51594953E-02 -9.86330159E-02 -1.72617196E-01 -1.29504903E-02
 -3.70585817E-02 -6.48584785E-02  2.26406509E-05  1.39508778E-02 -1.85211628E-03
 -2.21993301E-03  7.97397820E-03 -1.06270162E-02 -6.77278709E-02  6.77281550E-02
  2.14803218E-01  4.06069575E-02  8.22314252E-02  1.43881832E-01  6.79106433E-02
  1.54333488E-01  2.70046970E-01  1.19443780E-01  1.24303821E-01  2.17446058E-01
 -3.91746363E-02  1.44148417E-02 -4.36610836E-02  1.63956632E-02  8.24096870E-03
  5.80317223E-02  1.10134699E-01  1.68735438E-01  3.49724184E-01 -1.21661388E-01
 -2.13207623E-01  2.26254650E-01 -7.27996130E-02 -1.27597290E-01 -6.00370228E-04
  1.77155108E-02 -6.08410462E-03 -6.15078619E-03  1.01156773E-02 -1.73837561E-01
 -7.54978175E-02 -5.14079656E-03  2.09329992E-03  3.66012853E-03  1.71570201E-01
  6.78425075E-02  4.57849215E-03  2.07748514E-03  3.63518887E-03 -5.59975509E-02
  1.49520129E-01  2.11522638E-01  2.29198533E-01 -8.36859127E-03 -1.46500014E-02
  1.26614410E-01  2.81019032E-02  4.91794843E-02 -3.85999327E-03 -5.53873544E-03
 -2.32521210E-03  3.94173107E-03 -3.16361584E-03  1.54377631E-02  1.00442233E-01
 -1.07425981E-01 -3.39587054E-01 -6.45434044E-02 -4.11311021E-02 -7.20303934E-02
 -1.31838512E-01 -7.55868751E-02 -1.32373680E-01 -3.55463348E-02 -1.03312828E-01
 -1.80900025E-01 -5.67738379E-02 -6.38272642E-02 -1.26528360E-02  8.33881563E-02
 -3.64725560E-02  1.08811805E-03  9.56634899E-03 -2.99623186E-02  4.51404662E-01
  1.48453608E-01  2.60034263E-01  3.64203976E-01  1.07641814E-01  1.88558121E-01
  1.12362972E-02  9.19361213E-03  8.81288713E-03 -9.06119422E-03  5.25206592E-03
 -5.60177370E-02 -9.04837817E-02  3.37344054E-03  1.90080018E-03  3.32420884E-03
 -5.38821284E-02 -6.44501756E-02  1.61987007E-03 -1.16628241E-03 -2.04136918E-03
 -4.91179891E-06  7.88299652E-06  4.08227590E-05 -1.57792069E-05 -3.36135596E-01
  1.92113730E-01 -2.06852276E-05 -2.85115949E-01  1.62933595E-01  1.71058155E-03
  9.00295881E-03 -1.16448990E-03  9.85103931E-04 -1.57609297E-02  3.01919880E-06
  1.95552905E-05 -2.00609192E-05 -7.05789927E-05 -1.42376996E-05 -6.01760214E-02
  3.43562932E-02 -2.59328179E-05 -1.14140582E-01  6.51645172E-02 -3.52579927E-05
 -1.22778990E-01  7.01150012E-02  5.66432618E-02 -5.03449944E-02 -3.85650666E-02
  3.27168765E-02  8.80864987E-02  2.28574406E-06  5.91014264E-06  1.41192527E-05
  1.30918932E-05  3.82753021E-01 -2.18554092E-01  1.30137515E-05  3.11931450E-01
 -1.78117420E-01 -1.15523460E-02  3.11620243E-03  7.86966920E-03 -6.67088545E-03
 -5.45687595E-03  1.40350162E-05  1.90258469E-06 -1.01054774E-06 -1.06616930E-02
  6.09332795E-03 -2.27497922E-05 -3.29402259E-05 -1.55554332E-06 -9.47719867E-03
  5.41547876E-03 -1.00585538E-07  2.29885806E-06 -3.82780598E-05 -2.34672357E-05
 -3.48403530E-01  1.99103463E-01 -1.07852696E-05 -4.20629741E-01  2.40402751E-01
 -4.73969547E-04 -5.57959115E-03  3.23824883E-04 -2.70947446E-04  9.78214058E-03
  2.35527737E-06  1.54690641E-05 -1.34563975E-05 -8.41797758E-05  6.13619410E-06
  1.59814807E-01 -9.12694813E-02  1.35816872E-05  2.94966919E-01 -1.68456719E-01
  5.04891416E-06  5.40789317E-01 -3.08811620E-01 -4.04668325E-02 -2.32120748E-02
  2.75872223E-02 -2.33644272E-02  4.05854450E-02  8.04565171E-06  1.67932586E-05