0005_q000_m01_k00_opt_uwb97xd_def2svpd/0005_q000_m01_k00_force_ub3lyp_de
Force     UB3LYP                                                      Gen                 
Number of atoms                            I                5
Info1-9                                    I   N=           9
          13           9           0           0           0         100
           5          18        -502
Full Title                                 C   N=           8
0005_q000_m01_k00_opt_uwb97xd_def2svpd/0005_q000_m01_k00_for
ce_ub3lyp_def2tzvp stable-force     
Route                                      C   N=          15
#p ub3lyp/chkbasis force guess=read geom=check scf=(maxcycle
=900,verytightlineq,xqc) integral=grid=ultrafine symmetry=No
ne density=current pop=(cm5,hlygat,mbs,npa) output=wfx      
Charge                                     I                0
Multiplicity                               I                1
Number of electrons                        I               32
Number of alpha electrons                  I               16
Number of beta electrons                   I               16
Number of basis functions                  I              111
Number of independent functions            I              111
Number of point charges in /Mol/           I                0
Number of translation vectors              I                0
Atomic numbers                             I   N=           5
           6          16           8           1           1
Nuclear charges                            R   N=           5
  6.00000000E+00  1.60000000E+01  8.00000000E+00  1.00000000E+00  1.00000000E+00
Current cartesian coordinates              R   N=          15
  1.84630873E+00 -3.74093449E-02 -1.90536037E-01  4.89061526E+00 -6.53203910E-02
 -2.38935210E-01  5.99277468E+00 -1.34985333E+00 -2.48781287E+00  9.79013775E-01
  8.91172187E-01  1.43410851E+00  7.00713826E-01 -8.88557081E-01 -1.68005585E+00
Number of symbols in /Mol/                 I                0
Int Atom Types                             I   N=           5
           0           0           0           0           0
Force Field                                I                0
Atom Types                                 C   N=           5
                                                            
MM charges                                 R   N=           5
  0.00000000E+00  0.00000000E+00  0.00000000E+00  0.00000000E+00  0.00000000E+00
Integer atomic weights                     I   N=           5
          12          32          16           1           1
Real atomic weights                        R   N=           5
  1.20000000E+01  3.19720718E+01  1.59949146E+01  1.00782504E+00  1.00782504E+00
Atom fragment info                         I   N=           5
           0           0           0           0           0
Atom residue num                           I   N=           5
           0           0           0           0           0
Nuclear spins                              I   N=           5
           0           0           0           1           1
Nuclear ZEff                               R   N=           5
 -3.60000000E+00 -1.36000000E+01 -5.60000000E+00 -1.00000000E+00 -1.00000000E+00
Nuclear ZNuc                               R   N=           5
  6.00000000E+00  1.60000000E+01  8.00000000E+00  1.00000000E+00  1.00000000E+00
Nuclear QMom                               R   N=           5
  0.00000000E+00  0.00000000E+00  0.00000000E+00  0.00000000E+00  0.00000000E+00
Nuclear GFac                               R   N=           5
  0.00000000E+00  0.00000000E+00  0.00000000E+00  2.79284600E+00  2.79284600E+00
MicOpt                                     I   N=           5
          -1          -1          -1          -1          -1
Number of residues                         I                0
Number of secondary structures             I                0
Number of contracted shells                I               43
Number of primitive shells                 I               79
Pure/Cartesian d shells                    I                0
Pure/Cartesian f shells                    I                0
Highest angular momentum                   I                3
Largest degree of contraction              I                7
Shell types                                I   N=          43
           0           0           0           0           0           1
           1           1          -2          -2          -3           0
           0           0           0           0           1           1
           1           1           1          -2          -2          -3
           0           0           0           0           0           1
           1           1          -2          -2          -3           0
           0           0           1           0           0           0
           1
Number of primitives per shell             I   N=          43
           6           2           1           1           1           4
           1           1           1           1           1           7
           3           2           1           1           5           1
           1           1           1           2           1           1
           6           2           1           1           1           4
           1           1           1           1           1           3
           1           1           1           3           1           1
           1
Shell to atom map                          I   N=          43
           1           1           1           1           1           1
           1           1           1           1           1           2
           2           2           2           2           2           2
           2           2           2           2           2           2
           3           3           3           3           3           3
           3           3           3           3           3           4
           4           4           4           5           5           5
           5
Primitive exponents                        R   N=          79
  1.35753497E+04  2.03523337E+03  4.63225624E+02  1.31200196E+02  4.28530159E+01
  1.55841858E+01  6.20671385E+00  2.57648965E+00  5.76963394E-01  2.29728314E-01
  9.51644400E-02  3.46972322E+01  7.95826228E+00  2.37808269E+00  8.14332082E-01
  2.88875473E-01  1.00568237E-01  1.09700000E+00  3.18000000E-01  7.61000000E-01
  6.07009281E+04  9.10261069E+03  2.07141660E+03  5.86024768E+02  1.90553950E+02
  6.76303843E+01  2.51273069E+01  1.12574630E+02  3.47955542E+01  6.51155562E+00
  3.23990323E+00  1.54771609E+00  4.05410301E-01  1.45506511E-01  5.64367160E+02
  1.33426244E+02  4.24682712E+01  1.56165276E+01  6.10939885E+00  2.44041602E+00
  8.38822013E-01  3.12887469E-01  1.07701090E-01  3.75600000E+00  8.12000000E-01
  2.73000000E-01  5.57000000E-01  2.70323826E+04  4.05238714E+03  9.22327227E+02
  2.61240710E+02  8.53546414E+01  3.10350352E+01  1.22608607E+01  4.99870760E+00
  1.17031082E+00  4.64747410E-01  1.85045364E-01  6.32749548E+01  1.46270494E+01
  4.45012235E+00  1.52757996E+00  5.29351179E-01  1.74784213E-01  2.31400000E+00
  6.45000000E-01  1.42800000E+00  3.40613410E+01  5.12357460E+00  1.16466260E+00
  3.27230410E-01  1.03072410E-01  8.00000000E-01  3.40613410E+01  5.12357460E+00
  1.16466260E+00  3.27230410E-01  1.03072410E-01  8.00000000E-01
Contraction coefficients                   R   N=          79
  6.06455036E-04  4.69790889E-03  2.43324776E-02  9.73999683E-02  3.01955843E-01
  6.62336091E-01  6.55953085E-01  3.75856333E-01  1.00000000E+00  1.00000000E+00
  1.00000000E+00  1.13272200E-02  7.61696592E-02  3.01922522E-01  7.27850273E-01
  1.00000000E+00  1.00000000E+00  1.00000000E+00  1.00000000E+00  1.00000000E+00
  5.23800749E-04  4.05063268E-03  2.08270042E-02  8.14968503E-02  2.37491138E-01
  4.47261715E-01  3.48919184E-01  1.00455699E-01  4.33911729E-01 -1.20843306E+00
  6.74981294E-01  3.47087958E-01  1.00000000E+00  1.00000000E+00  3.48869236E-03
  2.76851268E-02  1.26594002E-01  3.61659257E-01  6.12220344E-01  1.00000000E+00
  1.00000000E+00  1.00000000E+00  1.00000000E+00  1.82851975E-01  9.14259873E-01
  1.00000000E+00  1.00000000E+00  5.72273352E-04  4.43532335E-03  2.30201077E-02
  9.28224907E-02  2.93785000E-01  6.74016045E-01  6.38399370E-01  3.95345871E-01
  1.00000000E+00  1.00000000E+00  1.00000000E+00  1.20183322E-02  8.30054218E-02
  3.19917439E-01  7.07155429E-01  1.00000000E+00  1.00000000E+00  1.00000000E+00
  1.00000000E+00  1.00000000E+00  2.54393072E-02  1.90085949E-01  8.52441130E-01
  1.00000000E+00  1.00000000E+00  1.00000000E+00  2.54393072E-02  1.90085949E-01
  8.52441130E-01  1.00000000E+00  1.00000000E+00  1.00000000E+00
Coordinates of each shell                  R   N=         129
  1.84630873E+00 -3.74093449E-02 -1.90536037E-01  1.84630873E+00 -3.74093449E-02
 -1.90536037E-01  1.84630873E+00 -3.74093449E-02 -1.90536037E-01  1.84630873E+00
 -3.74093449E-02 -1.90536037E-01  1.84630873E+00 -3.74093449E-02 -1.90536037E-01
  1.84630873E+00 -3.74093449E-02 -1.90536037E-01  1.84630873E+00 -3.74093449E-02
 -1.90536037E-01  1.84630873E+00 -3.74093449E-02 -1.90536037E-01  1.84630873E+00
 -3.74093449E-02 -1.90536037E-01  1.84630873E+00 -3.74093449E-02 -1.90536037E-01
  1.84630873E+00 -3.74093449E-02 -1.90536037E-01  4.89061526E+00 -6.53203910E-02
 -2.38935210E-01  4.89061526E+00 -6.53203910E-02 -2.38935210E-01  4.89061526E+00
 -6.53203910E-02 -2.38935210E-01  4.89061526E+00 -6.53203910E-02 -2.38935210E-01
  4.89061526E+00 -6.53203910E-02 -2.38935210E-01  4.89061526E+00 -6.53203910E-02
 -2.38935210E-01  4.89061526E+00 -6.53203910E-02 -2.38935210E-01  4.89061526E+00
 -6.53203910E-02 -2.38935210E-01  4.89061526E+00 -6.53203910E-02 -2.38935210E-01
  4.89061526E+00 -6.53203910E-02 -2.38935210E-01  4.89061526E+00 -6.53203910E-02
 -2.38935210E-01  4.89061526E+00 -6.53203910E-02 -2.38935210E-01  4.89061526E+00
 -6.53203910E-02 -2.38935210E-01  5.99277468E+00 -1.34985333E+00 -2.48781287E+00
  5.99277468E+00 -1.34985333E+00 -2.48781287E+00  5.99277468E+00 -1.34985333E+00
 -2.48781287E+00  5.99277468E+00 -1.34985333E+00 -2.48781287E+00  5.99277468E+00
 -1.34985333E+00 -2.48781287E+00  5.99277468E+00 -1.34985333E+00 -2.48781287E+00
  5.99277468E+00 -1.34985333E+00 -2.48781287E+00  5.99277468E+00 -1.34985333E+00
 -2.48781287E+00  5.99277468E+00 -1.34985333E+00 -2.48781287E+00  5.99277468E+00
 -1.34985333E+00 -2.48781287E+00  5.99277468E+00 -1.34985333E+00 -2.48781287E+00
  9.79013775E-01  8.91172187E-01  1.43410851E+00  9.79013775E-01  8.91172187E-01
  1.43410851E+00  9.79013775E-01  8.91172187E-01  1.43410851E+00  9.79013775E-01
  8.91172187E-01  1.43410851E+00  7.00713826E-01 -8.88557081E-01 -1.68005585E+00
  7.00713826E-01 -8.88557081E-01 -1.68005585E+00  7.00713826E-01 -8.88557081E-01
 -1.68005585E+00  7.00713826E-01 -8.88557081E-01 -1.68005585E+00
Num ILSW                                   I              100
ILSW                                       I   N=         100
           1           0           0           0           2           0
           0           0           0           0         402          -1
           5           0           0           0           2           0
           0           0           0           0           1           0
           1           1           0           0           0           0
           0           0      100000           0          -1           0
           0           0           0           0           0           0
           0           0           0           1           0           0
           0 -2000000000           1           0           0           0
           0           0           4          52           0           0
           0           0           5           0           0           0
           0           0           0           5           0           1
           0           0           0           0           0           0
           0           0           0           0           0           0
           0           0           0           0           0           0
           0           0           0           0           0           0
           0           0           0           0
Num RLSW                                   I               52
RLSW                                       R   N=          52
  8.00000000E-01  7.20000000E-01  1.00000000E+00  8.10000000E-01  2.00000000E-01
  0.00000000E+00  0.00000000E+00  1.00000000E+00  0.00000000E+00  0.00000000E+00
  0.00000000E+00  0.00000000E+00  1.00000000E+00  0.00000000E+00  0.00000000E+00
  0.00000000E+00  0.00000000E+00  1.00000000E+00  0.00000000E+00  0.00000000E+00
  0.00000000E+00  0.00000000E+00  1.00000000E+00  0.00000000E+00  0.00000000E+00
  0.00000000E+00  0.00000000E+00  1.00000000E+00  0.00000000E+00  0.00000000E+00
  0.00000000E+00  0.00000000E+00  1.00000000E+00  0.00000000E+00  0.00000000E+00
  0.00000000E+00  0.00000000E+00  0.00000000E+00  1.00000000E+00  1.00000000E+00
  0.00000000E+00  1.00000000E+00  0.00000000E+00  0.00000000E+00  0.00000000E+00
  0.00000000E+00  0.00000000E+00  0.00000000E+00  0.00000000E+00  0.00000000E+00
  0.00000000E+00  0.00000000E+00
MxBond                                     I                3
NBond                                      I   N=           5
           3           2           1           1           1
IBond                                      I   N=          15
           2           4           5           1           3           0
           2           0           0           1           0           0
           1           0           0
RBond                                      R   N=          15
  2.00000000E+00  1.00000000E+00  1.00000000E+00  2.00000000E+00  2.00000000E+00
  0.00000000E+00  2.00000000E+00  0.00000000E+00  0.00000000E+00  1.00000000E+00
  0.00000000E+00  0.00000000E+00  1.00000000E+00  0.00000000E+00  0.00000000E+00
Virial Ratio                               R      2.002490394447028E+00
SCF Energy                                 R     -5.127560479189730E+02
Total Energy                               R     -5.127560479189730E+02
S**2                                       R      1.776356839400250E-14
S**2 after annihilation                    R      9.201528428093346E-13
RMS Force                                  R      6.498841243907399E-03
RMS Density                                R      8.076275891580876E-09
Job Status                                 I                1
Nuclear derivative order                   I                1
External E-field                           R   N=          35
  0.00000000E+00  0.00000000E+00  0.00000000E+00  0.00000000E+00  0.00000000E+00
  0.00000000E+00  0.00000000E+00  0.00000000E+00  0.00000000E+00  0.00000000E+00
  0.00000000E+00  0.00000000E+00  0.00000000E+00  0.00000000E+00  0.00000000E+00
  0.00000000E+00  0.00000000E+00  0.00000000E+00  0.00000000E+00  0.00000000E+00
  0.00000000E+00  0.00000000E+00  0.00000000E+00  0.00000000E+00  0.00000000E+00
  0.00000000E+00  0.00000000E+00  0.00000000E+00  0.00000000E+00  0.00000000E+00
  0.00000000E+00  0.00000000E+00  0.00000000E+00  0.00000000E+00  0.00000000E+00
IOpCl                                      I                1
IROHF                                      I                0
Alpha Orbital Energies                     R   N=         111
 -8.89682892E+01 -1.91275374E+01 -1.02250798E+01 -8.03357499E+00 -5.99507942E+00
 -5.99500149E+00 -5.99075193E+00 -1.04196862E+00 -8.01331183E-01 -6.05926859E-01
 -4.91178565E-01 -4.63661570E-01 -4.20479211E-01 -3.92401036E-01 -2.89316374E-01
 -2.77810486E-01 -9.08710714E-02  1.21344337E-02  5.24145172E-02  8.34557981E-02
  1.02091393E-01  1.41227227E-01  1.96982262E-01  1.99489926E-01  2.62808375E-01
  2.81531297E-01  2.90699761E-01  3.14441501E-01  3.55284558E-01  3.85867765E-01
  3.95817216E-01  4.11034241E-01  4.44407692E-01  5.13169154E-01  5.17898223E-01
  5.60759261E-01  6.13570235E-01  6.34295711E-01  6.73309820E-01  7.59142317E-01
  8.24051956E-01  9.09422908E-01  9.31134523E-01  9.70334005E-01  9.87784831E-01
  1.29585527E+00  1.31294434E+00  1.38277802E+00  1.40407975E+00  1.41918502E+00
  1.45021836E+00  1.45660486E+00  1.49958687E+00  1.53536109E+00  1.54964195E+00
  1.55758456E+00  1.61213961E+00  1.64607189E+00  1.70369842E+00  1.71746814E+00
  1.74431166E+00  1.75344095E+00  1.79164822E+00  1.87816846E+00  2.01484978E+00
  2.09172531E+00  2.09729415E+00  2.11413469E+00  2.19059379E+00  2.26030750E+00
  2.28604002E+00  2.35859084E+00  2.42863891E+00  2.49260606E+00  2.54284226E+00
  2.65178236E+00  2.74803788E+00  2.75635185E+00  2.89310396E+00  2.90943682E+00
  2.93296866E+00  3.06698686E+00  3.12767287E+00  3.18086627E+00  3.22569560E+00
  3.30562160E+00  3.41299272E+00  3.42887784E+00  3.59299081E+00  3.64624241E+00
  3.82507121E+00  4.06867839E+00  4.35464155E+00  5.14229122E+00  5.14282165E+00
  5.21354506E+00  5.23516837E+00  5.35590125E+00  5.46155207E+00  5.50322895E+00
  6.26942584E+00  6.28881588E+00  6.61303662E+00  6.67374482E+00  6.84341839E+00
  8.74683361E+00  9.06375115E+00  9.43215195E+00  2.06758428E+01  2.18703757E+01
  4.33457151E+01
Beta Orbital Energies                      R   N=         111
 -8.89682892E+01 -1.91275374E+01 -1.02250798E+01 -8.03357499E+00 -5.99507942E+00
 -5.99500149E+00 -5.99075193E+00 -1.04196862E+00 -8.01331183E-01 -6.05926859E-01
 -4.91178565E-01 -4.63661570E-01 -4.20479211E-01 -3.92401036E-01 -2.89316374E-01
 -2.77810486E-01 -9.08710714E-02  1.21344337E-02  5.24145172E-02  8.34557981E-02
  1.02091393E-01  1.41227227E-01  1.96982262E-01  1.99489926E-01  2.62808375E-01
  2.81531297E-01  2.90699761E-01  3.14441501E-01  3.55284558E-01  3.85867765E-01
  3.95817216E-01  4.11034241E-01  4.44407692E-01  5.13169154E-01  5.17898223E-01
  5.60759261E-01  6.13570235E-01  6.34295711E-01  6.73309820E-01  7.59142317E-01
  8.24051956E-01  9.09422908E-01  9.31134523E-01  9.70334005E-01  9.87784831E-01
  1.29585527E+00  1.31294434E+00  1.38277802E+00  1.40407975E+00  1.41918502E+00
  1.45021836E+00  1.45660486E+00  1.49958687E+00  1.53536109E+00  1.54964195E+00
  1.55758456E+00  1.61213961E+00  1.64607189E+00  1.70369842E+00  1.71746814E+00
  1.74431166E+00  1.75344095E+00  1.79164822E+00  1.87816846E+00  2.01484978E+00
  2.09172531E+00  2.09729415E+00  2.11413469E+00  2.19059379E+00  2.26030750E+00
  2.28604002E+00  2.35859084E+00  2.42863891E+00  2.49260606E+00  2.54284226E+00
  2.65178236E+00  2.74803788E+00  2.75635185E+00  2.89310396E+00  2.90943682E+00
  2.93296866E+00  3.06698686E+00  3.12767287E+00  3.18086627E+00  3.22569560E+00
  3.30562160E+00  3.41299272E+00  3.42887784E+00  3.59299081E+00  3.64624241E+00
  3.82507121E+00  4.06867839E+00  4.35464155E+00  5.14229122E+00  5.14282165E+00
  5.21354506E+00  5.23516837E+00  5.35590125E+00  5.46155207E+00  5.50322895E+00
  6.26942584E+00  6.28881588E+00  6.61303662E+00  6.67374482E+00  6.84341839E+00
  8.74683361E+00  9.06375115E+00  9.43215195E+00  2.06758428E+01  2.18703757E+01
  4.33457151E+01
Alpha MO coefficients                      R   N=       12321
  2.02947035E-06 -1.61519945E-05  1.17302672E-03 -4.45127835E-03 -4.27483461E-05
  2.93492184E-04 -6.85292419E-06 -1.19486760E-05 -3.69011335E-03  1.87280948E-05
  3.21928898E-05 -3.26077717E-04 -7.72137195E-05 -1.35172034E-04  6.03373634E-05
 -1.35171950E-06 -1.41251256E-05 -1.21139991E-04 -7.51128695E-07  9.78346083E-04
 -8.23468477E-06  1.58213965E-04 -1.50817198E-03 -4.44112984E-06 -1.05976759E-05
  2.95313761E-04  8.24371870E-06  1.39291415E-05 -1.79881402E-05 -3.98532772E-04
  1.25671641E-05  9.99258716E-01 -3.17965092E-02 -1.13235131E-02  4.55674692E-03
  3.32858391E-03 -3.01778663E-05 -6.18236304E-05 -1.08231535E-04 -6.79514668E-05
  7.23848948E-05  1.26714615E-04  4.92980073E-04  4.93622343E-05  8.65089248E-05
 -2.97276600E-03 -7.83064950E-04 -1.37149990E-03 -3.26951368E-04 -5.76345323E-05
 -1.00990369E-04 -1.17567429E-06 -1.63455172E-04  2.20072348E-04  2.61616407E-04
 -9.34120658E-05 -3.88944543E-04 -6.23235620E-04  5.23198672E-04  1.29082702E-03
 -3.56212417E-04 -6.50195025E-05  5.68572824E-04 -3.15403891E-04  7.68810148E-05
  2.96810522E-04 -4.48175700E-04 -2.19926000E-05  2.03124052E-05 -7.70756917E-05
  6.99706459E-04 -1.45576399E-03 -1.28180866E-03 -9.94600250E-05  1.11264227E-04
  1.94792656E-04  5.56438353E-04 -6.53928318E-04 -1.14485280E-03  1.59827041E-04
 -2.68967748E-04 -4.70884634E-04  4.67962175E-05 -5.23493746E-05  6.99477396E-05
  1.45267782E-06 -2.99040474E-05 -3.63304168E-04  4.25978163E-04 -5.20714441E-04
  1.50562257E-05  2.43323055E-04 -1.03153009E-05  1.16461321E-04 -1.16794189E-04
  1.06291498E-05  1.21632490E-04 -3.32082499E-05 -2.14726146E-05 -2.50784207E-05
 -2.72328896E-04  5.01138947E-05 -5.97144796E-05  2.34607984E-06  4.10149646E-06
 -7.89360945E-07 -2.37006440E-04 -1.71573166E-04 -9.08163785E-05  1.53098739E-05
  2.67546867E-05 -4.56538336E-07  4.28774831E-06 -6.54690249E-05  1.13944283E-03
 -1.02009293E-03 -1.39699472E-04 -3.04297518E-05 -5.33033981E-05  2.67183231E-03
 -6.88454301E-06 -1.15994754E-05 -1.63184644E-03 -5.75817712E-04 -1.00796829E-03
 -1.20937966E-05 -8.45925663E-05  5.59001695E-05  8.69123646E-05 -4.83495740E-05
 -8.06472920E-04  2.40316490E-04 -8.11508182E-04  4.40240701E-04  1.37276428E-04
 -4.71061688E-05  4.97755324E-05  2.65188618E-06  6.11811496E-05  1.03937014E-04
  3.57178492E-05  4.62085894E-05  1.02807927E-04 -2.48092036E-04 -7.36069304E-04
  7.21431940E-04 -9.68367300E-04 -1.68437597E-05 -7.93297203E-06 -1.38951426E-05
  6.48188769E-05  7.07587413E-05  1.23908752E-04 -5.73156052E-04  9.10857562E-05
  1.59358462E-04  3.36134561E-03 -1.68629252E-03 -2.95187567E-03 -1.52622880E-03
  1.15787046E-03  2.02687562E-03  4.19784464E-04 -4.31126971E-04  5.39450969E-04
 -9.07492565E-05 -2.46239682E-04  1.33384956E-03 -8.98579297E-04  1.20888252E-03
 -8.84467711E-04 -5.13140263E-04 -5.73879277E-05  2.90042674E-04 -6.46304125E-04
  5.92053063E-05  4.61143419E-04  6.96905214E-05 -1.18590880E-04  4.35060991E-01
  6.39768171E-01  3.43303377E-02 -2.27797917E-02  9.39821548E-03 -8.54938770E-04
  8.87071230E-04  1.55312664E-03  1.71584560E-03 -1.85739664E-03 -3.25191164E-03
 -7.27787577E-04  8.64375323E-04  1.51336538E-03  1.22236464E-04 -1.52758680E-04
  1.52977787E-04 -3.12684455E-05 -8.72456006E-05 -5.41527736E-04  6.81290336E-04
 -7.21142703E-04  8.73087496E-05  3.89125269E-04 -1.63652405E-05  1.27683928E-04
 -1.52445879E-04  1.76314010E-05  1.34814488E-04 -3.49963109E-05 -2.52262381E-05
  9.20153431E-05  1.37305872E-03 -2.36663661E-04  8.41071353E-05 -1.13033084E-04
 -1.97661787E-04  8.21913707E-05  1.01632001E-03 -1.46581699E-03  2.97605139E-04
  7.33593603E-05  1.28307544E-04  4.66708202E-01  6.08891639E-01  3.53092043E-02
 -1.76292934E-02  9.52068288E-03  5.85051612E-04  1.40876437E-05  2.46615863E-05
 -3.87252285E-03  2.28656435E-04  3.99598916E-04 -1.33535907E-03  9.86252896E-05
  1.72420267E-04  1.37961167E-04  3.71133679E-05  7.84386008E-04  6.85267012E-04
  2.10592929E-05  1.52159603E-03  2.72912488E-04  1.43731718E-03 -9.41911600E-04
  1.55975815E-04  1.38005100E-04 -8.79234002E-04  1.37583512E-04 -1.76025870E-04
 -9.85093835E-04  1.87278268E-04 -9.64882271E-05 -2.03709410E-05  1.60818995E-05
  3.94785787E-05  9.18326120E-04  2.17299336E-03  3.41006922E-05  6.70332607E-06
  1.17410977E-05 -1.08312796E-04 -2.68113369E-05 -4.69558944E-05 -1.37002372E-04
  7.14583120E-05  1.25088145E-04 -1.39188954E-03 -1.05081513E-04 -1.84194077E-04
 -7.91735747E-04 -3.95855382E-04 -6.93301385E-04  2.05585931E-05 -2.04610810E-05
 -1.18335438E-04 -1.75213734E-04 -1.16529476E-05  1.90186399E-04  3.36053464E-04
  2.86243233E-04  8.44036442E-06  1.91916159E-04 -6.50168715E-05 -7.36315462E-04
 -7.05193487E-05  8.25863497E-05 -1.34123852E-04  8.21406568E-04  4.35817417E-05
  1.26727310E-07  6.88952084E-06 -1.33745692E-04  6.82214952E-04 -1.52397778E-03
 -6.57743353E-05  3.34942930E-06  5.86359317E-06  2.38851411E-04  9.28509127E-05
  1.62585251E-04  6.11153047E-04 -1.09126347E-04 -1.90859050E-04 -2.87123831E-05
 -3.69350792E-05 -1.14796536E-05  3.61749677E-05 -2.11023644E-05  2.18454523E-04
  1.45113737E-04  1.36477846E-04 -2.17309720E-04  8.29202224E-05  5.15148890E-05
 -2.42668110E-05  2.86610423E-05 -6.61107396E-05 -1.42191386E-05  1.76121421E-05
 -4.20411411E-05 -7.77108662E-04 -2.43433877E-03 -2.15609356E-03 -1.01396974E-03
  1.01221698E-03  1.77095993E-03 -7.57854518E-04 -2.28277224E-03 -2.17117717E-03
 -1.32080965E-03 -8.94727733E-04 -1.56579914E-03 -8.40634086E-05 -1.78579167E-04
  3.99899947E-03 -1.56794693E-02  2.95385897E-03  9.38923496E-04 -1.56535979E-05
 -2.72488167E-05 -1.30302013E-02  2.07599038E-05  3.42696413E-05  9.11337640E-05
 -2.38931035E-04 -4.18187266E-04  1.86397491E-04  8.94426774E-06 -5.27265532E-05
 -3.84934359E-04  5.17803608E-06  3.40664535E-03 -5.08893975E-05  6.67943706E-04
 -5.11364138E-03 -2.81792380E-05  7.96617565E-08  7.59905342E-04  3.33255150E-05
  6.56566161E-07 -1.10706880E-04 -1.08747646E-03  9.19324351E-06 -2.87844808E-01
 -2.39004791E-01  8.06473776E-01  3.35792956E-02  4.40428409E-03 -2.09839710E-03
 -2.45012735E-03 -4.28894762E-03 -1.64594712E-03 -1.48239579E-03 -2.59490241E-03
  1.84832629E-03  1.26965399E-04  2.22751109E-04 -1.11816073E-02 -2.42685134E-03
 -4.25083791E-03  8.83612784E-05  9.02463232E-05  1.57942842E-04 -8.83480531E-05
 -7.34705345E-04  5.34341161E-04  7.83158195E-04 -4.19823716E-04 -1.64398255E-03
 -1.91908071E-03  1.58689283E-03  4.71937888E-03 -1.09696221E-03 -2.21577618E-04
  2.05476448E-03 -1.04529541E-03  2.62705318E-04  1.00328245E-03 -1.68645549E-03
 -6.69382018E-05 -4.91452215E-05 -2.50218183E-04  1.97481443E-03 -4.34429034E-03
 -2.98159901E-03 -2.87909212E-04  3.28186746E-04  5.74564037E-04  1.58695056E-03
 -1.87930496E-03 -3.29015801E-03  2.24521578E-04 -7.23815631E-04 -1.26719266E-03
  1.16813071E-04 -1.19872968E-04  1.76687347E-04  6.08533294E-06 -6.84777815E-05
 -9.73523448E-04  1.08926030E-03 -1.41125613E-03  2.15501139E-05  6.22206400E-04
 -1.47913816E-05  1.66726092E-04 -1.50865517E-04  1.56317150E-05  1.72480421E-04
 -4.91262698E-05 -2.63201788E-05 -1.50353179E-04 -1.09643787E-03 -1.96501273E-04
 -1.72631888E-04  2.89385341E-05  5.06332001E-05 -8.14445789E-05 -1.04217207E-03
 -7.13776913E-04 -3.24683231E-04  1.75094062E-05  3.05168569E-05  1.33561225E-04
  2.20574014E-04  9.32702121E-04 -1.07969242E-02 -2.57434440E-03 -2.85209796E-04
  3.48314673E-05  6.03886382E-05 -7.95717601E-03 -2.56706324E-04 -4.44685008E-04
 -1.51324850E-03  1.65275064E-04  2.85594909E-04  5.15397245E-05  7.60467766E-05
 -2.41419661E-05 -1.17626140E-04  4.34689455E-05  1.27217455E-03 -4.67558481E-04
  1.82151396E-04 -1.98929168E-03 -2.69500405E-04 -3.18777143E-05 -2.70164635E-04
 -7.04157490E-05  3.97566493E-05 -5.85880477E-06  3.43087241E-04  1.14910188E-05
  8.24798847E-04  6.44535060E-04 -2.59134678E-03  3.69373562E-04  4.71939601E-03
  5.24081163E-01 -2.42053130E-01 -4.20186150E-01  2.50025833E-01 -1.15630534E-01
 -2.00719716E-01  5.77890570E-02 -2.60758836E-02 -4.52828628E-02 -1.82618417E-02
  6.03782817E-03  1.05083215E-02 -1.85410726E-03 -5.09135353E-05 -7.13789073E-05
  1.44044551E-03 -8.03761042E-04  1.20179795E-03 -1.08368472E-03 -4.57827537E-04
 -4.30397389E-03  1.28223555E-03 -2.24816317E-03  4.80645120E-03  7.29361519E-04
  1.35573427E-05  4.20181468E-04  3.51273217E-04 -9.64840110E-06 -2.32665920E-04
 -7.66646022E-04  8.25482535E-05 -1.58108759E-04 -3.55709143E-04  6.06418363E-04
  1.88528320E-03  5.62224392E-03 -1.86632951E-04  2.78734855E-04  4.88162371E-04
 -7.75546503E-04  7.88858695E-04  1.38359143E-03 -1.23346880E-03  1.31403200E-03
  2.29973381E-03  6.59953115E-05 -3.88762025E-05  1.10062700E-04  1.56718677E-05
 -2.22411210E-05 -1.29424339E-04  6.82912910E-05 -2.83162244E-04 -1.08615826E-04
  3.95496321E-05 -4.53209869E-05  2.71111606E-04 -3.45863171E-04  5.01924059E-05
  2.91019310E-04 -6.94043673E-05 -4.95652036E-05 -1.64879206E-04  1.82818079E-04
 -2.01091972E-05  4.01297120E-04  5.50645035E-05  9.63886877E-05 -1.63441833E-04
  1.03215908E-04  1.32570830E-04 -1.16776945E-04 -1.90071878E-05 -3.32384134E-05
  3.24944442E-07  5.39270865E-07  2.26253455E-06 -2.62512819E-05 -5.97421726E-06
 -7.16860273E-07 -9.59808281E-05  5.50218038E-05 -1.91131228E-05  1.02887739E-03
 -5.89105298E-04 -3.78993771E-06 -6.10639626E-04  3.49661084E-04 -1.75504759E-05
 -1.34342864E-06  1.19721821E-05 -1.04962378E-05  2.72912630E-06  1.01526943E-04
 -4.76701309E-04 -6.65725336E-05  5.21946439E-05  8.32257829E-04  3.12902721E-05
  1.85331221E-05 -2.35171839E-05 -4.32703850E-05 -1.42899834E-05  1.57004881E-05
  9.06177632E-05  1.81753695E-06  1.35023349E-06 -5.79035059E-06  9.90839637E-07
  1.10033095E-05  1.32918297E-03  6.19320836E-01 -3.55110059E-01  6.34224090E-04
  2.96953907E-01 -1.70266825E-01  1.46158367E-04  6.36734723E-02 -3.65162311E-02
 -4.52790825E-05 -1.05413073E-02  6.05503890E-03 -4.24835879E-06  3.16219007E-03
 -1.80625174E-03  8.06972924E-04  2.12855047E-04 -5.44088895E-04  4.61243544E-04
 -3.77488938E-04 -4.86738731E-04 -3.92354590E-04  3.18810252E-04 -2.63229667E-04
  6.94484296E-04 -3.32377499E-05  2.43100508E-05  7.45549000E-05  1.90759707E-04
 -1.79371706E-05  1.60945680E-05 -2.90386447E-04 -3.90314778E-07 -8.84466361E-07
  1.57233685E-06  4.44236610E-06  1.40736737E-05 -4.68276762E-07  3.00047255E-05
 -1.55239385E-05 -1.83532519E-06  4.46242307E-04 -2.50447715E-04 -3.08978055E-06
 -1.35284536E-04  8.48776397E-05 -1.82034767E-05 -5.29407139E-06  1.27828729E-05
 -1.05662741E-05  9.04187378E-06 -1.65700124E-04  9.05355564E-05  1.11901186E-04
 -9.57517334E-05 -1.58033415E-04  8.76569164E-05 -4.55822429E-05 -5.39470692E-06
  5.91296360E-05  3.52265157E-05 -3.60006949E-05  1.15612243E-05 -3.96664138E-07
  5.88310167E-07 -1.97473913E-07  8.76883819E-07  1.01640063E-05 -5.55258803E-06
 -4.03556632E-07  2.30367970E-07  1.93696754E-07 -1.82136767E-07 -6.40097211E-06
  3.51646147E-06  1.21131396E-04  1.18300682E-04  2.11374604E-03 -1.29042490E-02