0005_q000_m01_k00_opt_uwb97xd_def2svpd/0005_q000_m01_k00_force_uhf_def2t
Force     UHF                                                         Gen                 
Number of atoms                            I                5
Info1-9                                    I   N=           9
          13           9           0           0           0         100
           5           1           2
Full Title                                 C   N=           8
0005_q000_m01_k00_opt_uwb97xd_def2svpd/0005_q000_m01_k00_for
ce_uhf_def2tzvp stable-force        
Route                                      C   N=          15
#p uhf/chkbasis force guess=read geom=check scf=(maxcycle=90
0,verytightlineq,xqc) integral=grid=ultrafine symmetry=None 
density=current pop=(cm5,hlygat,mbs,npa) output=wfx         
Charge                                     I                0
Multiplicity                               I                1
Number of electrons                        I               32
Number of alpha electrons                  I               16
Number of beta electrons                   I               16
Number of basis functions                  I              111
Number of independent functions            I              111
Number of point charges in /Mol/           I                0
Number of translation vectors              I                0
Atomic numbers                             I   N=           5
           6          16           8           1           1
Nuclear charges                            R   N=           5
  6.00000000E+00  1.60000000E+01  8.00000000E+00  1.00000000E+00  1.00000000E+00
Current cartesian coordinates              R   N=          15
  1.84630873E+00 -3.74093449E-02 -1.90536037E-01  4.89061526E+00 -6.53203910E-02
 -2.38935210E-01  5.99277468E+00 -1.34985333E+00 -2.48781287E+00  9.79013775E-01
  8.91172187E-01  1.43410851E+00  7.00713826E-01 -8.88557081E-01 -1.68005585E+00
Number of symbols in /Mol/                 I                0
Int Atom Types                             I   N=           5
           0           0           0           0           0
Force Field                                I                0
Atom Types                                 C   N=           5
                                                            
MM charges                                 R   N=           5
  0.00000000E+00  0.00000000E+00  0.00000000E+00  0.00000000E+00  0.00000000E+00
Integer atomic weights                     I   N=           5
          12          32          16           1           1
Real atomic weights                        R   N=           5
  1.20000000E+01  3.19720718E+01  1.59949146E+01  1.00782504E+00  1.00782504E+00
Atom fragment info                         I   N=           5
           0           0           0           0           0
Atom residue num                           I   N=           5
           0           0           0           0           0
Nuclear spins                              I   N=           5
           0           0           0           1           1
Nuclear ZEff                               R   N=           5
 -3.60000000E+00 -1.36000000E+01 -5.60000000E+00 -1.00000000E+00 -1.00000000E+00
Nuclear ZNuc                               R   N=           5
  6.00000000E+00  1.60000000E+01  8.00000000E+00  1.00000000E+00  1.00000000E+00
Nuclear QMom                               R   N=           5
  0.00000000E+00  0.00000000E+00  0.00000000E+00  0.00000000E+00  0.00000000E+00
Nuclear GFac                               R   N=           5
  0.00000000E+00  0.00000000E+00  0.00000000E+00  2.79284600E+00  2.79284600E+00
MicOpt                                     I   N=           5
          -1          -1          -1          -1          -1
Number of residues                         I                0
Number of secondary structures             I                0
Number of contracted shells                I               43
Number of primitive shells                 I               79
Pure/Cartesian d shells                    I                0
Pure/Cartesian f shells                    I                0
Highest angular momentum                   I                3
Largest degree of contraction              I                7
Shell types                                I   N=          43
           0           0           0           0           0           1
           1           1          -2          -2          -3           0
           0           0           0           0           1           1
           1           1           1          -2          -2          -3
           0           0           0           0           0           1
           1           1          -2          -2          -3           0
           0           0           1           0           0           0
           1
Number of primitives per shell             I   N=          43
           6           2           1           1           1           4
           1           1           1           1           1           7
           3           2           1           1           5           1
           1           1           1           2           1           1
           6           2           1           1           1           4
           1           1           1           1           1           3
           1           1           1           3           1           1
           1
Shell to atom map                          I   N=          43
           1           1           1           1           1           1
           1           1           1           1           1           2
           2           2           2           2           2           2
           2           2           2           2           2           2
           3           3           3           3           3           3
           3           3           3           3           3           4
           4           4           4           5           5           5
           5
Primitive exponents                        R   N=          79
  1.35753497E+04  2.03523337E+03  4.63225624E+02  1.31200196E+02  4.28530159E+01
  1.55841858E+01  6.20671385E+00  2.57648965E+00  5.76963394E-01  2.29728314E-01
  9.51644400E-02  3.46972322E+01  7.95826228E+00  2.37808269E+00  8.14332082E-01
  2.88875473E-01  1.00568237E-01  1.09700000E+00  3.18000000E-01  7.61000000E-01
  6.07009281E+04  9.10261069E+03  2.07141660E+03  5.86024768E+02  1.90553950E+02
  6.76303843E+01  2.51273069E+01  1.12574630E+02  3.47955542E+01  6.51155562E+00
  3.23990323E+00  1.54771609E+00  4.05410301E-01  1.45506511E-01  5.64367160E+02
  1.33426244E+02  4.24682712E+01  1.56165276E+01  6.10939885E+00  2.44041602E+00
  8.38822013E-01  3.12887469E-01  1.07701090E-01  3.75600000E+00  8.12000000E-01
  2.73000000E-01  5.57000000E-01  2.70323826E+04  4.05238714E+03  9.22327227E+02
  2.61240710E+02  8.53546414E+01  3.10350352E+01  1.22608607E+01  4.99870760E+00
  1.17031082E+00  4.64747410E-01  1.85045364E-01  6.32749548E+01  1.46270494E+01
  4.45012235E+00  1.52757996E+00  5.29351179E-01  1.74784213E-01  2.31400000E+00
  6.45000000E-01  1.42800000E+00  3.40613410E+01  5.12357460E+00  1.16466260E+00
  3.27230410E-01  1.03072410E-01  8.00000000E-01  3.40613410E+01  5.12357460E+00
  1.16466260E+00  3.27230410E-01  1.03072410E-01  8.00000000E-01
Contraction coefficients                   R   N=          79
  6.06455036E-04  4.69790889E-03  2.43324776E-02  9.73999683E-02  3.01955843E-01
  6.62336091E-01  6.55953085E-01  3.75856333E-01  1.00000000E+00  1.00000000E+00
  1.00000000E+00  1.13272200E-02  7.61696592E-02  3.01922522E-01  7.27850273E-01
  1.00000000E+00  1.00000000E+00  1.00000000E+00  1.00000000E+00  1.00000000E+00
  5.23800749E-04  4.05063268E-03  2.08270042E-02  8.14968503E-02  2.37491138E-01
  4.47261715E-01  3.48919184E-01  1.00455699E-01  4.33911729E-01 -1.20843306E+00
  6.74981294E-01  3.47087958E-01  1.00000000E+00  1.00000000E+00  3.48869236E-03
  2.76851268E-02  1.26594002E-01  3.61659257E-01  6.12220344E-01  1.00000000E+00
  1.00000000E+00  1.00000000E+00  1.00000000E+00  1.82851975E-01  9.14259873E-01
  1.00000000E+00  1.00000000E+00  5.72273352E-04  4.43532335E-03  2.30201077E-02
  9.28224907E-02  2.93785000E-01  6.74016045E-01  6.38399370E-01  3.95345871E-01
  1.00000000E+00  1.00000000E+00  1.00000000E+00  1.20183322E-02  8.30054218E-02
  3.19917439E-01  7.07155429E-01  1.00000000E+00  1.00000000E+00  1.00000000E+00
  1.00000000E+00  1.00000000E+00  2.54393072E-02  1.90085949E-01  8.52441130E-01
  1.00000000E+00  1.00000000E+00  1.00000000E+00  2.54393072E-02  1.90085949E-01
  8.52441130E-01  1.00000000E+00  1.00000000E+00  1.00000000E+00
Coordinates of each shell                  R   N=         129
  1.84630873E+00 -3.74093449E-02 -1.90536037E-01  1.84630873E+00 -3.74093449E-02
 -1.90536037E-01  1.84630873E+00 -3.74093449E-02 -1.90536037E-01  1.84630873E+00
 -3.74093449E-02 -1.90536037E-01  1.84630873E+00 -3.74093449E-02 -1.90536037E-01
  1.84630873E+00 -3.74093449E-02 -1.90536037E-01  1.84630873E+00 -3.74093449E-02
 -1.90536037E-01  1.84630873E+00 -3.74093449E-02 -1.90536037E-01  1.84630873E+00
 -3.74093449E-02 -1.90536037E-01  1.84630873E+00 -3.74093449E-02 -1.90536037E-01
  1.84630873E+00 -3.74093449E-02 -1.90536037E-01  4.89061526E+00 -6.53203910E-02
 -2.38935210E-01  4.89061526E+00 -6.53203910E-02 -2.38935210E-01  4.89061526E+00
 -6.53203910E-02 -2.38935210E-01  4.89061526E+00 -6.53203910E-02 -2.38935210E-01
  4.89061526E+00 -6.53203910E-02 -2.38935210E-01  4.89061526E+00 -6.53203910E-02
 -2.38935210E-01  4.89061526E+00 -6.53203910E-02 -2.38935210E-01  4.89061526E+00
 -6.53203910E-02 -2.38935210E-01  4.89061526E+00 -6.53203910E-02 -2.38935210E-01
  4.89061526E+00 -6.53203910E-02 -2.38935210E-01  4.89061526E+00 -6.53203910E-02
 -2.38935210E-01  4.89061526E+00 -6.53203910E-02 -2.38935210E-01  4.89061526E+00
 -6.53203910E-02 -2.38935210E-01  5.99277468E+00 -1.34985333E+00 -2.48781287E+00
  5.99277468E+00 -1.34985333E+00 -2.48781287E+00  5.99277468E+00 -1.34985333E+00
 -2.48781287E+00  5.99277468E+00 -1.34985333E+00 -2.48781287E+00  5.99277468E+00
 -1.34985333E+00 -2.48781287E+00  5.99277468E+00 -1.34985333E+00 -2.48781287E+00
  5.99277468E+00 -1.34985333E+00 -2.48781287E+00  5.99277468E+00 -1.34985333E+00
 -2.48781287E+00  5.99277468E+00 -1.34985333E+00 -2.48781287E+00  5.99277468E+00
 -1.34985333E+00 -2.48781287E+00  5.99277468E+00 -1.34985333E+00 -2.48781287E+00
  9.79013775E-01  8.91172187E-01  1.43410851E+00  9.79013775E-01  8.91172187E-01
  1.43410851E+00  9.79013775E-01  8.91172187E-01  1.43410851E+00  9.79013775E-01
  8.91172187E-01  1.43410851E+00  7.00713826E-01 -8.88557081E-01 -1.68005585E+00
  7.00713826E-01 -8.88557081E-01 -1.68005585E+00  7.00713826E-01 -8.88557081E-01
 -1.68005585E+00  7.00713826E-01 -8.88557081E-01 -1.68005585E+00
Num ILSW                                   I              100
ILSW                                       I   N=         100
           1           0           0           0           2           0
           0           0           0           0           0          -1
           5           0           0           0           2           0
           0           0           0           0           1           0
           1           1           0           0           0           0
           0           0      100000           0          -1           0
           0           0           0           0           0           0
           0           0           0           1           0           0
           0 -2000000000           1           0           0           0
           0           0           4          52           0           0
           0           0           0           0           0           0
           0           0           0           5           0           1
           0           0           0           0           0           0
           0           0           0           0           0           0
           0           0           0           0           0           0
           0           0           0           0           0           0
           0           0           0           0
Num RLSW                                   I               52
RLSW                                       R   N=          52
  1.00000000E+00  1.00000000E+00  1.00000000E+00  1.00000000E+00  1.00000000E+00
  0.00000000E+00  0.00000000E+00  1.00000000E+00  0.00000000E+00  0.00000000E+00
  0.00000000E+00  0.00000000E+00  1.00000000E+00  0.00000000E+00  0.00000000E+00
  0.00000000E+00  0.00000000E+00  1.00000000E+00  0.00000000E+00  0.00000000E+00
  0.00000000E+00  0.00000000E+00  1.00000000E+00  0.00000000E+00  0.00000000E+00
  0.00000000E+00  0.00000000E+00  1.00000000E+00  0.00000000E+00  0.00000000E+00
  0.00000000E+00  0.00000000E+00  1.00000000E+00  0.00000000E+00  0.00000000E+00
  0.00000000E+00  0.00000000E+00  0.00000000E+00  1.00000000E+00  1.00000000E+00
  0.00000000E+00  1.00000000E+00  0.00000000E+00  0.00000000E+00  0.00000000E+00
  0.00000000E+00  0.00000000E+00  0.00000000E+00  0.00000000E+00  0.00000000E+00
  0.00000000E+00  0.00000000E+00
MxBond                                     I                3
NBond                                      I   N=           5
           3           2           1           1           1
IBond                                      I   N=          15
           2           4           5           1           3           0
           2           0           0           1           0           0
           1           0           0
RBond                                      R   N=          15
  2.00000000E+00  1.00000000E+00  1.00000000E+00  2.00000000E+00  2.00000000E+00
  0.00000000E+00  2.00000000E+00  0.00000000E+00  0.00000000E+00  1.00000000E+00
  0.00000000E+00  0.00000000E+00  1.00000000E+00  0.00000000E+00  0.00000000E+00
Virial Ratio                               R      2.000358290114855E+00
SCF Energy                                 R     -5.114225893768108E+02
Total Energy                               R     -5.114225893768108E+02
S**2                                       R      4.379767270135897E-01
S**2 after annihilation                    R      4.266797629111881E-02
RMS Force                                  R      2.093612219954294E-02
RMS Density                                R      1.661877582093692E-09
Job Status                                 I                1
Nuclear derivative order                   I                1
External E-field                           R   N=          35
  0.00000000E+00  0.00000000E+00  0.00000000E+00  0.00000000E+00  0.00000000E+00
  0.00000000E+00  0.00000000E+00  0.00000000E+00  0.00000000E+00  0.00000000E+00
  0.00000000E+00  0.00000000E+00  0.00000000E+00  0.00000000E+00  0.00000000E+00
  0.00000000E+00  0.00000000E+00  0.00000000E+00  0.00000000E+00  0.00000000E+00
  0.00000000E+00  0.00000000E+00  0.00000000E+00  0.00000000E+00  0.00000000E+00
  0.00000000E+00  0.00000000E+00  0.00000000E+00  0.00000000E+00  0.00000000E+00
  0.00000000E+00  0.00000000E+00  0.00000000E+00  0.00000000E+00  0.00000000E+00
IOpCl                                      I                1
IROHF                                      I                0
Alpha Orbital Energies                     R   N=         111
 -9.20687808E+01 -2.05616466E+01 -1.12778484E+01 -9.06226678E+00 -6.74999579E+00
 -6.74320674E+00 -6.74109565E+00 -1.38471255E+00 -1.05921966E+00 -8.09596956E-01
 -6.58148233E-01 -6.35058481E-01 -6.11252289E-01 -5.53602689E-01 -4.43728879E-01
 -4.05484936E-01  7.21444146E-02  1.58405047E-01  1.69172704E-01  1.98695865E-01
  2.16852687E-01  2.75189117E-01  3.20835633E-01  3.39574606E-01  4.32110995E-01
  4.35840299E-01  4.40742257E-01  4.79536202E-01  5.37168123E-01  5.59717164E-01
  5.88579206E-01  5.95750236E-01  6.25430774E-01  6.77664815E-01  7.11613706E-01
  7.51276779E-01  8.03941404E-01  8.48225908E-01  8.81885888E-01  9.90270441E-01
  1.02597167E+00  1.13409128E+00  1.14555893E+00  1.19570507E+00  1.22716175E+00
  1.55362836E+00  1.60239723E+00  1.67274183E+00  1.69211898E+00  1.72937011E+00
  1.73837830E+00  1.76053541E+00  1.80110245E+00  1.83299433E+00  1.84434501E+00
  1.86344600E+00  1.90396526E+00  1.94271573E+00  1.99493183E+00  2.00343723E+00
  2.01838361E+00  2.04174314E+00  2.08373912E+00  2.17763080E+00  2.31150189E+00
  2.37649357E+00  2.39135834E+00  2.44554146E+00  2.51421685E+00  2.58239541E+00
  2.61561721E+00  2.67958395E+00  2.74872112E+00  2.81399974E+00  2.86147233E+00
  2.97124826E+00  3.06175711E+00  3.15226388E+00  3.27424754E+00  3.29723298E+00
  3.30571229E+00  3.43310607E+00  3.45559187E+00  3.51204871E+00  3.57322963E+00
  3.66825759E+00  3.76147212E+00  3.77274241E+00  3.95429521E+00  4.01082527E+00
  4.25387665E+00  4.45163072E+00  4.74180130E+00  5.59141718E+00  5.59192052E+00
  5.66740369E+00  5.68897497E+00  5.81614424E+00  5.93058245E+00  5.99260150E+00
  6.79096123E+00  6.80984883E+00  7.13569034E+00  7.20907158E+00  7.38465441E+00
  9.46616087E+00  9.79167558E+00  1.01624925E+01  2.14264029E+01  2.29878218E+01
  4.49375187E+01
Beta Orbital Energies                      R   N=         111
 -9.20642784E+01 -2.05456005E+01 -1.12941126E+01 -9.05781032E+00 -6.74027292E+00
 -6.73920112E+00 -6.73221071E+00 -1.35070599E+00 -1.07373194E+00 -8.07894994E-01
 -6.63824282E-01 -6.31694710E-01 -5.41473672E-01 -5.39000966E-01 -4.30304860E-01
 -3.97127405E-01  6.69749825E-02  1.55061756E-01  1.69718068E-01  2.00402655E-01
  2.17699982E-01  2.79632187E-01  3.12369533E-01  3.21288670E-01  4.30428495E-01
  4.33075593E-01  4.34913131E-01  4.77931241E-01  5.52140880E-01  5.66829408E-01
  5.77666464E-01  6.04730796E-01  6.18986303E-01  7.02463687E-01  7.11723786E-01
  7.53457020E-01  8.02916346E-01  8.28007832E-01  8.79544220E-01  9.91976202E-01
  1.02652350E+00  1.11092450E+00  1.12847785E+00  1.19079467E+00  1.23074421E+00
  1.54531464E+00  1.60811708E+00  1.68320948E+00  1.70095724E+00  1.71102716E+00
  1.73225256E+00  1.75095861E+00  1.80872679E+00  1.82770211E+00  1.84321267E+00
  1.88284699E+00  1.90413910E+00  1.94479403E+00  1.99792084E+00  2.00794539E+00
  2.01760426E+00  2.06002603E+00  2.09395845E+00  2.18331183E+00  2.31415278E+00
  2.37891466E+00  2.39134112E+00  2.45250407E+00  2.50709630E+00  2.60904885E+00
  2.61382254E+00  2.67802142E+00  2.74322419E+00  2.81292926E+00  2.86091523E+00
  2.95672885E+00  3.05959335E+00  3.17375159E+00  3.27232495E+00  3.28704862E+00
  3.30998299E+00  3.39459594E+00  3.43435987E+00  3.49497384E+00  3.55751777E+00
  3.64847742E+00  3.74503416E+00  3.76394301E+00  3.94680908E+00  4.00355876E+00
  4.25555985E+00  4.44681319E+00  4.73427777E+00  5.61030576E+00  5.61080034E+00
  5.68029183E+00  5.70267339E+00  5.83323594E+00  5.93566610E+00  6.00165891E+00
  6.82703362E+00  6.84599140E+00  7.16723734E+00  7.21734458E+00  7.39872129E+00
  9.48252649E+00  9.79365293E+00  1.01651477E+01  2.14319547E+01  2.29766082E+01
  4.49469847E+01
Alpha MO coefficients                      R   N=       12321
  1.31055716E-06 -9.05394951E-06  7.70988734E-04 -2.93191016E-03 -7.48959425E-06
  1.90603069E-04 -4.30519089E-06 -7.50535187E-06 -2.43207144E-03  1.08281910E-05
  1.85656371E-05 -2.06172297E-04 -5.04905008E-05 -8.83889537E-05  4.12002266E-05
 -4.51754807E-07 -9.30158559E-06 -8.23133914E-05 -2.43733589E-07  6.44869101E-04
 -7.71972741E-06  1.04906768E-04 -9.93368402E-04 -4.23687865E-06 -7.11519965E-06
  1.94687896E-04  5.17025920E-06  9.34363780E-06 -1.20557440E-05 -2.62925204E-04
  8.33830739E-06  9.98644882E-01 -2.86402169E-02 -7.68071902E-03  3.04652588E-03
  2.13862313E-03 -4.50149817E-05 -6.30862787E-05 -1.10447648E-04 -2.38593512E-05
  6.55746655E-05  1.14798725E-04  3.12258643E-04  1.85948530E-05  3.26123715E-05
 -1.95157647E-03 -5.08751086E-04 -8.91057381E-04 -2.07447112E-04 -3.76486869E-05
 -6.59688269E-05 -3.62171765E-07 -1.10072686E-04  1.47207748E-04  1.74262069E-04
 -6.29047160E-05 -2.55391693E-04 -4.12641205E-04  3.44484459E-04  8.48698295E-04
 -2.35845566E-04 -4.34446099E-05  3.73018395E-04 -2.06474092E-04  5.14702822E-05
  1.94075883E-04 -2.94655490E-04 -1.35462995E-05  1.35086865E-05 -5.01393737E-05
  4.62629655E-04 -9.67134465E-04 -8.32028352E-04 -6.44867078E-05  7.19779404E-05
  1.26013214E-04  3.68551862E-04 -4.33227169E-04 -7.58464301E-04  1.01706429E-04
 -1.74786755E-04 -3.06001100E-04  2.98767619E-05 -3.32837233E-05  4.47183144E-05
  9.98863166E-07 -1.90130580E-05 -2.40254488E-04  2.81517050E-04 -3.44208375E-04
  1.01245661E-05  1.60805394E-04 -6.71062160E-06  7.74336742E-05 -7.74019209E-05
  6.88144930E-06  8.08853525E-05 -2.20668027E-05 -1.43515602E-05 -1.66694500E-05
 -1.79748890E-04  3.06699866E-05 -3.83452522E-05  1.56687986E-06  2.73960200E-06
 -5.16685816E-07 -1.56765054E-04 -1.14044735E-04 -6.06094272E-05  1.02086570E-05
  1.78401447E-05  1.23048438E-06 -1.18042676E-07 -2.49139035E-05  5.79112477E-04
 -4.19645928E-04 -5.90752823E-05 -1.27428139E-05 -2.23242137E-05  1.20107282E-03
  1.00261327E-05  1.77499999E-05 -5.85771388E-04 -1.63891410E-04 -2.86897911E-04
 -2.72830654E-06 -3.69991502E-05  2.71200810E-05  3.67212746E-05 -2.11462163E-05
 -3.80308520E-04  1.01989209E-04 -3.64682501E-04  2.28818763E-04  5.82463112E-05
 -2.33933093E-05  1.09223929E-05  7.23396197E-07  3.03606060E-05  3.54864169E-05
  2.00242845E-05  2.27851074E-05  5.62907869E-05 -1.13591410E-04 -4.05080237E-04
  3.86544388E-04  1.44516069E-04 -2.03013362E-05  1.46312653E-05  2.56103375E-05
  2.65379322E-05  3.70984827E-05  6.49610460E-05 -2.48892300E-04  2.17071286E-05
  3.79571835E-05  1.70400566E-03 -9.53991762E-04 -1.67000347E-03 -4.33117608E-04
  2.94389777E-04  5.15316290E-04  2.10580786E-04 -2.25368740E-04  2.70249757E-04
 -4.59560355E-05 -1.28722532E-04  7.54309584E-04 -5.14858094E-04  7.31891746E-04
 -4.43252553E-04 -2.94025008E-04 -3.14160143E-05  1.37596525E-04 -3.12239125E-04
  3.33935154E-05  2.17310604E-04  3.16544039E-05 -5.37230454E-05  4.35549284E-01
  6.42320755E-01  2.24474734E-02 -9.51620096E-03  3.09562162E-03 -8.52502881E-04
  8.56265134E-04  1.49918309E-03  1.08364073E-03 -1.11764731E-03 -1.95677697E-03
 -2.83290942E-04  3.00667133E-04  5.26419544E-04  1.72551425E-05 -4.04900882E-05
 -1.04811107E-04 -1.53529031E-04 -2.30882250E-05 -2.97837709E-04  4.05662732E-04
 -3.82633589E-04  6.45115738E-05  2.31686579E-04 -6.06655084E-06  4.53676903E-05
 -4.94477020E-05  6.70196013E-06  4.64351111E-05 -1.38452371E-05 -7.44983534E-06
  4.71694408E-05  5.51500081E-04 -1.10018680E-04  3.70853252E-05 -4.29537457E-05
 -7.51064283E-05  3.42265936E-05  4.56148429E-04 -4.89678761E-04  1.30121968E-04
  3.09212044E-05  5.40822287E-05  4.67753358E-01  6.12887974E-01  1.76260105E-02
 -5.37479225E-03  3.14092145E-03  2.31720250E-04  4.15814088E-05  7.27727380E-05
 -5.43348962E-05  3.63581424E-06  6.34184411E-06 -2.02269930E-04  5.22765933E-05
  9.14644317E-05  1.17987645E-04  2.59950068E-05  7.70058698E-04  7.03034182E-04
  1.47131407E-05  1.01275301E-04  1.95817343E-05  2.89408000E-04  1.65582219E-04
  1.11382177E-05  7.08961973E-05 -4.85601157E-04  5.69692137E-05 -9.07066351E-05
 -3.99336385E-04  2.42674989E-04 -5.32763751E-05 -2.86261984E-05  2.38816638E-05
  7.30631893E-05  1.88205670E-04 -9.26409812E-05  6.35446812E-05  5.89363259E-06
  1.03284747E-05 -4.49692724E-05 -3.45642810E-06 -6.05771938E-06 -1.23816998E-04
  1.71330166E-05  2.99791929E-05  1.80119272E-04 -7.99768385E-05 -1.40002395E-04
 -4.56737071E-06 -1.15682881E-04 -2.02560883E-04  3.06928856E-05 -3.60494343E-06
 -4.12657943E-05 -1.01831761E-04 -2.04151077E-06  1.91781217E-04 -2.64162800E-06
  1.14313910E-04 -1.97309402E-04 -1.48209846E-06 -2.10827405E-05 -1.70035845E-04
 -4.29048113E-05  2.63163360E-05 -7.04085711E-06  2.12756797E-04  8.75702626E-06
  1.88335947E-06  3.19494618E-06  5.16906628E-06  1.71536063E-05 -4.49066824E-04
 -1.92148089E-06  5.54624192E-06  9.71688578E-06  1.09262261E-04 -3.14823238E-05
 -5.51088512E-05  1.41333677E-04 -3.26441233E-05 -5.71069687E-05 -2.13703946E-06
 -7.12928024E-06 -1.89211046E-06  1.46646386E-06 -4.07160133E-06  2.44008591E-05
  5.01485648E-05  1.23257896E-05 -2.77056377E-05  2.86463457E-05  9.27979744E-06
 -1.23316430E-06  4.00064819E-06 -1.19347863E-05 -8.93328206E-07  7.28832351E-07
 -7.88392404E-06 -8.05635614E-05 -1.31755922E-04 -6.96647790E-04 -1.65415701E-04
  1.95680233E-04  3.42373200E-04 -8.06512504E-05 -1.07529120E-04 -6.26124815E-04
 -2.24951390E-04 -1.67172166E-04 -2.92558249E-04 -1.55082185E-04 -2.64655750E-04
  4.60014829E-04 -1.29865566E-03  1.78176031E-03  2.40259428E-04 -1.96944221E-06
 -3.41608899E-06 -9.84838624E-04 -7.98149247E-06 -1.41274239E-05  6.40360237E-04
  8.03182450E-05  1.40608266E-04 -1.65635067E-05 -3.25502829E-06 -7.53435556E-06
  1.98151139E-05 -1.86027960E-06  2.06641472E-04 -2.50251274E-05  7.23542945E-05
 -2.72702753E-04 -1.42478582E-05  2.98341734E-05 -7.53164366E-05  1.75742438E-05
 -3.82785438E-05 -3.90953895E-05  5.96187442E-05 -2.41089356E-05 -2.87471034E-01
 -2.48619019E-01  8.05784130E-01  1.42415196E-02 -2.94807852E-03 -1.78463268E-03
 -1.63133362E-03 -2.85591389E-03 -1.43790875E-03 -1.40928363E-03 -2.46711562E-03
 -1.08419315E-04 -1.82702731E-04 -3.19828816E-04 -1.34578160E-03  4.40626528E-05
  7.69067969E-05  5.89463477E-04  9.13138520E-05  1.60004304E-04 -1.70794996E-04
 -3.03042736E-04 -2.83000361E-04 -3.80622379E-05 -1.73081300E-04 -2.45641903E-04
  1.12485009E-04  1.96614274E-05  4.48693268E-04  6.41961314E-05 -9.55987251E-06
  3.25571922E-04 -1.96418694E-04  7.78878222E-06  1.81155228E-04 -2.45878572E-04
 -4.35697123E-05 -9.11800538E-05 -1.95247742E-04  1.35388500E-04  1.69244876E-04
  4.51194339E-04 -1.09136901E-04  1.38680252E-04  2.42790840E-04 -1.21665208E-04
  1.32627253E-04  2.32203459E-04 -1.21246113E-04  6.82287862E-05  1.19444170E-04
  2.68372962E-05 -2.34204665E-05  3.92656122E-05 -1.66833001E-07 -1.33782734E-05
  8.75444462E-05 -1.48836997E-04  1.17734390E-04 -1.27556403E-05 -8.50085267E-05
  4.31097421E-06 -1.08035746E-04  1.14991852E-04 -2.88510934E-06 -1.15365741E-04
  2.83655511E-05  2.67874390E-05 -5.26199035E-05 -1.41929416E-04 -3.12460209E-04
  4.63279233E-06  1.58701091E-05  2.77727879E-05 -5.45855615E-05 -1.19127600E-04
 -3.35172189E-05 -1.18430544E-05 -1.94865040E-05 -3.41134228E-05  5.26919141E-09
  1.06587885E-08  2.48851594E-08 -2.16735715E-07  2.07642194E-07 -2.91875660E-08
 -2.50766064E-05  1.43349784E-05  1.72716857E-07  5.88708323E-04 -3.36236976E-04
 -8.91259776E-08 -3.04494110E-04  1.74004384E-04 -1.90974759E-05 -1.27210384E-05
  1.30008115E-05 -1.10270723E-05  2.22490570E-05  1.16207986E-04 -2.64744572E-04
 -7.91977752E-05  6.72342900E-05  4.63648376E-04  1.26793758E-05  1.81430895E-05
 -7.97926193E-06 -1.32444426E-05 -1.34989787E-05  1.40459764E-05  3.08460872E-05
 -1.11029531E-07 -1.72753977E-07  2.94326264E-07 -1.83737520E-08 -1.48356072E-07
  6.85489645E-05  6.20368156E-01 -3.54345548E-01  3.34319576E-05  3.02981099E-01
 -1.73058535E-01  5.67626556E-06  5.11988889E-02 -2.92441244E-02 -6.11782528E-07
 -5.87136693E-03  3.35362207E-03  1.38476629E-07  1.74309532E-03 -9.95545645E-04
  7.42294539E-04  2.57176790E-04 -5.05387341E-04  4.28488019E-04 -4.50628752E-04
 -6.60431379E-04 -2.36645822E-04  4.49731301E-04 -3.81242434E-04  4.14654986E-04
  7.19323095E-05  3.62933829E-05  4.78573376E-05  2.01089248E-04 -2.70961250E-05
  2.80465325E-05 -1.95476478E-04 -8.79440799E-09 -2.52430588E-08  8.69562404E-08
 -7.54766330E-08  2.19021188E-07 -6.63756100E-09  1.70298780E-04 -9.72145456E-05
  5.37134666E-08  4.13386730E-04 -2.36118651E-04 -4.46615125E-08  3.70902831E-05
 -2.10806046E-05 -3.69120650E-05  2.25406989E-06  2.51489552E-05 -2.13156346E-05
 -3.95146495E-06 -1.49427469E-04  8.21667531E-05  1.01739246E-04 -8.62809458E-05
 -1.43777456E-04  4.70538365E-05 -1.93586621E-05 -3.37991704E-06  2.88594649E-05
  1.44545006E-05 -1.50028952E-05  9.98953606E-06  9.16159893E-09  1.72255331E-07
 -2.03074151E-07 -3.86188877E-08  1.76159234E-05 -1.01201787E-05  8.67949007E-10
  1.18148309E-07 -6.04247308E-08  8.50834802E-08 -2.50157909E-05  1.42917098E-05
  2.37940644E-04  3.82231248E-04  4.18501868E-04 -7.27999110E-03 -2.08051205E-03
 -5.06233817E-04 -4.85543354E-07 -9.36777602E-07 -4.90648665E-03  2.06347173E-04
  3.60571826E-04 -1.12499343E-03  2.13891946E-04  3.74118209E-04  4.47650724E-05
 -2.95737695E-07 -8.41517709E-06 -8.74733652E-05 -1.55468716E-07  6.37811232E-04
  3.13873317E-04 -1.27477878E-04 -1.25471626E-03  1.79492097E-04 -8.15174337E-06
 -8.04129890E-05  1.36889854E-06  1.06062747E-05  3.44335111E-05  1.36962680E-04
  8.19123076E-06 -5.97121071E-04 -6.99534689E-04  1.90906838E-03 -1.69960932E-03
  5.60745251E-03  7.00649104E-01 -6.79397484E-02 -1.18809601E-01  3.42141344E-01
 -3.33523675E-02 -5.83251851E-02  6.01832278E-02 -6.21200737E-03 -1.08641118E-02
 -1.18736024E-02  1.36713846E-03  2.39148298E-03 -8.71768674E-04 -2.84638856E-05
 -4.97727920E-05  7.61958750E-04 -1.03614250E-03  3.93205787E-04 -8.56191951E-04
 -5.91769441E-04 -2.04097771E-03  1.41905604E-03 -6.24603429E-04  2.79845427E-03
  8.10096722E-04  1.20538378E-04  9.57240537E-05  2.05542845E-04 -1.51473864E-04
 -2.81805988E-04 -3.95003726E-04 -6.09762651E-05 -1.35719605E-04 -2.91783851E-04
  2.44089942E-04  1.69459919E-03  1.48153977E-03 -3.81322473E-05  2.45261230E-04
  4.29410427E-04 -2.02667472E-04  6.20153312E-04  1.08579611E-03 -1.65828904E-04
  3.97242498E-04  6.95467027E-04  3.75893400E-05 -1.07748557E-06  6.36602413E-05
  9.99849190E-06 -6.18229837E-07  1.48492856E-04  6.71915287E-06  3.99011348E-05
 -2.10107796E-04  3.86697707E-06 -1.93421160E-05  3.13958602E-05 -9.68259980E-05
  2.27927371E-05  4.03209526E-05 -1.69834466E-06 -7.38504850E-06 -4.38118225E-05
  3.95595876E-04 -1.51109153E-04  1.12220119E-04 -1.60051221E-05 -2.80222088E-05
 -8.50416077E-05  3.90811552E-04  3.09092063E-04  1.83768305E-04 -1.03157845E-05
 -1.79904504E-05  3.89032805E-05  2.19321782E-05  5.33241370E-04 -1.89367240E-03