0005_q000_m01_k00_opt_uwb97xd_def2svpd/0005_q000_m01_k00_force_uwb97xd_d
Force     UwB97XD                                                     Gen                 
Number of atoms                            I                5
Info1-9                                    I   N=           9
          13           9           0           0           0         100
           5          18       -5802
Full Title                                 C   N=           8
0005_q000_m01_k00_opt_uwb97xd_def2svpd/0005_q000_m01_k00_for
ce_uwb97xd_def2tzvp stable-force    
Route                                      C   N=          15
#p uwb97xd/chkbasis force guess=read geom=check scf=(maxcycl
e=900,verytightlineq,xqc) integral=grid=ultrafine symmetry=N
one density=current pop=(cm5,hlygat,mbs,npa) output=wfx     
Charge                                     I                0
Multiplicity                               I                1
Number of electrons                        I               32
Number of alpha electrons                  I               16
Number of beta electrons                   I               16
Number of basis functions                  I              111
Number of independent functions            I              111
Number of point charges in /Mol/           I                0
Number of translation vectors              I                0
Atomic numbers                             I   N=           5
           6          16           8           1           1
Nuclear charges                            R   N=           5
  6.00000000E+00  1.60000000E+01  8.00000000E+00  1.00000000E+00  1.00000000E+00
Current cartesian coordinates              R   N=          15
  1.84630873E+00 -3.74093449E-02 -1.90536037E-01  4.89061526E+00 -6.53203910E-02
 -2.38935210E-01  5.99277468E+00 -1.34985333E+00 -2.48781287E+00  9.79013775E-01
  8.91172187E-01  1.43410851E+00  7.00713826E-01 -8.88557081E-01 -1.68005585E+00
Number of symbols in /Mol/                 I                0
Int Atom Types                             I   N=           5
           0           0           0           0           0
Force Field                                I                0
Atom Types                                 C   N=           5
                                                            
MM charges                                 R   N=           5
  0.00000000E+00  0.00000000E+00  0.00000000E+00  0.00000000E+00  0.00000000E+00
Integer atomic weights                     I   N=           5
          12          32          16           1           1
Real atomic weights                        R   N=           5
  1.20000000E+01  3.19720718E+01  1.59949146E+01  1.00782504E+00  1.00782504E+00
Atom fragment info                         I   N=           5
           0           0           0           0           0
Atom residue num                           I   N=           5
           0           0           0           0           0
Nuclear spins                              I   N=           5
           0           0           0           1           1
Nuclear ZEff                               R   N=           5
 -3.60000000E+00 -1.36000000E+01 -5.60000000E+00 -1.00000000E+00 -1.00000000E+00
Nuclear ZNuc                               R   N=           5
  6.00000000E+00  1.60000000E+01  8.00000000E+00  1.00000000E+00  1.00000000E+00
Nuclear QMom                               R   N=           5
  0.00000000E+00  0.00000000E+00  0.00000000E+00  0.00000000E+00  0.00000000E+00
Nuclear GFac                               R   N=           5
  0.00000000E+00  0.00000000E+00  0.00000000E+00  2.79284600E+00  2.79284600E+00
MicOpt                                     I   N=           5
          -1          -1          -1          -1          -1
Number of residues                         I                0
Number of secondary structures             I                0
Number of contracted shells                I               43
Number of primitive shells                 I               79
Pure/Cartesian d shells                    I                0
Pure/Cartesian f shells                    I                0
Highest angular momentum                   I                3
Largest degree of contraction              I                7
Shell types                                I   N=          43
           0           0           0           0           0           1
           1           1          -2          -2          -3           0
           0           0           0           0           1           1
           1           1           1          -2          -2          -3
           0           0           0           0           0           1
           1           1          -2          -2          -3           0
           0           0           1           0           0           0
           1
Number of primitives per shell             I   N=          43
           6           2           1           1           1           4
           1           1           1           1           1           7
           3           2           1           1           5           1
           1           1           1           2           1           1
           6           2           1           1           1           4
           1           1           1           1           1           3
           1           1           1           3           1           1
           1
Shell to atom map                          I   N=          43
           1           1           1           1           1           1
           1           1           1           1           1           2
           2           2           2           2           2           2
           2           2           2           2           2           2
           3           3           3           3           3           3
           3           3           3           3           3           4
           4           4           4           5           5           5
           5
Primitive exponents                        R   N=          79
  1.35753497E+04  2.03523337E+03  4.63225624E+02  1.31200196E+02  4.28530159E+01
  1.55841858E+01  6.20671385E+00  2.57648965E+00  5.76963394E-01  2.29728314E-01
  9.51644400E-02  3.46972322E+01  7.95826228E+00  2.37808269E+00  8.14332082E-01
  2.88875473E-01  1.00568237E-01  1.09700000E+00  3.18000000E-01  7.61000000E-01
  6.07009281E+04  9.10261069E+03  2.07141660E+03  5.86024768E+02  1.90553950E+02
  6.76303843E+01  2.51273069E+01  1.12574630E+02  3.47955542E+01  6.51155562E+00
  3.23990323E+00  1.54771609E+00  4.05410301E-01  1.45506511E-01  5.64367160E+02
  1.33426244E+02  4.24682712E+01  1.56165276E+01  6.10939885E+00  2.44041602E+00
  8.38822013E-01  3.12887469E-01  1.07701090E-01  3.75600000E+00  8.12000000E-01
  2.73000000E-01  5.57000000E-01  2.70323826E+04  4.05238714E+03  9.22327227E+02
  2.61240710E+02  8.53546414E+01  3.10350352E+01  1.22608607E+01  4.99870760E+00
  1.17031082E+00  4.64747410E-01  1.85045364E-01  6.32749548E+01  1.46270494E+01
  4.45012235E+00  1.52757996E+00  5.29351179E-01  1.74784213E-01  2.31400000E+00
  6.45000000E-01  1.42800000E+00  3.40613410E+01  5.12357460E+00  1.16466260E+00
  3.27230410E-01  1.03072410E-01  8.00000000E-01  3.40613410E+01  5.12357460E+00
  1.16466260E+00  3.27230410E-01  1.03072410E-01  8.00000000E-01
Contraction coefficients                   R   N=          79
  6.06455036E-04  4.69790889E-03  2.43324776E-02  9.73999683E-02  3.01955843E-01
  6.62336091E-01  6.55953085E-01  3.75856333E-01  1.00000000E+00  1.00000000E+00
  1.00000000E+00  1.13272200E-02  7.61696592E-02  3.01922522E-01  7.27850273E-01
  1.00000000E+00  1.00000000E+00  1.00000000E+00  1.00000000E+00  1.00000000E+00
  5.23800749E-04  4.05063268E-03  2.08270042E-02  8.14968503E-02  2.37491138E-01
  4.47261715E-01  3.48919184E-01  1.00455699E-01  4.33911729E-01 -1.20843306E+00
  6.74981294E-01  3.47087958E-01  1.00000000E+00  1.00000000E+00  3.48869236E-03
  2.76851268E-02  1.26594002E-01  3.61659257E-01  6.12220344E-01  1.00000000E+00
  1.00000000E+00  1.00000000E+00  1.00000000E+00  1.82851975E-01  9.14259873E-01
  1.00000000E+00  1.00000000E+00  5.72273352E-04  4.43532335E-03  2.30201077E-02
  9.28224907E-02  2.93785000E-01  6.74016045E-01  6.38399370E-01  3.95345871E-01
  1.00000000E+00  1.00000000E+00  1.00000000E+00  1.20183322E-02  8.30054218E-02
  3.19917439E-01  7.07155429E-01  1.00000000E+00  1.00000000E+00  1.00000000E+00
  1.00000000E+00  1.00000000E+00  2.54393072E-02  1.90085949E-01  8.52441130E-01
  1.00000000E+00  1.00000000E+00  1.00000000E+00  2.54393072E-02  1.90085949E-01
  8.52441130E-01  1.00000000E+00  1.00000000E+00  1.00000000E+00
Coordinates of each shell                  R   N=         129
  1.84630873E+00 -3.74093449E-02 -1.90536037E-01  1.84630873E+00 -3.74093449E-02
 -1.90536037E-01  1.84630873E+00 -3.74093449E-02 -1.90536037E-01  1.84630873E+00
 -3.74093449E-02 -1.90536037E-01  1.84630873E+00 -3.74093449E-02 -1.90536037E-01
  1.84630873E+00 -3.74093449E-02 -1.90536037E-01  1.84630873E+00 -3.74093449E-02
 -1.90536037E-01  1.84630873E+00 -3.74093449E-02 -1.90536037E-01  1.84630873E+00
 -3.74093449E-02 -1.90536037E-01  1.84630873E+00 -3.74093449E-02 -1.90536037E-01
  1.84630873E+00 -3.74093449E-02 -1.90536037E-01  4.89061526E+00 -6.53203910E-02
 -2.38935210E-01  4.89061526E+00 -6.53203910E-02 -2.38935210E-01  4.89061526E+00
 -6.53203910E-02 -2.38935210E-01  4.89061526E+00 -6.53203910E-02 -2.38935210E-01
  4.89061526E+00 -6.53203910E-02 -2.38935210E-01  4.89061526E+00 -6.53203910E-02
 -2.38935210E-01  4.89061526E+00 -6.53203910E-02 -2.38935210E-01  4.89061526E+00
 -6.53203910E-02 -2.38935210E-01  4.89061526E+00 -6.53203910E-02 -2.38935210E-01
  4.89061526E+00 -6.53203910E-02 -2.38935210E-01  4.89061526E+00 -6.53203910E-02
 -2.38935210E-01  4.89061526E+00 -6.53203910E-02 -2.38935210E-01  4.89061526E+00
 -6.53203910E-02 -2.38935210E-01  5.99277468E+00 -1.34985333E+00 -2.48781287E+00
  5.99277468E+00 -1.34985333E+00 -2.48781287E+00  5.99277468E+00 -1.34985333E+00
 -2.48781287E+00  5.99277468E+00 -1.34985333E+00 -2.48781287E+00  5.99277468E+00
 -1.34985333E+00 -2.48781287E+00  5.99277468E+00 -1.34985333E+00 -2.48781287E+00
  5.99277468E+00 -1.34985333E+00 -2.48781287E+00  5.99277468E+00 -1.34985333E+00
 -2.48781287E+00  5.99277468E+00 -1.34985333E+00 -2.48781287E+00  5.99277468E+00
 -1.34985333E+00 -2.48781287E+00  5.99277468E+00 -1.34985333E+00 -2.48781287E+00
  9.79013775E-01  8.91172187E-01  1.43410851E+00  9.79013775E-01  8.91172187E-01
  1.43410851E+00  9.79013775E-01  8.91172187E-01  1.43410851E+00  9.79013775E-01
  8.91172187E-01  1.43410851E+00  7.00713826E-01 -8.88557081E-01 -1.68005585E+00
  7.00713826E-01 -8.88557081E-01 -1.68005585E+00  7.00713826E-01 -8.88557081E-01
 -1.68005585E+00  7.00713826E-01 -8.88557081E-01 -1.68005585E+00
Num ILSW                                   I              100
ILSW                                       I   N=         100
           1           0           0           0           2           0
           0           0           0           0        4639          -1
           5           0           0           0           2           0
           0           0           0           0           1           0
           1           1           0           0           0           0
           0           0      100000           0          -1           0
           0           0           0           0           0           0
           0           0           0           1           0           0
           0 -2000000000           1           0           0           0
           0           0         121          52           0           0
           0           0          58           0           0           0
           0           0           0           5           0           1
           0           0           0           0           0           0
           0           0           0           0           0           0
           0           0           0           0           0           0
           0           0           0           0           0           0
           0           0           0           0
Num RLSW                                   I               52
RLSW                                       R   N=          52
  1.00000000E+00  1.00000000E+00  1.00000000E+00  1.00000000E+00  1.00000000E+00
  0.00000000E+00  2.00000000E-01  2.22036000E-01  0.00000000E+00  7.77964000E-01
  0.00000000E+00  2.00000000E-01  0.00000000E+00  0.00000000E+00  1.00000000E+00
  0.00000000E+00  0.00000000E+00  1.00000000E+00  0.00000000E+00  0.00000000E+00
  0.00000000E+00  0.00000000E+00  1.00000000E+00  0.00000000E+00  0.00000000E+00
  0.00000000E+00  0.00000000E+00  1.00000000E+00  0.00000000E+00  0.00000000E+00
  0.00000000E+00  0.00000000E+00  1.00000000E+00  0.00000000E+00  0.00000000E+00
  0.00000000E+00  0.00000000E+00  0.00000000E+00  1.00000000E+00  1.00000000E+00
  0.00000000E+00  1.00000000E+00  0.00000000E+00  0.00000000E+00  0.00000000E+00
  0.00000000E+00  0.00000000E+00  0.00000000E+00  0.00000000E+00  0.00000000E+00
  0.00000000E+00  0.00000000E+00
MxBond                                     I                3
NBond                                      I   N=           5
           3           2           1           1           1
IBond                                      I   N=          15
           2           4           5           1           3           0
           2           0           0           1           0           0
           1           0           0
RBond                                      R   N=          15
  2.00000000E+00  1.00000000E+00  1.00000000E+00  2.00000000E+00  2.00000000E+00
  0.00000000E+00  2.00000000E+00  0.00000000E+00  0.00000000E+00  1.00000000E+00
  0.00000000E+00  0.00000000E+00  1.00000000E+00  0.00000000E+00  0.00000000E+00
Virial Ratio                               R      2.002446643475522E+00
SCF Energy                                 R     -5.126918648717048E+02
Total Energy                               R     -5.126918648717048E+02
S**2 after annihilation                    R     -9.201528428093249E-13
RMS Force                                  R      1.141421701361484E-02
RMS Density                                R      8.053216482554016E-10
Job Status                                 I                1
Nuclear derivative order                   I                1
External E-field                           R   N=          35
  0.00000000E+00  0.00000000E+00  0.00000000E+00  0.00000000E+00  0.00000000E+00
  0.00000000E+00  0.00000000E+00  0.00000000E+00  0.00000000E+00  0.00000000E+00
  0.00000000E+00  0.00000000E+00  0.00000000E+00  0.00000000E+00  0.00000000E+00
  0.00000000E+00  0.00000000E+00  0.00000000E+00  0.00000000E+00  0.00000000E+00
  0.00000000E+00  0.00000000E+00  0.00000000E+00  0.00000000E+00  0.00000000E+00
  0.00000000E+00  0.00000000E+00  0.00000000E+00  0.00000000E+00  0.00000000E+00
  0.00000000E+00  0.00000000E+00  0.00000000E+00  0.00000000E+00  0.00000000E+00
IOpCl                                      I                1
IROHF                                      I                0
Alpha Orbital Energies                     R   N=         111
 -8.91339963E+01 -1.92476653E+01 -1.03379661E+01 -8.15549949E+00 -6.10229757E+00
 -6.10217262E+00 -6.09783294E+00 -1.13977300E+00 -8.97758471E-01 -6.96441605E-01
 -5.76804681E-01 -5.47418995E-01 -5.05750565E-01 -4.73397518E-01 -3.68200100E-01
 -3.52453419E-01 -1.74687232E-02  9.09207625E-02  1.34184643E-01  1.64566080E-01
  1.84002893E-01  2.19779719E-01  2.81249950E-01  2.81767386E-01  3.45867324E-01
  3.66566232E-01  3.76524809E-01  3.99544779E-01  4.38573349E-01  4.68433223E-01
  4.82291221E-01  4.93933840E-01  5.31089495E-01  6.07483332E-01  6.07737670E-01
  6.50062116E-01  6.98082636E-01  7.15942681E-01  7.59710161E-01  8.47477101E-01
  9.08657862E-01  9.91888421E-01  1.01610066E+00  1.05867343E+00  1.07428118E+00
  1.38720233E+00  1.40759637E+00  1.47511376E+00  1.49791954E+00  1.52144364E+00
  1.54162044E+00  1.54635095E+00  1.59237460E+00  1.63341199E+00  1.64454446E+00
  1.64990143E+00  1.70232281E+00  1.73698861E+00  1.79675610E+00  1.81176605E+00
  1.83322021E+00  1.84799286E+00  1.88470844E+00  1.97143471E+00  2.10561132E+00
  2.17985169E+00  2.18789634E+00  2.21279959E+00  2.28536504E+00  2.35789469E+00
  2.38427956E+00  2.45128617E+00  2.52261296E+00  2.58906228E+00  2.63709778E+00
  2.74415586E+00  2.83969280E+00  2.86146173E+00  3.00256807E+00  3.01258251E+00
  3.02290172E+00  3.15967716E+00  3.21415049E+00  3.26644671E+00  3.31612176E+00
  3.39740242E+00  3.50368742E+00  3.51584432E+00  3.68424953E+00  3.73771561E+00
  3.92608445E+00  4.16619465E+00  4.45079212E+00  5.23992644E+00  5.24044669E+00
  5.30922878E+00  5.33085571E+00  5.45479808E+00  5.56031281E+00  5.60412522E+00
  6.37158746E+00  6.39096303E+00  6.71462987E+00  6.77611638E+00  6.94566906E+00
  8.86204680E+00  9.18175642E+00  9.54960240E+00  2.07839008E+01  2.19980354E+01
  4.34833368E+01
Beta Orbital Energies                      R   N=         111
 -8.91339963E+01 -1.92476653E+01 -1.03379661E+01 -8.15549949E+00 -6.10229757E+00
 -6.10217262E+00 -6.09783294E+00 -1.13977300E+00 -8.97758471E-01 -6.96441605E-01
 -5.76804681E-01 -5.47418995E-01 -5.05750565E-01 -4.73397518E-01 -3.68200100E-01
 -3.52453419E-01 -1.74687232E-02  9.09207625E-02  1.34184643E-01  1.64566080E-01
  1.84002893E-01  2.19779719E-01  2.81249950E-01  2.81767386E-01  3.45867324E-01
  3.66566232E-01  3.76524809E-01  3.99544779E-01  4.38573349E-01  4.68433223E-01
  4.82291221E-01  4.93933840E-01  5.31089495E-01  6.07483332E-01  6.07737670E-01
  6.50062116E-01  6.98082636E-01  7.15942681E-01  7.59710161E-01  8.47477101E-01
  9.08657862E-01  9.91888421E-01  1.01610066E+00  1.05867343E+00  1.07428118E+00
  1.38720233E+00  1.40759637E+00  1.47511376E+00  1.49791954E+00  1.52144364E+00
  1.54162044E+00  1.54635095E+00  1.59237460E+00  1.63341199E+00  1.64454446E+00
  1.64990143E+00  1.70232281E+00  1.73698861E+00  1.79675610E+00  1.81176605E+00
  1.83322021E+00  1.84799286E+00  1.88470844E+00  1.97143471E+00  2.10561132E+00
  2.17985169E+00  2.18789634E+00  2.21279959E+00  2.28536504E+00  2.35789469E+00
  2.38427956E+00  2.45128617E+00  2.52261296E+00  2.58906228E+00  2.63709778E+00
  2.74415586E+00  2.83969280E+00  2.86146173E+00  3.00256807E+00  3.01258251E+00
  3.02290172E+00  3.15967716E+00  3.21415049E+00  3.26644671E+00  3.31612176E+00
  3.39740242E+00  3.50368742E+00  3.51584432E+00  3.68424953E+00  3.73771561E+00
  3.92608445E+00  4.16619465E+00  4.45079212E+00  5.23992644E+00  5.24044669E+00
  5.30922878E+00  5.33085571E+00  5.45479808E+00  5.56031281E+00  5.60412522E+00
  6.37158746E+00  6.39096303E+00  6.71462987E+00  6.77611638E+00  6.94566906E+00
  8.86204680E+00  9.18175642E+00  9.54960240E+00  2.07839008E+01  2.19980354E+01
  4.34833368E+01
Alpha MO coefficients                      R   N=       12321
  2.16424880E-06 -1.63583663E-05  1.17649661E-03 -4.46183008E-03 -4.62660248E-05
  2.94540544E-04 -6.89022527E-06 -1.20138208E-05 -3.69956169E-03  1.89824062E-05
  3.26365972E-05 -3.28385789E-04 -7.72643396E-05 -1.35261023E-04  6.01343386E-05
 -1.38640788E-06 -1.41580420E-05 -1.20827132E-04 -7.70991229E-07  9.81397748E-04
 -8.01637813E-06  1.58842574E-04 -1.51271686E-03 -4.31568778E-06 -1.06551607E-05
  2.96484960E-04  8.28281021E-06  1.40045349E-05 -1.79922301E-05 -4.00048663E-04
  1.26336213E-05  9.99252294E-01 -3.16556529E-02 -1.12427664E-02  4.55618499E-03
  3.34251252E-03 -3.00235223E-05 -6.09892884E-05 -1.06766000E-04 -6.79198870E-05
  7.21334842E-05  1.26271088E-04  4.93446857E-04  4.95465264E-05  8.68336707E-05
 -2.97948089E-03 -7.85293078E-04 -1.37540313E-03 -3.28892366E-04 -5.80438134E-05
 -1.01706854E-04 -1.22949084E-06 -1.64127304E-04  2.20642500E-04  2.62382447E-04
 -9.37960056E-05 -3.89661767E-04 -6.24436714E-04  5.24464118E-04  1.29356192E-03
 -3.56899032E-04 -6.51279482E-05  5.69586045E-04 -3.16074248E-04  7.70057465E-05
  2.97378962E-04 -4.48936309E-04 -2.20682028E-05  2.04474069E-05 -7.74055145E-05
  7.01780197E-04 -1.45916466E-03 -1.28625613E-03 -9.97707878E-05  1.11577207E-04
  1.95340563E-04  5.58041569E-04 -6.55737640E-04 -1.14802033E-03  1.60671907E-04
 -2.69935681E-04 -4.72579311E-04  4.71882679E-05 -5.28300058E-05  7.05025937E-05
  1.42809726E-06 -3.01785886E-05 -3.64546582E-04  4.27578029E-04 -5.22474222E-04
  1.51324807E-05  2.44236915E-04 -1.03650158E-05  1.16957276E-04 -1.17337783E-04
  1.06808326E-05  1.22153351E-04 -3.33469021E-05 -2.15709060E-05 -2.50032520E-05
 -2.73465935E-04  5.05819981E-05 -6.01464891E-05  2.33273219E-06  4.07806108E-06
 -6.26456517E-07 -2.37733385E-04 -1.71479350E-04 -9.11551517E-05  1.53790180E-05
  2.68756150E-05  5.07656643E-08  4.44563945E-06 -6.57405791E-05  1.10558594E-03
 -9.75388824E-04 -1.34326820E-04 -2.84295282E-05 -4.98005310E-05  2.54807829E-03
 -3.26193389E-06 -5.27987662E-06 -1.52714641E-03 -5.33523549E-04 -9.33931670E-04
 -1.11018699E-05 -8.03415393E-05  5.38205672E-05  8.27382536E-05 -4.59198534E-05
 -7.71950077E-04  2.25646141E-04 -7.70716539E-04  4.28530962E-04  1.28892867E-04
 -4.52539207E-05  4.48072558E-05  2.43227441E-06  5.87712522E-05  9.70405249E-05
  3.54966114E-05  4.43598736E-05  9.98212496E-05 -2.37938680E-04 -7.14466652E-04
  6.94348371E-04 -7.82535550E-04 -1.77633115E-05 -4.95641947E-06 -8.68413980E-06
  6.16033825E-05  6.80345416E-05  1.19138141E-04 -5.48044534E-04  8.65985358E-05
  1.51507728E-04  3.25231597E-03 -1.65264513E-03 -2.89298295E-03 -1.40646448E-03
  1.05702400E-03  1.85033788E-03  4.03614429E-04 -4.16144043E-04  5.17872696E-04
 -8.81963118E-05 -2.37681865E-04  1.30109773E-03 -8.81570521E-04  1.18802098E-03
 -8.52342413E-04 -5.03429847E-04 -5.54190920E-05  2.78294755E-04 -6.20384984E-04
  5.72626402E-05  4.42258178E-04  6.66681752E-05 -1.13513160E-04  4.35340137E-01
  6.39788818E-01  3.32706192E-02 -2.16245751E-02  8.70866187E-03 -8.75870640E-04
  9.09332480E-04  1.59209968E-03  1.68927341E-03 -1.82529571E-03 -3.19570871E-03
 -6.73946838E-04  7.97559569E-04  1.39638355E-03  1.31399627E-04 -1.66640186E-04
  1.64767496E-04 -3.32287153E-05 -9.51727243E-05 -5.35998299E-04  6.77257599E-04
 -7.13920641E-04  8.62486779E-05  3.86821027E-04 -1.55421689E-05  1.22339641E-04
 -1.46020127E-04  1.67152679E-05  1.29276745E-04 -3.34305943E-05 -2.42914936E-05
  8.91367024E-05  1.29437992E-03 -2.18068500E-04  7.98339796E-05 -1.05846316E-04
 -1.85092884E-04  7.75943675E-05  9.67235341E-04 -1.36519296E-03  2.82341590E-04
  6.95274794E-05  1.21605511E-04  4.67179250E-01  6.08880861E-01  3.36301022E-02
 -1.61434320E-02  8.77993886E-03  6.15550116E-04  1.98215538E-05  3.47066275E-05
 -3.46400438E-03  2.02797732E-04  3.54387455E-04 -1.17271192E-03  1.01603453E-04
  1.77646866E-04  1.22177925E-04  3.68279200E-05  7.93574787E-04  7.23469353E-04
  2.08714987E-05  1.37745981E-03  2.46158838E-04  1.31717972E-03 -8.33840537E-04
  1.40703209E-04  1.33289211E-04 -8.61579318E-04  1.31587813E-04 -1.70018286E-04
 -9.34549315E-04  2.13126940E-04 -9.35181423E-05 -2.25376380E-05  2.44799620E-05
  5.66889884E-05  8.44185794E-04  1.83319777E-03  4.40736932E-05  6.85475957E-06
  1.20079427E-05 -1.08567550E-04 -2.42976151E-05 -4.25550141E-05 -1.44971555E-04
  6.60183602E-05  1.15558673E-04 -1.14486287E-03 -1.05341346E-04 -1.84591980E-04
 -6.74743122E-04 -3.72283620E-04 -6.51993303E-04  3.19085296E-05 -1.94042737E-05
 -1.09881202E-04 -1.84899101E-04 -1.10466549E-05  2.24050634E-04  3.00737156E-04
  2.65029911E-04 -7.52451105E-05  1.71776351E-04 -6.10745991E-05 -6.99758717E-04
 -6.96590828E-05  7.74979321E-05 -1.21362768E-04  7.86504016E-04  4.00064010E-05
  7.84303588E-07  7.40654990E-06 -1.19439155E-04  6.10808691E-04 -1.42430696E-03
 -5.44000846E-05  3.57476713E-06  6.26116358E-06  2.36335101E-04  7.91713451E-05
  1.38643291E-04  5.64505316E-04 -1.01830111E-04 -1.78101878E-04 -2.57289316E-05
 -3.44655275E-05 -1.02810891E-05  3.24217136E-05 -1.96909851E-05  1.98838871E-04
  1.38391998E-04  1.26237220E-04 -1.95416428E-04  7.90771270E-05  4.76097813E-05
 -2.18905433E-05  2.63800125E-05 -6.11013603E-05 -1.29572710E-05  1.57610545E-05
 -3.88829111E-05 -7.30565430E-04 -2.24146698E-03 -1.95456413E-03 -9.37279701E-04
  9.38155753E-04  1.64138510E-03 -7.13468179E-04 -2.10144834E-03 -1.93938752E-03
 -1.22279265E-03 -8.28188660E-04 -1.44936917E-03 -9.06128292E-05 -1.77212161E-04
  3.49287744E-03 -1.37101516E-02  2.89816394E-03  8.26507454E-04 -1.24385663E-05
 -2.16432073E-05 -1.14000654E-02  9.95327094E-06  1.56155763E-05  2.15963886E-04
 -1.90458378E-04 -3.33352557E-04  1.71485968E-04  8.73440496E-06 -4.77920711E-05
 -3.53288464E-04  5.05187715E-06  2.97222650E-03 -6.23006846E-05  5.88720684E-04
 -4.45458730E-03 -3.48205620E-05  6.74508251E-06  6.44376315E-04  3.19595975E-05
 -8.01863209E-06 -1.01243522E-04 -9.29235870E-04  2.32042143E-06 -2.87709890E-01
 -2.40377905E-01  8.06121064E-01  3.13744384E-02  3.17761050E-03 -2.08611809E-03
 -2.38034396E-03 -4.16643741E-03 -1.59061639E-03 -1.45996910E-03 -2.55496917E-03
  1.52224719E-03  4.46575953E-05  7.85381853E-05 -9.79810206E-03 -2.07922896E-03
 -3.64196953E-03  1.88325925E-04  9.20614032E-05  1.61129524E-04 -9.96951706E-05
 -7.12554250E-04  4.77800181E-04  7.35705676E-04 -4.07286421E-04 -1.44526087E-03
 -1.65469411E-03  1.37651334E-03  4.12722622E-03 -9.45791088E-04 -1.99488383E-04
  1.83371135E-03 -9.23680829E-04  2.36961331E-04  8.91585093E-04 -1.50869040E-03
 -5.55470117E-05 -5.24591195E-05 -2.35648045E-04  1.72979756E-03 -3.80052751E-03
 -2.46235053E-03 -2.57293643E-04  2.98413038E-04  5.22458737E-04  1.36545871E-03
 -1.62235194E-03 -2.84035300E-03  1.61770057E-04 -6.00171343E-04 -1.05065861E-03
  9.85247247E-05 -9.83387263E-05  1.48505657E-04  4.54067698E-06 -5.61731304E-05
 -8.34287801E-04  9.20428568E-04 -1.20757026E-03  2.05708729E-05  5.25755312E-04
 -1.25438932E-05  1.27490515E-04 -1.11606791E-04  1.36063896E-05  1.30886317E-04
 -3.85117586E-05 -1.79450466E-05 -1.39886882E-04 -9.77253724E-04 -2.26560993E-04
 -1.44191974E-04  2.80070714E-05  4.90203488E-05 -8.08001490E-05 -9.25254169E-04
 -6.22107046E-04 -2.82699755E-04  1.21116450E-05  2.10769173E-05  1.40179563E-04
  2.25705083E-04  7.26941942E-04 -9.55016872E-03 -2.31938710E-03 -3.19898898E-04
  2.89228780E-05  4.92364095E-05 -6.94951388E-03 -2.22021403E-04 -3.73629986E-04
 -1.35633814E-03  1.46333792E-04  2.46489267E-04  3.47611947E-05  6.52890395E-05
 -2.05055841E-05 -8.40037417E-05  3.73082974E-05  1.06432440E-03 -3.86505309E-04
  1.48136552E-04 -1.67091816E-03 -2.27844986E-04 -2.94757142E-05 -2.65199915E-04
 -6.03105294E-05  3.68909601E-05  7.18105226E-06  3.48959229E-04  1.15090037E-05
  7.39882921E-04  5.99321393E-04 -2.31480945E-03  2.57298250E-04  4.27880261E-03
  5.34473602E-01 -2.39570265E-01 -4.08532343E-01  2.55514311E-01 -1.14672530E-01
 -1.95528602E-01  5.72736830E-02 -2.51223053E-02 -4.28927108E-02 -1.65079668E-02
  5.36905652E-03  9.23004992E-03 -1.57257527E-03 -6.59122570E-05 -6.57273869E-05
  1.48285700E-03 -8.36866676E-04  1.20516191E-03 -1.16691332E-03 -4.74193919E-04
 -3.83588325E-03  1.15343459E-03 -1.97938299E-03  4.32054630E-03  6.51840726E-04
  2.66727329E-05  4.00012891E-04  2.50433445E-04 -2.94636590E-05 -1.40761680E-04
 -6.52745414E-04  4.40792675E-05 -1.60472983E-04 -3.61637322E-04  6.71918469E-04
  1.52440500E-03  4.98693248E-03 -1.88221583E-04  2.86040739E-04  5.01664186E-04
 -6.29916082E-04  6.42174241E-04  1.13125578E-03 -1.10156879E-03  1.17200848E-03
  2.05004637E-03  5.81290114E-05 -3.18499829E-05  9.81589318E-05  1.56451586E-05
 -1.82606601E-05 -1.47974277E-04  9.94164104E-05 -3.06871394E-04 -1.02647504E-04
  5.82024899E-05 -4.14690531E-05  2.38722760E-04 -3.11794333E-04  4.50720059E-05
  2.56874690E-04 -5.98127267E-05 -4.46422888E-05 -1.41869266E-04  2.08026938E-04
 -1.05635597E-05  3.56921199E-04  4.62071687E-05  8.10033687E-05 -1.43278450E-04
  1.31277332E-04  1.17580645E-04 -8.41799509E-05 -1.69731725E-05 -2.98196812E-05
  1.05836920E-06  1.69999642E-06  5.53776246E-06 -7.20444816E-05 -1.72211407E-05
 -2.41276466E-06 -7.61932904E-05  4.40096412E-05 -5.21130300E-05  9.14784355E-04
 -5.26197550E-04 -1.03573820E-05 -5.38283087E-04  3.09796864E-04 -1.68314101E-05
 -5.54915527E-07  1.14794438E-05 -1.04944654E-05  2.04695345E-06  1.03041713E-04
 -4.19255744E-04 -6.36501575E-05  4.24459535E-05  7.27676595E-04  2.05620362E-05
  1.61064854E-05 -1.65573446E-05 -3.03400195E-05 -1.34100155E-05  1.66262804E-05
  6.26469438E-05  5.15577014E-06  3.96598099E-06 -1.62849751E-05  1.80738367E-06
  3.21013723E-05  4.08875948E-03  6.18292844E-01 -3.57229596E-01  1.95464636E-03
  2.97015724E-01 -1.71598630E-01  4.37635042E-04  6.18198894E-02 -3.57377586E-02
 -1.25286475E-04 -9.55286963E-03  5.54840797E-03 -1.15095585E-05  2.85492658E-03
 -1.63122385E-03  8.29921097E-04  2.19067796E-04 -5.48633690E-04  4.64072497E-04
 -3.98032381E-04 -5.00745390E-04 -3.55749185E-04  3.06516427E-04 -2.39937952E-04
  6.43205741E-04 -3.13449184E-05  4.00851727E-05  6.24614584E-05  1.52987461E-04
 -2.88027237E-05  2.38217232E-05 -2.38121818E-04 -1.20765562E-06 -2.71352255E-06
  4.98034155E-06  1.15796967E-05  3.76637874E-05 -1.40377637E-06  5.08735229E-05
 -2.40901322E-05 -4.73019013E-06  4.09482285E-04 -2.22432022E-04 -8.32599780E-06
 -1.03500136E-04  7.96267938E-05 -2.08284113E-05 -4.13512126E-06  1.52010093E-05
 -1.21477348E-05  6.70974961E-06 -1.36173632E-04  8.13152437E-05  8.97967950E-05
 -7.88311396E-05 -1.40714612E-04  8.71153727E-05 -4.33606343E-05 -6.83146081E-06
  5.91421733E-05  3.55809799E-05 -3.54005671E-05  1.12452699E-05 -1.05815025E-06
  1.79045021E-06 -1.85748467E-07  2.59626335E-06  9.15315080E-06 -4.49068593E-06
 -1.08564671E-06  1.01626917E-06  7.09895862E-07 -5.11689491E-07 -9.73489030E-06
  5.23877897E-06  1.20020356E-04  1.15880232E-04  1.75975243E-03 -1.08792235E-02
 -4.16070535E-03  4.03307485E-05 -5.24779427E-05 -9.18837020E-05 -6.88491519E-03