0005_q000_m01_k00_opt_uwb97xd_def2svpd/0005_q000_m01_k00_force_uwb97xd_d
Force     UwB97XD                                                     Gen                 
Number of atoms                            I                5
Info1-9                                    I   N=           9
          13           9           0           0           0         100
           5          18       -5802
Full Title                                 C   N=           8
0005_q000_m01_k00_opt_uwb97xd_def2svpd/0005_q000_m01_k00_for
ce_uwb97xd_def2svpd stable-force    
Route                                      C   N=          15
#p uwb97xd/chkbasis force guess=read geom=check scf=(maxcycl
e=900,verytightlineq,xqc) integral=grid=ultrafine symmetry=N
one density=current pop=(cm5,hlygat,mbs,npa) output=wfx     
Charge                                     I                0
Multiplicity                               I                1
Number of electrons                        I               32
Number of alpha electrons                  I               16
Number of beta electrons                   I               16
Number of basis functions                  I               86
Number of independent functions            I               86
Number of point charges in /Mol/           I                0
Number of translation vectors              I                0
Atomic numbers                             I   N=           5
           6          16           8           1           1
Nuclear charges                            R   N=           5
  6.00000000E+00  1.60000000E+01  8.00000000E+00  1.00000000E+00  1.00000000E+00
Current cartesian coordinates              R   N=          15
  1.84630873E+00 -3.74093449E-02 -1.90536037E-01  4.89061526E+00 -6.53203910E-02
 -2.38935210E-01  5.99277468E+00 -1.34985333E+00 -2.48781287E+00  9.79013775E-01
  8.91172187E-01  1.43410851E+00  7.00713826E-01 -8.88557081E-01 -1.68005585E+00
Number of symbols in /Mol/                 I                0
Int Atom Types                             I   N=           5
           0           0           0           0           0
Force Field                                I                0
Atom Types                                 C   N=           5
                                                            
MM charges                                 R   N=           5
  0.00000000E+00  0.00000000E+00  0.00000000E+00  0.00000000E+00  0.00000000E+00
Integer atomic weights                     I   N=           5
          12          32          16           1           1
Real atomic weights                        R   N=           5
  1.20000000E+01  3.19720718E+01  1.59949146E+01  1.00782504E+00  1.00782504E+00
Atom fragment info                         I   N=           5
           0           0           0           0           0
Atom residue num                           I   N=           5
           0           0           0           0           0
Nuclear spins                              I   N=           5
           0           0           0           1           1
Nuclear ZEff                               R   N=           5
 -3.60000000E+00 -1.36000000E+01 -5.60000000E+00 -1.00000000E+00 -1.00000000E+00
Nuclear ZNuc                               R   N=           5
  6.00000000E+00  1.60000000E+01  8.00000000E+00  1.00000000E+00  1.00000000E+00
Nuclear QMom                               R   N=           5
  0.00000000E+00  0.00000000E+00  0.00000000E+00  0.00000000E+00  0.00000000E+00
Nuclear GFac                               R   N=           5
  0.00000000E+00  0.00000000E+00  0.00000000E+00  2.79284600E+00  2.79284600E+00
MicOpt                                     I   N=           5
          -1          -1          -1          -1          -1
Number of residues                         I                0
Number of secondary structures             I                0
Number of contracted shells                I               36
Number of primitive shells                 I               62
Pure/Cartesian d shells                    I                0
Pure/Cartesian f shells                    I                0
Highest angular momentum                   I                2
Largest degree of contraction              I                5
Shell types                                I   N=          36
           0           0           0           0           1           1
          -2          -2           0           0           0           0
           0           1           1           1           1          -2
          -2           0           0           0           0           1
           1           1          -2          -2           0           0
           1           1           0           0           1           1
Number of primitives per shell             I   N=          36
           5           1           1           1           3           1
           1           1           5           3           1           1
           1           5           1           1           1           1
           1           5           1           1           1           3
           1           1           1           1           3           1
           1           1           3           1           1           1
Shell to atom map                          I   N=          36
           1           1           1           1           1           1
           1           1           2           2           2           2
           2           2           2           2           2           2
           2           3           3           3           3           3
           3           3           3           3           4           4
           4           4           5           5           5           5
Primitive exponents                        R   N=          62
  1.23840169E+03  1.86290050E+02  4.22511763E+01  1.16765579E+01  3.59305065E+00
  4.02451474E-01  1.30901827E-01  6.70535403E-02  9.46809706E+00  2.01035451E+00
  5.47710047E-01  1.52686138E-01  8.00000000E-01  1.17131851E-01  9.18493030E+03
  1.38151055E+03  3.13871476E+02  8.80538706E+01  2.70399149E+01  4.56487313E+01
  4.96645223E+00  2.01162420E+00  3.56610770E-01  1.35072215E-01  4.49998235E-02
  2.61982334E+02  6.13068947E+01  1.91037299E+01  6.65677204E+00  2.39596352E+00
  6.17761617E-01  1.69933769E-01  4.17067937E-02  5.50000000E-01  1.01728537E-01
  2.26617678E+03  3.40870102E+02  7.73631352E+01  2.14796449E+01  6.65894331E+00
  8.09759757E-01  2.55307722E-01  7.65724533E-02  1.77215043E+01  3.86355054E+00
  1.04809209E+00  2.76415444E-01  6.90022764E-02  1.20000000E+00  1.79920243E-01
  1.30107010E+01  1.96225720E+00  4.44537960E-01  1.21949620E-01  8.00000000E-01
  1.17040991E-01  1.30107010E+01  1.96225720E+00  4.44537960E-01  1.21949620E-01
  8.00000000E-01  1.17040991E-01
Contraction coefficients                   R   N=          62
  5.51736505E-03  4.10888286E-02  1.82253821E-01  4.68284594E-01  4.45758173E-01
  1.00000000E+00  1.00000000E+00  1.00000000E+00  5.68883320E-02  3.12940593E-01
  7.60650165E-01  1.00000000E+00  1.00000000E+00  1.00000000E+00 -5.47294661E-03
 -4.09544022E-02 -1.84758290E-01 -4.75672806E-01 -4.34951536E-01 -9.19040458E-02
  5.56987772E-01  5.11154683E-01  1.00000000E+00  1.00000000E+00  1.00000000E+00
 -9.18305466E-03 -6.59022265E-02 -2.45877845E-01 -4.82314711E-01 -3.89563144E-01
  1.00000000E+00  1.00000000E+00  1.00000000E+00  1.00000000E+00  1.00000000E+00
 -5.38935039E-03 -4.02347214E-02 -1.80081842E-01 -4.68288577E-01 -4.46926172E-01
  1.00000000E+00  1.00000000E+00  1.00000000E+00  6.26302488E-02  3.33311385E-01
  7.41486383E-01  1.00000000E+00  1.00000000E+00  1.00000000E+00  1.00000000E+00
  3.34854848E-02  2.34721871E-01  8.13770285E-01  1.00000000E+00  1.00000000E+00
  1.00000000E+00  3.34854848E-02  2.34721871E-01  8.13770285E-01  1.00000000E+00
  1.00000000E+00  1.00000000E+00
Coordinates of each shell                  R   N=         108
  1.84630873E+00 -3.74093449E-02 -1.90536037E-01  1.84630873E+00 -3.74093449E-02
 -1.90536037E-01  1.84630873E+00 -3.74093449E-02 -1.90536037E-01  1.84630873E+00
 -3.74093449E-02 -1.90536037E-01  1.84630873E+00 -3.74093449E-02 -1.90536037E-01
  1.84630873E+00 -3.74093449E-02 -1.90536037E-01  1.84630873E+00 -3.74093449E-02
 -1.90536037E-01  1.84630873E+00 -3.74093449E-02 -1.90536037E-01  4.89061526E+00
 -6.53203910E-02 -2.38935210E-01  4.89061526E+00 -6.53203910E-02 -2.38935210E-01
  4.89061526E+00 -6.53203910E-02 -2.38935210E-01  4.89061526E+00 -6.53203910E-02
 -2.38935210E-01  4.89061526E+00 -6.53203910E-02 -2.38935210E-01  4.89061526E+00
 -6.53203910E-02 -2.38935210E-01  4.89061526E+00 -6.53203910E-02 -2.38935210E-01
  4.89061526E+00 -6.53203910E-02 -2.38935210E-01  4.89061526E+00 -6.53203910E-02
 -2.38935210E-01  4.89061526E+00 -6.53203910E-02 -2.38935210E-01  4.89061526E+00
 -6.53203910E-02 -2.38935210E-01  5.99277468E+00 -1.34985333E+00 -2.48781287E+00
  5.99277468E+00 -1.34985333E+00 -2.48781287E+00  5.99277468E+00 -1.34985333E+00
 -2.48781287E+00  5.99277468E+00 -1.34985333E+00 -2.48781287E+00  5.99277468E+00
 -1.34985333E+00 -2.48781287E+00  5.99277468E+00 -1.34985333E+00 -2.48781287E+00
  5.99277468E+00 -1.34985333E+00 -2.48781287E+00  5.99277468E+00 -1.34985333E+00
 -2.48781287E+00  5.99277468E+00 -1.34985333E+00 -2.48781287E+00  9.79013775E-01
  8.91172187E-01  1.43410851E+00  9.79013775E-01  8.91172187E-01  1.43410851E+00
  9.79013775E-01  8.91172187E-01  1.43410851E+00  9.79013775E-01  8.91172187E-01
  1.43410851E+00  7.00713826E-01 -8.88557081E-01 -1.68005585E+00  7.00713826E-01
 -8.88557081E-01 -1.68005585E+00  7.00713826E-01 -8.88557081E-01 -1.68005585E+00
  7.00713826E-01 -8.88557081E-01 -1.68005585E+00
Num ILSW                                   I              100
ILSW                                       I   N=         100
           1           0           0           0           2           0
           0           0           0           0        4639          -1
           5           0           0           0           2           0
           0           0           0           0           1           0
           1           1           0           0           0           0
           0           0      100000           0          -1           0
           0           0           0           0           0           0
           0           0           0           1           0           0
           0 -2000000000           1           0           0           0
           0           0         121          52           0           0
           0           0          58           0           0           0
           0           0           0           5           0           1
           0           0           0           0           0           0
           0           0           0           0           0           0
           0           0           0           0           0           0
           0           0           0           0           0           0
           0           0           0           0
Num RLSW                                   I               52
RLSW                                       R   N=          52
  1.00000000E+00  1.00000000E+00  1.00000000E+00  1.00000000E+00  1.00000000E+00
  0.00000000E+00  2.00000000E-01  2.22036000E-01  0.00000000E+00  7.77964000E-01
  0.00000000E+00  2.00000000E-01  0.00000000E+00  0.00000000E+00  1.00000000E+00
  0.00000000E+00  0.00000000E+00  1.00000000E+00  0.00000000E+00  0.00000000E+00
  0.00000000E+00  0.00000000E+00  1.00000000E+00  0.00000000E+00  0.00000000E+00
  0.00000000E+00  0.00000000E+00  1.00000000E+00  0.00000000E+00  0.00000000E+00
  0.00000000E+00  0.00000000E+00  1.00000000E+00  0.00000000E+00  0.00000000E+00
  0.00000000E+00  0.00000000E+00  0.00000000E+00  1.00000000E+00  1.00000000E+00
  0.00000000E+00  1.00000000E+00  0.00000000E+00  0.00000000E+00  0.00000000E+00
  0.00000000E+00  0.00000000E+00  0.00000000E+00  0.00000000E+00  0.00000000E+00
  0.00000000E+00  0.00000000E+00
MxBond                                     I                3
NBond                                      I   N=           5
           3           2           1           1           1
IBond                                      I   N=          15
           2           4           5           1           3           0
           2           0           0           1           0           0
           1           0           0
RBond                                      R   N=          15
  2.00000000E+00  1.00000000E+00  1.00000000E+00  2.00000000E+00  2.00000000E+00
  0.00000000E+00  2.00000000E+00  0.00000000E+00  0.00000000E+00  1.00000000E+00
  0.00000000E+00  0.00000000E+00  1.00000000E+00  0.00000000E+00  0.00000000E+00
Virial Ratio                               R      2.004096380902864E+00
SCF Energy                                 R     -5.124133438155869E+02
Total Energy                               R     -5.124133438155869E+02
S**2                                       R     -2.131628207280301E-14
S**2 after annihilation                    R      1.765698698363802E-12
RMS Force                                  R      5.673475393690700E-06
RMS Density                                R      4.883109132478046E-10
Job Status                                 I                1
Nuclear derivative order                   I                1
External E-field                           R   N=          35
  0.00000000E+00  0.00000000E+00  0.00000000E+00  0.00000000E+00  0.00000000E+00
  0.00000000E+00  0.00000000E+00  0.00000000E+00  0.00000000E+00  0.00000000E+00
  0.00000000E+00  0.00000000E+00  0.00000000E+00  0.00000000E+00  0.00000000E+00
  0.00000000E+00  0.00000000E+00  0.00000000E+00  0.00000000E+00  0.00000000E+00
  0.00000000E+00  0.00000000E+00  0.00000000E+00  0.00000000E+00  0.00000000E+00
  0.00000000E+00  0.00000000E+00  0.00000000E+00  0.00000000E+00  0.00000000E+00
  0.00000000E+00  0.00000000E+00  0.00000000E+00  0.00000000E+00  0.00000000E+00
IOpCl                                      I                1
IROHF                                      I                0
Alpha Orbital Energies                     R   N=          86
 -8.91467825E+01 -1.92643033E+01 -1.03583348E+01 -8.18288638E+00 -6.13645905E+00
 -6.13437136E+00 -6.13068948E+00 -1.14348074E+00 -9.02028195E-01 -6.97816063E-01
 -5.83463206E-01 -5.55133884E-01 -5.13996268E-01 -4.79856678E-01 -3.72023652E-01
 -3.57385941E-01 -2.38919861E-02  7.39005316E-02  7.65983765E-02  9.10941384E-02
  1.08715123E-01  1.20479700E-01  1.42256145E-01  1.77437778E-01  1.97610201E-01
  2.22663861E-01  2.23677484E-01  2.32927967E-01  2.57956887E-01  2.70854718E-01
  2.89373770E-01  2.96417072E-01  3.03201114E-01  3.20855010E-01  3.61464697E-01
  3.67708651E-01  3.88770172E-01  3.98780133E-01  4.12379266E-01  4.45893209E-01
  4.49992596E-01  4.53306777E-01  4.92424976E-01  5.09098413E-01  5.23539172E-01
  5.57972199E-01  6.36361373E-01  6.58853166E-01  6.64564457E-01  6.78255553E-01
  7.05014580E-01  8.12412778E-01  8.29496266E-01  8.51554431E-01  9.00019989E-01
  9.19455814E-01  9.66162440E-01  9.78842185E-01  1.01678147E+00  1.03794554E+00
  1.06750638E+00  1.10945428E+00  1.18613605E+00  1.22554259E+00  1.26958772E+00
  1.35995795E+00  1.41624521E+00  1.51130675E+00  1.51365196E+00  1.57397505E+00
  1.65771780E+00  1.76068443E+00  1.83948538E+00  1.87159228E+00  2.13592308E+00
  2.13973909E+00  2.16753427E+00  2.32517410E+00  2.53225589E+00  2.91877845E+00
  2.92355116E+00  2.93979916E+00  2.95118288E+00  3.02534636E+00  3.07426815E+00
  3.45426773E+00
Beta Orbital Energies                      R   N=          86
 -8.91467825E+01 -1.92643033E+01 -1.03583348E+01 -8.18288638E+00 -6.13645905E+00
 -6.13437136E+00 -6.13068948E+00 -1.14348074E+00 -9.02028195E-01 -6.97816063E-01
 -5.83463206E-01 -5.55133884E-01 -5.13996268E-01 -4.79856678E-01 -3.72023652E-01
 -3.57385941E-01 -2.38919861E-02  7.39005316E-02  7.65983765E-02  9.10941384E-02
  1.08715123E-01  1.20479700E-01  1.42256145E-01  1.77437778E-01  1.97610201E-01
  2.22663861E-01  2.23677484E-01  2.32927967E-01  2.57956887E-01  2.70854718E-01
  2.89373770E-01  2.96417072E-01  3.03201114E-01  3.20855010E-01  3.61464697E-01
  3.67708651E-01  3.88770172E-01  3.98780133E-01  4.12379266E-01  4.45893209E-01
  4.49992596E-01  4.53306777E-01  4.92424976E-01  5.09098413E-01  5.23539172E-01
  5.57972199E-01  6.36361373E-01  6.58853166E-01  6.64564457E-01  6.78255553E-01
  7.05014580E-01  8.12412778E-01  8.29496266E-01  8.51554431E-01  9.00019989E-01
  9.19455814E-01  9.66162440E-01  9.78842185E-01  1.01678147E+00  1.03794554E+00
  1.06750638E+00  1.10945428E+00  1.18613605E+00  1.22554259E+00  1.26958772E+00
  1.35995795E+00  1.41624521E+00  1.51130675E+00  1.51365196E+00  1.57397505E+00
  1.65771780E+00  1.76068443E+00  1.83948538E+00  1.87159228E+00  2.13592308E+00
  2.13973909E+00  2.16753427E+00  2.32517410E+00  2.53225589E+00  2.91877845E+00
  2.92355116E+00  2.93979916E+00  2.95118288E+00  3.02534636E+00  3.07426815E+00
  3.45426773E+00
Alpha MO coefficients                      R   N=        7396
  1.04407289E-04 -6.68228308E-04  1.01170829E-02  8.04442268E-03 -2.52666713E-04
  6.12481885E-05  1.07035848E-04  6.15994378E-04 -2.25925691E-03 -3.95244575E-03
  3.56969952E-04  6.14819131E-05  7.82702172E-05 -5.26054531E-04  3.52555392E-05
  3.54223695E-04  6.28351717E-03  1.18610839E-03  7.85568549E-04  3.59010612E-03
  9.94180861E-01 -2.24107033E-02  1.49849167E-02 -1.36390867E-02 -5.84517015E-03
 -8.01120070E-05 -9.29015190E-05 -1.62697091E-04 -2.41158840E-04 -2.94652463E-04
 -5.16186864E-04  3.64966785E-03 -2.41491331E-03 -4.22635797E-03  3.82482773E-04
  2.82982139E-04  4.95799400E-04  3.61791380E-04 -4.73418953E-04  5.76654656E-04
  5.35825625E-05 -2.70415165E-04  2.93075713E-04  3.73919607E-03 -1.13531601E-03
 -1.84571710E-03  2.13644728E-03  1.52857233E-05  8.36075653E-04 -2.42467688E-03
  5.77255529E-03 -6.73602765E-05  1.37154801E-05  2.39831693E-05  1.38734312E-03
 -1.31098309E-03 -2.29506955E-03  7.13918375E-04  5.25111911E-04  9.19815295E-04
 -3.50576778E-04  3.83456970E-04 -4.94710281E-04  2.36498175E-05  2.19035985E-04
 -1.00349623E-03  1.19022169E-03 -1.13669569E-03  3.97466393E-04  6.79728433E-04
 -4.14783144E-05  8.38284115E-03 -1.48468157E-04 -4.16703335E-05 -7.29839602E-05
 -6.23140269E-04 -1.40262865E-03 -2.45385037E-03 -5.48082735E-04 -1.79511521E-02
 -1.41609743E-04 -4.78457088E-05 -8.37829113E-05 -4.91185313E-04 -1.68852040E-03
 -2.95398359E-03 -1.68203337E-05 -5.39513821E-04  3.39092571E-04  1.51994241E-03
  1.30091916E-04  4.36502871E-06  7.62736592E-06  4.82157021E-03 -2.26609811E-03
 -3.96548734E-03 -9.98563779E-05 -2.21148975E-04  2.35803892E-06  1.75668399E-04
 -1.26289834E-04 -3.88242689E-03 -1.70212512E-03 -1.17654708E-03  5.34009468E-03
 -9.73836044E-04 -1.12464965E-05  3.20400948E-06  6.13409808E-04 -2.54269702E-02
  3.44730847E-03  3.49851632E-05 -6.71639104E-05 -1.17576007E-04 -4.43407800E-04
  1.84588203E-04  3.23232925E-04  5.39107604E-04  5.97127303E-03  1.04538954E-02
 -4.87921884E-04 -7.85432346E-04 -1.37533546E-03 -1.93830637E-04  2.48616258E-04
 -6.04333971E-04 -3.77214474E-04  1.42046756E-04 -2.70955990E-03  2.99146889E-03
 -3.86537672E-03  1.33974419E-04  1.70866232E-03  9.88761923E-01 -4.31028084E-02
  3.80535069E-02 -7.53834988E-03  8.99958506E-04 -9.99665825E-04 -1.75028447E-03
 -3.57783447E-03  3.90358839E-03  6.83448083E-03  1.83819199E-03 -4.63088592E-04
 -8.10428403E-04  1.01329187E-04 -2.16030357E-04  2.11519641E-04  7.39681310E-05
 -1.23401699E-04  9.66634495E-04 -7.79862054E-04  8.40436922E-04 -6.82659284E-04
 -4.45308802E-04  2.48458994E-04  8.53464546E-03  9.25310566E-06 -4.24457993E-05
 -7.43827251E-05  5.89875246E-03  2.02651199E-04  3.56052221E-04 -2.73769850E-04
  8.05425839E-04 -1.22987448E-04  4.44301947E-05  7.78484982E-05  2.80943944E-03
 -1.09655782E-03 -1.91726188E-03  9.87970888E-01  5.60352344E-02 -1.20955841E-01
 -1.24822208E-02 -8.80109948E-04  8.83170945E-05  1.54289897E-04  1.15117387E-02
 -6.12661036E-04 -1.07011779E-03  5.09249659E-04  1.46453886E-04  1.56363136E-03
  9.60420114E-04  8.34444500E-05 -4.68817736E-03 -4.45404315E-04 -8.51931577E-03
 -1.91999654E-03 -2.54016748E-04  7.67775582E-05  6.31622411E-04 -2.12002934E-03
  1.28750354E-02 -1.55087093E-03  3.58693139E-04 -3.64882556E-06 -6.33184563E-06
  1.35932761E-03  4.00714134E-05  7.03851871E-05 -2.22193722E-03 -3.34197272E-04
 -5.85828713E-04  2.17921879E-03  2.58523469E-05  4.53958794E-05  1.05438005E-03
 -1.62770526E-04  1.01935547E-04 -1.70597188E-03 -9.26642987E-05  9.65889032E-04
 -1.31509700E-03  8.63530262E-04 -6.54673451E-04 -7.50951192E-04 -1.52476906E-05
  1.15207140E-04 -2.50992090E-03  1.45843683E-03  3.03093493E-04 -6.49666845E-05
 -1.13717679E-04 -5.87593155E-04 -1.95380614E-04 -3.42031437E-04 -2.41488831E-03
  1.33605051E-04  2.34018638E-04 -2.89378309E-06  1.12920333E-04 -4.16469405E-05
 -4.41047589E-05  6.45038896E-05 -5.61622898E-04 -3.97530293E-04  2.17110932E-04
  1.22906018E-03 -2.27178808E-04 -2.47509225E-03  5.49817467E-02 -1.09103216E-03
  9.11967288E-04  1.59560834E-03  9.04851887E-03 -5.79977667E-03 -1.01453037E-02
 -2.49175552E-03  5.49634072E-02 -1.24300141E-03 -8.59106754E-04 -1.50356306E-03
  1.09514076E-02  5.22794111E-03  9.14920870E-03  6.30165293E-05 -1.69313450E-03
  2.04140454E-02  1.61829765E-02 -6.24516184E-04  1.34968373E-04  2.35834746E-04
  1.63344772E-03 -5.65637156E-03 -9.89556278E-03  4.29848108E-04  7.34552823E-05
 -2.68785008E-05 -7.76172082E-04  4.21860758E-05  7.09431183E-04  1.42033480E-02
  2.33873791E-03  1.53050967E-03  8.11504523E-03  3.06352542E-01  1.01988634E+00
  6.01259054E-02 -4.08386370E-02 -1.31731711E-02  3.78785922E-03  4.31698100E-03
  7.55606276E-03 -9.48215456E-04 -9.57789846E-04 -1.67724448E-03  6.90850224E-03
 -4.32394111E-03 -7.56710115E-03  3.18892574E-04  8.72465810E-04  1.52825162E-03
  5.68001905E-04 -1.07826287E-03  1.10665169E-03  3.21329356E-04 -6.16046181E-04
  4.34832976E-04  9.04463037E-03 -2.91903714E-03 -4.19383748E-03  5.16764049E-03
  1.30720272E-04  1.00777460E-03 -2.80521797E-03  1.66942529E-02 -9.19437029E-05
 -3.91151563E-05 -6.85404556E-05  2.45250765E-03 -2.12155489E-03 -3.71406727E-03
  1.32469241E-03  1.78122090E-03  3.11964907E-03 -3.86476864E-04  3.68480253E-04
 -5.48762058E-04  2.19952334E-05  2.10480402E-04 -2.04078836E-03  2.52389252E-03
 -2.28710037E-03  8.37299072E-04  1.44139153E-03  2.29067474E-04  2.23055997E-02
 -4.87838185E-05 -1.49699406E-04 -2.62055725E-04 -7.89409891E-04 -3.54991677E-03
 -6.21034303E-03 -1.02771147E-03 -4.01645657E-02 -3.57320079E-05 -7.40982553E-05
 -1.29745300E-04 -1.25983569E-03 -3.83748195E-03 -6.71332350E-03 -2.94190221E-05
 -8.61334415E-04  2.15064276E-02  1.06730161E-02 -7.66282183E-04  3.87869298E-05
  6.81232264E-05  3.82171971E-03 -1.22473125E-03 -2.14595338E-03  6.42017866E-04
 -1.13499831E-04  8.48056799E-05 -1.01206915E-03 -6.49957463E-05 -9.77170465E-04
  6.48932045E-03 -9.60152365E-05  1.57835795E-03  3.71153782E-03  1.03393592E-03
  3.64492951E-03  6.97381679E-05 -2.00323479E-02 -5.87146726E-03  7.19644471E-01
 -3.31583195E-01 -5.79179407E-01 -3.91524177E-02  1.81579167E-02  3.17212692E-02
  1.54421402E-02 -4.36286539E-03 -7.61516704E-03  3.47540595E-03 -7.18355759E-04
 -1.25691436E-03 -1.81616135E-03  1.30462486E-03 -1.77686050E-03  1.05075504E-03
  7.45065650E-04  3.11508128E-03  9.35877120E-04  1.26727926E-03 -3.90139062E-03
  5.38195797E-04 -3.28324709E-04 -1.23014721E-03  1.39011472E-03  3.84418998E-03
  9.95372588E-05 -4.88850869E-05 -8.55207153E-05 -2.68992995E-03  2.29536218E-03
  4.01750060E-03 -1.40818431E-03  1.49510047E-03  2.61601303E-03  5.19545507E-04
 -5.53586218E-04  6.59756438E-04 -1.21123693E-04 -3.16048603E-04  1.08506921E-03
 -2.37720712E-03  2.31458113E-03  8.49845288E-04 -1.35857892E-03 -6.32034654E-05
  4.47562639E-03 -4.26183894E-05  5.57888965E-06  1.00454616E-05 -1.84650648E-03
 -4.64596467E-04 -8.13977571E-04 -1.70567585E-04 -1.68065516E-02 -6.32403959E-05
 -1.00359883E-05 -1.74076408E-05  6.65919456E-04 -2.04023344E-03 -3.57369521E-03
 -2.98849723E-08 -4.80048209E-07  1.31611593E-05  6.18111963E-06 -4.60570618E-07
  3.09584020E-04 -1.77024328E-04  2.34781277E-06 -2.71140889E-03  1.55239472E-03
  5.56012538E-06 -2.28775796E-04 -3.43846781E-06  2.41282617E-06  4.00282130E-04
  1.82584802E-05  2.28068777E-03 -1.24410876E-05  1.04145207E-05 -3.99591797E-03
  1.45785278E-07  5.80173153E-07 -2.48561936E-07 -1.11085283E-05 -1.68905121E-06
  5.48868756E-04  8.52896674E-01 -4.87604079E-01 -2.93710550E-05 -4.30087144E-02
  2.45895776E-02  1.09037107E-05  1.28167256E-02 -7.32284317E-03  2.54013906E-06
 -5.65447416E-05  3.14839636E-05 -3.37447187E-04 -5.83168521E-05  2.27865357E-04
 -1.93589777E-04  1.03970644E-04  8.52920373E-04  1.60984382E-03 -5.78883721E-04
  4.88443013E-04 -2.82116317E-03 -2.14078075E-07 -8.01988870E-07  1.44100709E-06
 -6.82061329E-07  3.74109745E-08  4.59148144E-05 -2.63004052E-05 -1.74965992E-06
 -7.41691032E-04  4.27124037E-04 -7.94334830E-07 -1.18272486E-03  6.76738339E-04
 -2.49803509E-04  8.43880810E-05  1.70716734E-04 -1.44491675E-04 -1.48477275E-04
  5.11215187E-04 -3.36862592E-04 -3.46058236E-04  2.95177840E-04  5.86216311E-04
 -2.30668654E-07 -9.27192853E-06  1.28511265E-08  1.80261053E-04 -1.02934734E-04
 -1.22321345E-07 -1.31955357E-03  7.57103333E-04  1.38606382E-07  1.79677341E-06
 -3.27463634E-08  1.75507404E-04 -1.00264051E-04 -1.91997376E-07 -1.80401063E-03
  1.03153722E-03 -5.60944576E-05 -7.15768066E-04  1.63860461E-02  1.21345620E-02
 -6.17860627E-04 -1.06958058E-04 -1.86950761E-04  5.62216223E-03  3.31544155E-03
  5.79937648E-03  4.24268018E-04  2.24930093E-04  8.16820756E-05 -6.38556075E-04
  1.28530047E-04  2.57323512E-05 -1.34830801E-02  7.30408386E-04  8.12804827E-04
 -7.70441376E-03 -2.98833637E-03 -1.06528985E-02  3.51291463E-03 -1.02549276E-02
 -3.54454251E-03  6.67827901E-01  3.57047734E-01  6.25284928E-01 -3.47827255E-02
 -1.87435431E-02 -3.28241055E-02  1.62462606E-02  8.54954142E-03  1.49688740E-02
  5.68620238E-03  4.56576148E-04  7.99225489E-04  1.03697857E-04  1.10666033E-04
  4.58894083E-04  3.61676805E-04  6.30473822E-05  5.06341396E-04 -6.97372126E-03
 -8.76937094E-04 -1.91242460E-03 -3.98336921E-03  1.33316914E-04  1.45421487E-04
  1.85335525E-03 -7.21696200E-03  6.02234812E-06  2.50885027E-05  4.39218977E-05
 -1.17595780E-03 -4.08239632E-04 -7.14807652E-04 -1.95166483E-03 -1.61593732E-03
 -2.82974544E-03 -1.63048444E-05  2.95157184E-04 -9.09185172E-05 -7.89096384E-05
  1.68612558E-04 -6.32347333E-04 -1.99412694E-04 -9.16039635E-04  1.44933127E-05
 -1.13934905E-04 -3.05048815E-04 -2.97305777E-02 -7.23752771E-05  6.48093366E-05
  1.13546751E-04  2.65295137E-03  3.90500649E-03  6.83273286E-03  2.89486021E-04
  2.08241656E-02 -1.55369603E-04  5.99473657E-05  1.04988828E-04 -4.94586729E-04
  2.26694733E-03  3.96555935E-03 -3.63928755E-02  7.00579933E-02  2.56228712E-02
 -4.35900174E-03  4.14787556E-02 -3.37525437E-03 -5.90428599E-03  3.16205544E-02
 -1.71470673E-02 -2.99953084E-02 -3.82151931E-03 -2.69142565E-03 -4.10538197E-04
  6.13477572E-03 -1.53809834E-03 -2.01170269E-02  3.00661559E-02 -1.43770705E-02
  1.79024490E-02  1.71773135E-02 -4.55894161E-02 -2.80299624E-01  4.06969287E-01
 -2.41720076E-02 -2.14862867E-02  1.94844626E-02 -4.01232875E-02 -7.02476413E-02
  2.98308609E-02 -6.36434857E-02 -1.11428449E-01  3.34889314E-02 -2.66671452E-02
 -4.66788735E-02 -1.72507651E-03  7.27496914E-04  1.27624762E-03  2.34481066E-02
 -2.89932885E-02  3.46461264E-02  2.55357610E-04 -1.65603841E-02  4.36528950E-03
  1.90668724E-02 -2.04624077E-03 -9.97146224E-03  1.08941942E-02  2.35687779E-01
  4.69090786E-01  2.76158516E-01  5.22703118E-02 -6.33575187E-02  6.89480469E-02
  1.20710065E-01 -2.87005853E-02  3.01620459E-02  5.28066701E-02 -6.18544050E-06
  6.48601766E-03  1.13576997E-02  7.59787191E-03 -1.03059295E-02  1.02387626E-02
 -1.08262893E-03 -5.88617055E-03  2.31926269E-03 -5.39899261E-03  5.70132250E-03
  2.70981260E-03 -3.08378371E-03  1.23742678E-02  1.10426617E-01  2.29636358E-03
 -1.08536494E-03 -1.89869049E-03  1.26011222E-02 -9.06921850E-03 -1.58583971E-02
  1.22889524E-02 -5.55903395E-02  2.02434061E-03  8.31720475E-04  1.45518377E-03
  9.00311778E-03 -1.30311991E-02 -2.28030146E-02 -1.99423519E-01  4.02712972E-01
 -3.54484456E-02 -3.93459423E-02  1.13919171E-01  6.32836793E-03  1.10925886E-02
  1.59181388E-02 -4.14267275E-04 -7.19935569E-04 -6.09625629E-03  1.71865266E-03
  1.65433205E-03  1.25080487E-02  9.79254142E-04 -1.60433022E-02 -9.13159915E-05
 -1.78710074E-02  6.73467011E-03 -5.41551902E-05 -4.11087005E-02 -2.57204005E-01
  3.71194308E-01  1.70988598E-01  1.85022503E-02 -1.03574372E-01  2.32831659E-02
  4.07507327E-02 -1.66819162E-01  3.69145205E-02  6.46091551E-02 -1.36180868E-01
  2.56230020E-02  4.48416830E-02 -1.36651996E-02  3.37727149E-03  5.91242326E-03
 -3.13217447E-02  1.22403996E-02 -1.58418940E-02  3.55633541E-02  6.98569585E-03
 -1.54152893E-02  3.00251102E-03 -3.47454242E-03  2.25932704E-02  1.70914988E-03
 -1.20199834E-01 -2.47352577E-01 -1.72688469E-01 -3.65016467E-04 -1.24303101E-02
 -6.94806040E-03 -1.21661075E-02 -1.85621142E-03 -6.64744282E-03 -1.16401232E-02
 -4.04320171E-03 -6.37412744E-04 -1.12007537E-03 -2.13701530E-03 -4.95501317E-04
 -1.62448697E-03  1.78466674E-03 -2.83410844E-04 -3.57834479E-03  2.61586841E-03
 -5.36234066E-03 -1.29134039E-04  1.49528500E-03  1.17870186E-01  7.21448681E-02
  7.40609083E-03 -6.27097968E-03 -1.09712691E-02  1.33110656E-02 -3.86661545E-03
 -6.76360281E-03  1.00032050E-01  6.23230823E-02  8.32477232E-03  5.09556169E-03
  8.91771940E-03  1.40974290E-02  2.49163352E-03  4.36623157E-03  1.52578693E-01
 -3.15039129E-01 -9.56561058E-02  9.35235262E-03  2.09649536E-01  9.14268532E-03
  1.60400982E-02  2.50718505E-02  1.66780374E-03  2.92169612E-03 -6.92665337E-03
  3.41237289E-04 -6.71930335E-03  4.07952376E-03  1.94808072E-04  3.58741621E-02
  3.67934836E-03  2.76068423E-02 -2.96088395E-02  2.10815640E-03 -4.88959818E-02