0005_q000_m01_k00_opt_uwb97xd_def2svpd/0005_q000_m01_k00_force_ub3lyp_de
Force     UB3LYP                                                      Gen                 
Number of atoms                            I                5
Info1-9                                    I   N=           9
          13           9           0           0           0         100
           5          18        -502
Full Title                                 C   N=           8
0005_q000_m01_k00_opt_uwb97xd_def2svpd/0005_q000_m01_k00_for
ce_ub3lyp_def2tzvpd stable-force    
Route                                      C   N=          15
#p ub3lyp/chkbasis force guess=read geom=check scf=(maxcycle
=900,verytightlineq,xqc) integral=grid=ultrafine symmetry=No
ne density=current pop=(cm5,hlygat,mbs,npa) output=wfx      
Charge                                     I                0
Multiplicity                               I                1
Number of electrons                        I               32
Number of alpha electrons                  I               16
Number of beta electrons                   I               16
Number of basis functions                  I              141
Number of independent functions            I              141
Number of point charges in /Mol/           I                0
Number of translation vectors              I                0
Atomic numbers                             I   N=           5
           6          16           8           1           1
Nuclear charges                            R   N=           5
  6.00000000E+00  1.60000000E+01  8.00000000E+00  1.00000000E+00  1.00000000E+00
Current cartesian coordinates              R   N=          15
  1.84630873E+00 -3.74093449E-02 -1.90536037E-01  4.89061526E+00 -6.53203910E-02
 -2.38935210E-01  5.99277468E+00 -1.34985333E+00 -2.48781287E+00  9.79013775E-01
  8.91172187E-01  1.43410851E+00  7.00713826E-01 -8.88557081E-01 -1.68005585E+00
Number of symbols in /Mol/                 I                0
Int Atom Types                             I   N=           5
           0           0           0           0           0
Force Field                                I                0
Atom Types                                 C   N=           5
                                                            
MM charges                                 R   N=           5
  0.00000000E+00  0.00000000E+00  0.00000000E+00  0.00000000E+00  0.00000000E+00
Integer atomic weights                     I   N=           5
          12          32          16           1           1
Real atomic weights                        R   N=           5
  1.20000000E+01  3.19720718E+01  1.59949146E+01  1.00782504E+00  1.00782504E+00
Atom fragment info                         I   N=           5
           0           0           0           0           0
Atom residue num                           I   N=           5
           0           0           0           0           0
Nuclear spins                              I   N=           5
           0           0           0           1           1
Nuclear ZEff                               R   N=           5
 -3.60000000E+00 -1.36000000E+01 -5.60000000E+00 -1.00000000E+00 -1.00000000E+00
Nuclear ZNuc                               R   N=           5
  6.00000000E+00  1.60000000E+01  8.00000000E+00  1.00000000E+00  1.00000000E+00
Nuclear QMom                               R   N=           5
  0.00000000E+00  0.00000000E+00  0.00000000E+00  0.00000000E+00  0.00000000E+00
Nuclear GFac                               R   N=           5
  0.00000000E+00  0.00000000E+00  0.00000000E+00  2.79284600E+00  2.79284600E+00
MicOpt                                     I   N=           5
          -1          -1          -1          -1          -1
Number of residues                         I                0
Number of secondary structures             I                0
Number of contracted shells                I               53
Number of primitive shells                 I               89
Pure/Cartesian d shells                    I                0
Pure/Cartesian f shells                    I                0
Highest angular momentum                   I                3
Largest degree of contraction              I                7
Shell types                                I   N=          53
           0           0           0           0           0           0
           1           1           1          -2          -2          -2
          -3           0           0           0           0           0
           0           1           1           1           1           1
           1          -2          -2          -2          -3           0
           0           0           0           0           0           1
           1           1           1          -2          -2          -2
          -3           0           0           0           1           1
           0           0           0           1           1
Number of primitives per shell             I   N=          53
           6           2           1           1           1           1
           4           1           1           1           1           1
           1           7           3           2           1           1
           1           5           1           1           1           1
           1           2           1           1           1           6
           2           1           1           1           1           4
           1           1           1           1           1           1
           1           3           1           1           1           1
           3           1           1           1           1
Shell to atom map                          I   N=          53
           1           1           1           1           1           1
           1           1           1           1           1           1
           1           2           2           2           2           2
           2           2           2           2           2           2
           2           2           2           2           2           3
           3           3           3           3           3           3
           3           3           3           3           3           3
           3           4           4           4           4           4
           5           5           5           5           5
Primitive exponents                        R   N=          89
  1.35753497E+04  2.03523337E+03  4.63225624E+02  1.31200196E+02  4.28530159E+01
  1.55841858E+01  6.20671385E+00  2.57648965E+00  5.76963394E-01  2.29728314E-01
  9.51644400E-02  4.84754014E-02  3.46972322E+01  7.95826228E+00  2.37808269E+00
  8.14332082E-01  2.88875473E-01  1.00568237E-01  1.09700000E+00  3.18000000E-01
  9.09853364E-02  7.61000000E-01  6.07009281E+04  9.10261069E+03  2.07141660E+03
  5.86024768E+02  1.90553950E+02  6.76303843E+01  2.51273069E+01  1.12574630E+02
  3.47955542E+01  6.51155562E+00  3.23990323E+00  1.54771609E+00  4.05410301E-01
  1.45506511E-01  5.01788395E-02  5.64367160E+02  1.33426244E+02  4.24682712E+01
  1.56165276E+01  6.10939885E+00  2.44041602E+00  8.38822013E-01  3.12887469E-01
  1.07701090E-01  3.03598336E-02  3.75600000E+00  8.12000000E-01  2.73000000E-01
  8.15470250E-02  5.57000000E-01  2.70323826E+04  4.05238714E+03  9.22327227E+02
  2.61240710E+02  8.53546414E+01  3.10350352E+01  1.22608607E+01  4.99870760E+00
  1.17031082E+00  4.64747410E-01  1.85045364E-01  7.02880263E-02  6.32749548E+01
  1.46270494E+01  4.45012235E+00  1.52757996E+00  5.29351179E-01  1.74784213E-01
  5.11127457E-02  2.31400000E+00  6.45000000E-01  1.46964774E-01  1.42800000E+00
  3.40613410E+01  5.12357460E+00  1.16466260E+00  3.27230410E-01  1.03072410E-01
  8.00000000E-01  9.57741296E-02  3.40613410E+01  5.12357460E+00  1.16466260E+00
  3.27230410E-01  1.03072410E-01  8.00000000E-01  9.57741296E-02
Contraction coefficients                   R   N=          89
  6.06455036E-04  4.69790889E-03  2.43324776E-02  9.73999683E-02  3.01955843E-01
  6.62336091E-01  6.55953085E-01  3.75856333E-01  1.00000000E+00  1.00000000E+00
  1.00000000E+00  1.00000000E+00  1.13272200E-02  7.61696592E-02  3.01922522E-01
  7.27850273E-01  1.00000000E+00  1.00000000E+00  1.00000000E+00  1.00000000E+00
  1.00000000E+00  1.00000000E+00  5.23800749E-04  4.05063268E-03  2.08270042E-02
  8.14968503E-02  2.37491138E-01  4.47261715E-01  3.48919184E-01  1.00455699E-01
  4.33911729E-01 -1.20843306E+00  6.74981294E-01  3.47087958E-01  1.00000000E+00
  1.00000000E+00  1.00000000E+00  3.48869236E-03  2.76851268E-02  1.26594002E-01
  3.61659257E-01  6.12220344E-01  1.00000000E+00  1.00000000E+00  1.00000000E+00
  1.00000000E+00  1.00000000E+00  1.82851975E-01  9.14259873E-01  1.00000000E+00
  1.00000000E+00  1.00000000E+00  5.72273352E-04  4.43532335E-03  2.30201077E-02
  9.28224907E-02  2.93785000E-01  6.74016045E-01  6.38399370E-01  3.95345871E-01
  1.00000000E+00  1.00000000E+00  1.00000000E+00  1.00000000E+00  1.20183322E-02
  8.30054218E-02  3.19917439E-01  7.07155429E-01  1.00000000E+00  1.00000000E+00
  1.00000000E+00  1.00000000E+00  1.00000000E+00  1.00000000E+00  1.00000000E+00
  2.54393072E-02  1.90085949E-01  8.52441130E-01  1.00000000E+00  1.00000000E+00
  1.00000000E+00  1.00000000E+00  2.54393072E-02  1.90085949E-01  8.52441130E-01
  1.00000000E+00  1.00000000E+00  1.00000000E+00  1.00000000E+00
Coordinates of each shell                  R   N=         159
  1.84630873E+00 -3.74093449E-02 -1.90536037E-01  1.84630873E+00 -3.74093449E-02
 -1.90536037E-01  1.84630873E+00 -3.74093449E-02 -1.90536037E-01  1.84630873E+00
 -3.74093449E-02 -1.90536037E-01  1.84630873E+00 -3.74093449E-02 -1.90536037E-01
  1.84630873E+00 -3.74093449E-02 -1.90536037E-01  1.84630873E+00 -3.74093449E-02
 -1.90536037E-01  1.84630873E+00 -3.74093449E-02 -1.90536037E-01  1.84630873E+00
 -3.74093449E-02 -1.90536037E-01  1.84630873E+00 -3.74093449E-02 -1.90536037E-01
  1.84630873E+00 -3.74093449E-02 -1.90536037E-01  1.84630873E+00 -3.74093449E-02
 -1.90536037E-01  1.84630873E+00 -3.74093449E-02 -1.90536037E-01  4.89061526E+00
 -6.53203910E-02 -2.38935210E-01  4.89061526E+00 -6.53203910E-02 -2.38935210E-01
  4.89061526E+00 -6.53203910E-02 -2.38935210E-01  4.89061526E+00 -6.53203910E-02
 -2.38935210E-01  4.89061526E+00 -6.53203910E-02 -2.38935210E-01  4.89061526E+00
 -6.53203910E-02 -2.38935210E-01  4.89061526E+00 -6.53203910E-02 -2.38935210E-01
  4.89061526E+00 -6.53203910E-02 -2.38935210E-01  4.89061526E+00 -6.53203910E-02
 -2.38935210E-01  4.89061526E+00 -6.53203910E-02 -2.38935210E-01  4.89061526E+00
 -6.53203910E-02 -2.38935210E-01  4.89061526E+00 -6.53203910E-02 -2.38935210E-01
  4.89061526E+00 -6.53203910E-02 -2.38935210E-01  4.89061526E+00 -6.53203910E-02
 -2.38935210E-01  4.89061526E+00 -6.53203910E-02 -2.38935210E-01  4.89061526E+00
 -6.53203910E-02 -2.38935210E-01  5.99277468E+00 -1.34985333E+00 -2.48781287E+00
  5.99277468E+00 -1.34985333E+00 -2.48781287E+00  5.99277468E+00 -1.34985333E+00
 -2.48781287E+00  5.99277468E+00 -1.34985333E+00 -2.48781287E+00  5.99277468E+00
 -1.34985333E+00 -2.48781287E+00  5.99277468E+00 -1.34985333E+00 -2.48781287E+00
  5.99277468E+00 -1.34985333E+00 -2.48781287E+00  5.99277468E+00 -1.34985333E+00
 -2.48781287E+00  5.99277468E+00 -1.34985333E+00 -2.48781287E+00  5.99277468E+00
 -1.34985333E+00 -2.48781287E+00  5.99277468E+00 -1.34985333E+00 -2.48781287E+00
  5.99277468E+00 -1.34985333E+00 -2.48781287E+00  5.99277468E+00 -1.34985333E+00
 -2.48781287E+00  5.99277468E+00 -1.34985333E+00 -2.48781287E+00  9.79013775E-01
  8.91172187E-01  1.43410851E+00  9.79013775E-01  8.91172187E-01  1.43410851E+00
  9.79013775E-01  8.91172187E-01  1.43410851E+00  9.79013775E-01  8.91172187E-01
  1.43410851E+00  9.79013775E-01  8.91172187E-01  1.43410851E+00  7.00713826E-01
 -8.88557081E-01 -1.68005585E+00  7.00713826E-01 -8.88557081E-01 -1.68005585E+00
  7.00713826E-01 -8.88557081E-01 -1.68005585E+00  7.00713826E-01 -8.88557081E-01
 -1.68005585E+00  7.00713826E-01 -8.88557081E-01 -1.68005585E+00
Num ILSW                                   I              100
ILSW                                       I   N=         100
           1           0           0           0           2           0
           0           0           0           0         402          -1
           5           0           0           0           2           0
           0           0           0           0           1           0
           1           1           0           0           0           0
           0           0      100000           0          -1           0
           0           0           0           0           0           0
           0           0           0           1           0           0
           0 -2000000000           1           0           0           0
           0           0           4          52           0           0
           0           0           5           0           0           0
           0           0           0           5           0           1
           0           0           0           0           0           0
           0           0           0           0           0           0
           0           0           0           0           0           0
           0           0           0           0           0           0
           0           0           0           0
Num RLSW                                   I               52
RLSW                                       R   N=          52
  8.00000000E-01  7.20000000E-01  1.00000000E+00  8.10000000E-01  2.00000000E-01
  0.00000000E+00  0.00000000E+00  1.00000000E+00  0.00000000E+00  0.00000000E+00
  0.00000000E+00  0.00000000E+00  1.00000000E+00  0.00000000E+00  0.00000000E+00
  0.00000000E+00  0.00000000E+00  1.00000000E+00  0.00000000E+00  0.00000000E+00
  0.00000000E+00  0.00000000E+00  1.00000000E+00  0.00000000E+00  0.00000000E+00
  0.00000000E+00  0.00000000E+00  1.00000000E+00  0.00000000E+00  0.00000000E+00
  0.00000000E+00  0.00000000E+00  1.00000000E+00  0.00000000E+00  0.00000000E+00
  0.00000000E+00  0.00000000E+00  0.00000000E+00  1.00000000E+00  1.00000000E+00
  0.00000000E+00  1.00000000E+00  0.00000000E+00  0.00000000E+00  0.00000000E+00
  0.00000000E+00  0.00000000E+00  0.00000000E+00  0.00000000E+00  0.00000000E+00
  0.00000000E+00  0.00000000E+00
MxBond                                     I                3
NBond                                      I   N=           5
           3           2           1           1           1
IBond                                      I   N=          15
           2           4           5           1           3           0
           2           0           0           1           0           0
           1           0           0
RBond                                      R   N=          15
  2.00000000E+00  1.00000000E+00  1.00000000E+00  2.00000000E+00  2.00000000E+00
  0.00000000E+00  2.00000000E+00  0.00000000E+00  0.00000000E+00  1.00000000E+00
  0.00000000E+00  0.00000000E+00  1.00000000E+00  0.00000000E+00  0.00000000E+00
Virial Ratio                               R      2.002552126249798E+00
SCF Energy                                 R     -5.127585771327537E+02
Total Energy                               R     -5.127585771327537E+02
S**2                                       R     -1.776356839400250E-14
S**2 after annihilation                    R      1.765698698363802E-12
RMS Force                                  R      6.196214288019924E-03
RMS Density                                R      2.230123145125523E-09
Job Status                                 I                1
Nuclear derivative order                   I                1
External E-field                           R   N=          35
  0.00000000E+00  0.00000000E+00  0.00000000E+00  0.00000000E+00  0.00000000E+00
  0.00000000E+00  0.00000000E+00  0.00000000E+00  0.00000000E+00  0.00000000E+00
  0.00000000E+00  0.00000000E+00  0.00000000E+00  0.00000000E+00  0.00000000E+00
  0.00000000E+00  0.00000000E+00  0.00000000E+00  0.00000000E+00  0.00000000E+00
  0.00000000E+00  0.00000000E+00  0.00000000E+00  0.00000000E+00  0.00000000E+00
  0.00000000E+00  0.00000000E+00  0.00000000E+00  0.00000000E+00  0.00000000E+00
  0.00000000E+00  0.00000000E+00  0.00000000E+00  0.00000000E+00  0.00000000E+00
IOpCl                                      I                1
IROHF                                      I                0
Alpha Orbital Energies                     R   N=         141
 -8.89715767E+01 -1.91331011E+01 -1.02283293E+01 -8.03682741E+00 -5.99837652E+00
 -5.99820510E+00 -5.99407073E+00 -1.04550397E+00 -8.04028446E-01 -6.08522450E-01
 -4.93589814E-01 -4.66759756E-01 -4.23229410E-01 -3.95471998E-01 -2.92847982E-01
 -2.80943886E-01 -9.44028657E-02 -2.13318755E-03  1.59662531E-03  1.84032187E-02
  3.22950445E-02  4.10001916E-02  6.83767292E-02  7.96528854E-02  9.37806154E-02
  1.12099729E-01  1.19193334E-01  1.25357387E-01  1.46491740E-01  1.56738702E-01
  1.70351118E-01  1.82576380E-01  1.94017682E-01  2.00217169E-01  2.28430835E-01
  2.43444617E-01  2.53068143E-01  2.62988582E-01  2.70596085E-01  2.90358910E-01
  2.98828331E-01  3.14802234E-01  3.33228530E-01  3.48976922E-01  3.54164636E-01
  3.70209212E-01  3.83463524E-01  4.13067388E-01  4.26793615E-01  4.43548445E-01
  4.46993841E-01  4.62997794E-01  4.79421415E-01  5.05031872E-01  5.46189921E-01
  5.46459821E-01  5.62503506E-01  5.81022571E-01  5.97820820E-01  6.35967758E-01
  6.60401130E-01  6.74640179E-01  7.10807816E-01  7.58680021E-01  7.98579268E-01
  8.26445588E-01  8.29550000E-01  8.77796704E-01  8.81711074E-01  9.50232539E-01
  9.91474633E-01  1.04775046E+00  1.09194439E+00  1.10854394E+00  1.14068920E+00
  1.47896047E+00  1.48753755E+00  1.52492249E+00  1.53724698E+00  1.55264168E+00
  1.56616906E+00  1.59892072E+00  1.64660038E+00  1.67458840E+00  1.72581776E+00
  1.76453692E+00  1.78644443E+00  1.79875943E+00  1.82787505E+00  1.83075494E+00
  1.86563312E+00  1.86900996E+00  2.00192861E+00  2.03347241E+00  2.06969638E+00
  2.12776554E+00  2.17384947E+00  2.27747042E+00  2.33167034E+00  2.34359781E+00
  2.38143869E+00  2.53702985E+00  2.58605334E+00  2.62419239E+00  2.65171378E+00
  2.75119823E+00  2.80176953E+00  2.87410633E+00  3.06985354E+00  3.07591509E+00
  3.11468215E+00  3.14222625E+00  3.17129759E+00  3.18902654E+00  3.29824262E+00
  3.43714778E+00  3.44381469E+00  3.48537862E+00  3.67365961E+00  3.71543124E+00
  3.89213365E+00  4.18556760E+00  4.52095527E+00  5.14022578E+00  5.14090536E+00
  5.22485131E+00  5.25617868E+00  5.44098454E+00  5.51593131E+00  5.52349131E+00
  6.41264531E+00  6.43008496E+00  6.63410565E+00  6.70298507E+00  6.98044292E+00
  8.85066796E+00  9.22360535E+00  9.59762126E+00  2.09150283E+01  2.21477833E+01
  4.36844982E+01
Beta Orbital Energies                      R   N=         141
 -8.89715767E+01 -1.91331011E+01 -1.02283293E+01 -8.03682741E+00 -5.99837652E+00
 -5.99820510E+00 -5.99407073E+00 -1.04550397E+00 -8.04028446E-01 -6.08522450E-01
 -4.93589814E-01 -4.66759756E-01 -4.23229410E-01 -3.95471998E-01 -2.92847982E-01
 -2.80943886E-01 -9.44028657E-02 -2.13318755E-03  1.59662531E-03  1.84032187E-02
  3.22950445E-02  4.10001916E-02  6.83767292E-02  7.96528854E-02  9.37806154E-02
  1.12099729E-01  1.19193334E-01  1.25357387E-01  1.46491740E-01  1.56738702E-01
  1.70351118E-01  1.82576380E-01  1.94017682E-01  2.00217169E-01  2.28430835E-01
  2.43444617E-01  2.53068143E-01  2.62988582E-01  2.70596085E-01  2.90358910E-01
  2.98828331E-01  3.14802234E-01  3.33228530E-01  3.48976922E-01  3.54164636E-01
  3.70209212E-01  3.83463524E-01  4.13067388E-01  4.26793615E-01  4.43548445E-01
  4.46993841E-01  4.62997794E-01  4.79421415E-01  5.05031872E-01  5.46189921E-01
  5.46459821E-01  5.62503506E-01  5.81022571E-01  5.97820820E-01  6.35967758E-01
  6.60401130E-01  6.74640179E-01  7.10807816E-01  7.58680021E-01  7.98579268E-01
  8.26445588E-01  8.29550000E-01  8.77796704E-01  8.81711074E-01  9.50232539E-01
  9.91474633E-01  1.04775046E+00  1.09194439E+00  1.10854394E+00  1.14068920E+00
  1.47896047E+00  1.48753755E+00  1.52492249E+00  1.53724698E+00  1.55264168E+00
  1.56616906E+00  1.59892072E+00  1.64660038E+00  1.67458840E+00  1.72581776E+00
  1.76453692E+00  1.78644443E+00  1.79875943E+00  1.82787505E+00  1.83075494E+00
  1.86563312E+00  1.86900996E+00  2.00192861E+00  2.03347241E+00  2.06969638E+00
  2.12776554E+00  2.17384947E+00  2.27747042E+00  2.33167034E+00  2.34359781E+00
  2.38143869E+00  2.53702985E+00  2.58605334E+00  2.62419239E+00  2.65171378E+00
  2.75119823E+00  2.80176953E+00  2.87410633E+00  3.06985354E+00  3.07591509E+00
  3.11468215E+00  3.14222625E+00  3.17129759E+00  3.18902654E+00  3.29824262E+00
  3.43714778E+00  3.44381469E+00  3.48537862E+00  3.67365961E+00  3.71543124E+00
  3.89213365E+00  4.18556760E+00  4.52095527E+00  5.14022578E+00  5.14090536E+00
  5.22485131E+00  5.25617868E+00  5.44098454E+00  5.51593131E+00  5.52349131E+00
  6.41264531E+00  6.43008496E+00  6.63410565E+00  6.70298507E+00  6.98044292E+00
  8.85066796E+00  9.22360535E+00  9.59762126E+00  2.09150283E+01  2.21477833E+01
  4.36844982E+01
Alpha MO coefficients                      R   N=       19881
  1.36916253E-06 -1.36707067E-05  1.04078583E-03 -3.89036306E-03 -1.43474185E-03
 -2.06498801E-04  2.74913201E-04 -5.72966727E-06 -9.98676935E-06 -3.36624705E-03
 -1.07339177E-06 -2.41027400E-06  1.24507110E-03 -1.95585464E-04 -3.42107848E-04
  5.07685240E-05 -4.00775940E-07 -1.04361317E-05 -1.00223475E-04 -2.12149038E-07
  9.16810721E-04 -1.68803372E-05  1.61715970E-04 -1.39745339E-03 -9.39423311E-06
 -1.23110630E-03 -5.21713417E-04 -8.51427614E-04  1.12898638E-03 -2.98309886E-04
 -7.50754849E-06  2.75169880E-04  4.98450825E-06  9.85001175E-06 -1.69799770E-05
 -3.71562421E-04  8.69997130E-06  9.99276577E-01 -3.18506148E-02 -1.14393645E-02
  5.06773004E-03  1.25683662E-03 -2.03162362E-04 -4.32438916E-05 -5.90513846E-05
 -1.03379593E-04 -1.15683733E-05  6.07369032E-05  1.06328891E-04  3.01190521E-04
  8.54299416E-05  1.49628775E-04 -2.32683155E-03 -9.24384153E-04 -1.61882680E-03
  7.91957183E-04  6.12965240E-06  1.05724185E-05  6.99422382E-05  2.16775334E-05
  3.79763307E-05  9.14739817E-06 -1.39376760E-04  1.97474579E-04  2.17088696E-04
 -7.96500274E-05 -2.87186518E-04 -7.52833202E-04  6.17064603E-04  1.22526389E-03
 -4.30228395E-04  1.13980179E-05 -1.54952938E-04 -1.16001910E-05 -3.35248868E-05
 -8.85260696E-05 -5.94249334E-05  5.31456995E-04 -3.01736758E-04  6.99526237E-05
  2.87994181E-04 -4.08745463E-04 -2.37257215E-05  1.84277111E-05 -7.01824540E-05
  6.50267150E-04 -1.26073501E-03 -1.84163258E-03 -8.41551290E-04 -9.56133622E-05
  1.01032111E-04  1.76884049E-04  5.46912076E-04 -6.15444765E-04 -1.07749932E-03
  2.57616589E-04 -6.07217158E-04 -1.06303156E-03  1.95628382E-05 -1.35261486E-04
 -2.36836276E-04  4.83175034E-05 -5.85417316E-05  6.77613045E-05 -3.75951108E-06
 -3.34396544E-05 -3.78016125E-04  4.46246368E-04 -5.25934440E-04  3.43726116E-05
  2.54895186E-04 -1.93266685E-04  4.82183437E-05 -2.49260649E-04  4.07501739E-05
  2.75582772E-05 -1.51928369E-05  1.17604872E-04 -1.28064951E-04  1.66866752E-05
  1.22838696E-04 -3.35226691E-05 -1.97956513E-05 -1.86694662E-05 -2.77069655E-04
  2.19242053E-03 -6.47271364E-05  2.61504139E-06  4.56908354E-06  1.04569552E-03
  1.58523562E-04  2.77604106E-04  7.81336071E-06 -2.91991838E-04  2.39452433E-03
 -1.08475921E-04  1.33307798E-05  2.32936640E-05  7.20522725E-04 -2.18760840E-04
 -3.82688323E-04  1.03971707E-06 -3.04331280E-06  5.56013956E-05  4.28911699E-04
 -1.58704905E-03  5.79791017E-04 -8.87275384E-05 -3.64319039E-05 -6.38284561E-05
  1.82510194E-03 -5.20820332E-05 -9.06907560E-05 -5.18524176E-03 -1.21590419E-03
 -2.12976981E-03  6.41224247E-06 -1.01173576E-04  3.87738870E-05  3.46515352E-05
 -5.78156881E-05 -5.89336986E-04  3.16335456E-04 -6.01103256E-04  3.12196297E-04
  1.80764159E-04  5.34130452E-04 -3.68521649E-03  6.77939482E-04 -1.26360472E-04
 -2.10606615E-03 -2.80195736E-05  4.52151754E-05  1.97435826E-06  3.64379096E-05
  6.32299001E-05  2.43460385E-06  2.76127064E-05  9.25169450E-05 -2.22031866E-04
 -6.66505520E-04  3.82562697E-04 -2.55344496E-03  1.88374963E-03 -3.69303771E-06
 -1.40071179E-05 -2.45321218E-05 -6.75586496E-07  9.89496979E-05  1.73276235E-04
 -3.26339863E-04  6.12679867E-06  1.05841192E-05  2.32739531E-03 -1.28100043E-03
 -2.24224995E-03 -5.52153459E-03  4.67828474E-03  8.18833528E-03 -7.69861999E-05
 -4.59585950E-05 -8.05890246E-05  3.97695366E-04 -4.01064851E-04  5.30725923E-04
 -6.27989593E-05 -2.29062705E-04  1.00733866E-03 -8.45419189E-04  9.78227364E-04
 -5.90938157E-04 -4.82854265E-04 -1.87485692E-03 -1.90138677E-04 -1.77167222E-03
  1.15755913E-03 -1.08942452E-04 -8.11948445E-05  3.89986105E-04 -6.52000089E-04
  8.99343479E-05  5.08457965E-04 -1.37610225E-05 -9.71086927E-05  4.35085973E-01
  6.39615070E-01  3.56388620E-02 -2.71839651E-02  2.03572225E-02 -1.89414346E-03
 -8.27127483E-04  8.57545033E-04  1.50143976E-03  1.61697230E-03 -1.80181849E-03
 -3.15464662E-03 -1.68697474E-03  2.04528651E-03  3.58107617E-03 -2.63582544E-05
 -3.11423648E-04 -5.45219976E-04  1.17327414E-04 -1.44548133E-04  1.44916934E-04
 -3.22735751E-05 -8.25568170E-05 -5.08592426E-04  6.28528096E-04 -6.63634957E-04
  9.80954167E-05  3.58990792E-04  5.33553429E-04 -4.77800337E-04  5.07682999E-04
 -3.25186952E-04 -2.72858934E-04 -1.32641323E-05  1.13748400E-04 -1.32572171E-04
  1.40786636E-05  1.21803798E-04 -2.95381620E-05 -2.28720334E-05  6.39588985E-05
  1.25091458E-03 -5.68185257E-03  8.47835269E-05 -9.48569301E-05 -1.65927063E-04
  2.16755743E-03  6.80261387E-04  1.19096574E-03  5.89556427E-05  5.06208325E-04
 -7.52493839E-04  2.17377898E-04  4.29433710E-05  7.50902335E-05 -1.17929010E-03
 -1.60339543E-04 -2.80235383E-04  4.66755287E-01  6.08553975E-01  3.98380198E-02
 -3.66010406E-02  1.08506480E-01 -5.22902053E-03  4.90194746E-04  1.31630904E-05
  2.30461014E-05 -3.46404094E-03  2.93341310E-04  5.12840074E-04 -2.27125571E-02
  1.39636467E-03  2.44041478E-03  8.78986918E-05  1.98293708E-05  6.20369446E-04
  5.78760770E-04  1.12079957E-05  1.43761007E-03  3.18283320E-04  1.02767825E-03
 -1.27927116E-03  1.81961072E-04  9.09914921E-03  2.85501494E-03  1.05073970E-02
 -3.37698077E-03  1.63176209E-03  7.33420723E-05 -5.75636036E-04  9.93501557E-05
 -9.30248679E-05 -7.23966083E-04  4.65896051E-05 -4.42419863E-05 -2.15123286E-05
  1.86727234E-05  4.65725730E-05  2.56713396E-05  1.24892073E-02  4.69371588E-03
  2.98175407E-05  7.59852853E-06  1.33100759E-05 -9.55759903E-05 -3.21626220E-05
 -5.63350199E-05 -1.78632371E-05  1.02194104E-04  1.78958675E-04 -2.38770427E-03
 -3.13458475E-04 -5.49284496E-04 -4.49598188E-03 -2.07023192E-03 -3.62407250E-03
 -1.86897565E-03  5.14922567E-05  8.99690358E-05 -4.35684475E-05 -1.08644660E-04
 -6.09624489E-05  3.48872023E-06 -6.20691111E-05 -6.63336438E-05  7.31651039E-04
  2.64983720E-04  4.27873865E-04  4.17869036E-04 -1.19806532E-03  2.40203611E-03
 -1.72887889E-03  3.78616724E-05  1.37241185E-03 -5.34954704E-05 -5.63042827E-04
 -5.78392867E-05  6.79238039E-05 -1.54829510E-04  5.77720000E-04  3.59166553E-05
  5.87000304E-07 -1.72410510E-06 -7.10144480E-05  6.95995643E-04 -1.13100647E-03
 -1.72315829E-03  4.00187790E-06 -1.02590920E-05 -1.79608302E-05 -1.50585211E-04
  1.68518315E-04  2.95040989E-04  2.92658022E-03 -6.91719040E-04 -1.21047475E-03
  1.85037899E-03 -2.60347179E-04 -4.55549426E-04 -2.60296483E-05 -5.60969920E-05
  2.77009533E-06  4.83286757E-05 -3.20613450E-05  1.99336530E-04  2.32842383E-04
  7.41556314E-05 -2.57670156E-04  1.33083383E-04  2.16731081E-04  6.34758970E-04
 -2.20783492E-04 -6.35789861E-04  3.62385110E-04  5.80646815E-05 -1.78855196E-05
  2.79819016E-05 -7.46151493E-05  1.11320341E-08  2.30777412E-05 -4.85496319E-05
 -4.28417366E-04 -1.45218753E-03 -5.12444449E-02 -8.10870402E-04  7.67473787E-04
  1.34277723E-03 -7.79482660E-03  2.66840123E-03  4.66605947E-03 -4.69508414E-04
 -8.10757462E-04 -5.54661506E-02 -1.00136860E-03 -6.55863454E-04 -1.14777277E-03
 -8.58199728E-03 -2.41282843E-03 -4.22275574E-03 -8.66648951E-05 -1.51049823E-04
  2.98618114E-03 -1.15750175E-02 -1.60643887E-03  2.13071398E-04  8.05062285E-04
 -1.54383313E-05 -2.68991772E-05 -1.06458707E-02 -1.97296626E-06 -5.13277254E-06
  1.06148317E-02 -1.23263953E-03 -2.15582448E-03  1.50342139E-04  1.24880790E-05
 -3.24946072E-05 -2.98671358E-04  7.18212333E-06  2.87148752E-03 -9.70246139E-05
  6.77964556E-04 -4.17482967E-03 -5.46729151E-05 -6.23324313E-03 -1.87285470E-03
 -4.19798049E-03  5.84939265E-03 -1.07116629E-03  1.23277549E-05  6.19284262E-04
  2.67654031E-05 -1.53695933E-05 -1.09633881E-04 -9.04925251E-04 -4.44930847E-06
 -2.87792749E-01 -2.39112262E-01  8.06111822E-01  3.66463909E-02 -1.24502757E-02
 -4.11220229E-03 -2.11829454E-03 -2.44768508E-03 -4.28467289E-03 -1.43403576E-03
 -1.50906678E-03 -2.64156745E-03  9.99103744E-04  1.88029391E-04  3.29536437E-04
 -7.78322509E-03 -2.67252411E-03 -4.68044305E-03  7.12369115E-03  7.76986637E-04
  1.36046932E-03  6.03831943E-04  1.35592858E-04  2.37558332E-04 -4.16910956E-05
 -6.45057714E-04  4.14561454E-04  5.61083762E-04 -3.68574754E-04 -1.07111693E-03
 -2.11484711E-03  1.78068734E-03  3.95562130E-03 -1.20865686E-03  2.55564157E-04
 -6.89611394E-04 -1.27709007E-04 -5.93962407E-04 -3.93928952E-04 -1.83845337E-04
  1.74387483E-03 -9.18102079E-04  2.16790571E-04  8.93654888E-04 -1.39065613E-03
 -6.92156155E-05 -5.03816459E-05 -2.22061147E-04  1.65834612E-03 -3.29075609E-03
 -4.14328814E-03 -1.82748645E-03 -2.63012773E-04  2.85266973E-04  4.99437705E-04
  1.45496037E-03 -1.62652413E-03 -2.84767053E-03  1.70178709E-04 -1.55146002E-03
 -2.71609194E-03 -6.89168598E-05 -4.79390945E-04 -8.39486295E-04  1.13907966E-04
 -1.27401111E-04  1.54471204E-04 -1.50830085E-05 -7.27709186E-05 -9.53708876E-04
  1.07861716E-03 -1.30962502E-03  1.07081729E-04  6.16099196E-04 -6.65579594E-04
  1.16582814E-04 -8.85924743E-04  1.07889130E-04  6.66861862E-05 -2.79483841E-05