0005_q000_m01_k00_opt_uwb97xd_def2svpd/0005_q000_m01_k00_force_uhf_def2s
Force     UHF                                                         Gen                 
Number of atoms                            I                5
Info1-9                                    I   N=           9
          13           9           0           0           0         100
           5           1           2
Full Title                                 C   N=           8
0005_q000_m01_k00_opt_uwb97xd_def2svpd/0005_q000_m01_k00_for
ce_uhf_def2svp stable-force         
Route                                      C   N=          15
#p uhf/chkbasis force guess=read geom=check scf=(maxcycle=90
0,verytightlineq,xqc) integral=grid=ultrafine symmetry=None 
density=current pop=(cm5,hlygat,mbs,npa) output=wfx         
Charge                                     I                0
Multiplicity                               I                1
Number of electrons                        I               32
Number of alpha electrons                  I               16
Number of beta electrons                   I               16
Number of basis functions                  I               56
Number of independent functions            I               56
Number of point charges in /Mol/           I                0
Number of translation vectors              I                0
Atomic numbers                             I   N=           5
           6          16           8           1           1
Nuclear charges                            R   N=           5
  6.00000000E+00  1.60000000E+01  8.00000000E+00  1.00000000E+00  1.00000000E+00
Current cartesian coordinates              R   N=          15
  1.84630873E+00 -3.74093449E-02 -1.90536037E-01  4.89061526E+00 -6.53203910E-02
 -2.38935210E-01  5.99277468E+00 -1.34985333E+00 -2.48781287E+00  9.79013775E-01
  8.91172187E-01  1.43410851E+00  7.00713826E-01 -8.88557081E-01 -1.68005585E+00
Number of symbols in /Mol/                 I                0
Int Atom Types                             I   N=           5
           0           0           0           0           0
Force Field                                I                0
Atom Types                                 C   N=           5
                                                            
MM charges                                 R   N=           5
  0.00000000E+00  0.00000000E+00  0.00000000E+00  0.00000000E+00  0.00000000E+00
Integer atomic weights                     I   N=           5
          12          32          16           1           1
Real atomic weights                        R   N=           5
  1.20000000E+01  3.19720718E+01  1.59949146E+01  1.00782504E+00  1.00782504E+00
Atom fragment info                         I   N=           5
           0           0           0           0           0
Atom residue num                           I   N=           5
           0           0           0           0           0
Nuclear spins                              I   N=           5
           0           0           0           1           1
Nuclear ZEff                               R   N=           5
 -3.60000000E+00 -1.36000000E+01 -5.60000000E+00 -1.00000000E+00 -1.00000000E+00
Nuclear ZNuc                               R   N=           5
  6.00000000E+00  1.60000000E+01  8.00000000E+00  1.00000000E+00  1.00000000E+00
Nuclear QMom                               R   N=           5
  0.00000000E+00  0.00000000E+00  0.00000000E+00  0.00000000E+00  0.00000000E+00
Nuclear GFac                               R   N=           5
  0.00000000E+00  0.00000000E+00  0.00000000E+00  2.79284600E+00  2.79284600E+00
MicOpt                                     I   N=           5
          -1          -1          -1          -1          -1
Number of residues                         I                0
Number of secondary structures             I                0
Number of contracted shells                I               26
Number of primitive shells                 I               52
Pure/Cartesian d shells                    I                0
Pure/Cartesian f shells                    I                0
Highest angular momentum                   I                2
Largest degree of contraction              I                5
Shell types                                I   N=          26
           0           0           0           1           1          -2
           0           0           0           0           1           1
           1          -2           0           0           0           1
           1          -2           0           0           1           0
           0           1
Number of primitives per shell             I   N=          26
           5           1           1           3           1           1
           5           3           1           1           5           1
           1           1           5           1           1           3
           1           1           3           1           1           3
           1           1
Shell to atom map                          I   N=          26
           1           1           1           1           1           1
           2           2           2           2           2           2
           2           2           3           3           3           3
           3           3           4           4           4           5
           5           5
Primitive exponents                        R   N=          52
  1.23840169E+03  1.86290050E+02  4.22511763E+01  1.16765579E+01  3.59305065E+00
  4.02451474E-01  1.30901827E-01  9.46809706E+00  2.01035451E+00  5.47710047E-01
  1.52686138E-01  8.00000000E-01  9.18493030E+03  1.38151055E+03  3.13871476E+02
  8.80538706E+01  2.70399149E+01  4.56487313E+01  4.96645223E+00  2.01162420E+00
  3.56610770E-01  1.35072215E-01  2.61982334E+02  6.13068947E+01  1.91037299E+01
  6.65677204E+00  2.39596352E+00  6.17761617E-01  1.69933769E-01  5.50000000E-01
  2.26617678E+03  3.40870102E+02  7.73631352E+01  2.14796449E+01  6.65894331E+00
  8.09759757E-01  2.55307722E-01  1.77215043E+01  3.86355054E+00  1.04809209E+00
  2.76415444E-01  1.20000000E+00  1.30107010E+01  1.96225720E+00  4.44537960E-01
  1.21949620E-01  8.00000000E-01  1.30107010E+01  1.96225720E+00  4.44537960E-01
  1.21949620E-01  8.00000000E-01
Contraction coefficients                   R   N=          52
  5.51736505E-03  4.10888286E-02  1.82253821E-01  4.68284594E-01  4.45758173E-01
  1.00000000E+00  1.00000000E+00  5.68883320E-02  3.12940593E-01  7.60650165E-01
  1.00000000E+00  1.00000000E+00 -5.47294661E-03 -4.09544022E-02 -1.84758290E-01
 -4.75672806E-01 -4.34951536E-01 -9.19040458E-02  5.56987772E-01  5.11154683E-01
  1.00000000E+00  1.00000000E+00 -9.18305466E-03 -6.59022265E-02 -2.45877845E-01
 -4.82314711E-01 -3.89563144E-01  1.00000000E+00  1.00000000E+00  1.00000000E+00
 -5.38935039E-03 -4.02347214E-02 -1.80081842E-01 -4.68288577E-01 -4.46926172E-01
  1.00000000E+00  1.00000000E+00  6.26302488E-02  3.33311385E-01  7.41486383E-01
  1.00000000E+00  1.00000000E+00  3.34854848E-02  2.34721871E-01  8.13770285E-01
  1.00000000E+00  1.00000000E+00  3.34854848E-02  2.34721871E-01  8.13770285E-01
  1.00000000E+00  1.00000000E+00
Coordinates of each shell                  R   N=          78
  1.84630873E+00 -3.74093449E-02 -1.90536037E-01  1.84630873E+00 -3.74093449E-02
 -1.90536037E-01  1.84630873E+00 -3.74093449E-02 -1.90536037E-01  1.84630873E+00
 -3.74093449E-02 -1.90536037E-01  1.84630873E+00 -3.74093449E-02 -1.90536037E-01
  1.84630873E+00 -3.74093449E-02 -1.90536037E-01  4.89061526E+00 -6.53203910E-02
 -2.38935210E-01  4.89061526E+00 -6.53203910E-02 -2.38935210E-01  4.89061526E+00
 -6.53203910E-02 -2.38935210E-01  4.89061526E+00 -6.53203910E-02 -2.38935210E-01
  4.89061526E+00 -6.53203910E-02 -2.38935210E-01  4.89061526E+00 -6.53203910E-02
 -2.38935210E-01  4.89061526E+00 -6.53203910E-02 -2.38935210E-01  4.89061526E+00
 -6.53203910E-02 -2.38935210E-01  5.99277468E+00 -1.34985333E+00 -2.48781287E+00
  5.99277468E+00 -1.34985333E+00 -2.48781287E+00  5.99277468E+00 -1.34985333E+00
 -2.48781287E+00  5.99277468E+00 -1.34985333E+00 -2.48781287E+00  5.99277468E+00
 -1.34985333E+00 -2.48781287E+00  5.99277468E+00 -1.34985333E+00 -2.48781287E+00
  9.79013775E-01  8.91172187E-01  1.43410851E+00  9.79013775E-01  8.91172187E-01
  1.43410851E+00  9.79013775E-01  8.91172187E-01  1.43410851E+00  7.00713826E-01
 -8.88557081E-01 -1.68005585E+00  7.00713826E-01 -8.88557081E-01 -1.68005585E+00
  7.00713826E-01 -8.88557081E-01 -1.68005585E+00
Num ILSW                                   I              100
ILSW                                       I   N=         100
           1           0           0           0           2           0
           0           0           0           0           0          -1
           5           0           0           0           2           0
           0           0           0           0           1           0
           1           1           0           0           0           0
           0           0      100000           0          -1           0
           0           0           0           0           0           0
           0           0           0           1           0           0
           0 -2000000000           1           0           0           0
           0           0           4          52           0           0
           0           0           0           0           0           0
           0           0           0           5           0           1
           0           0           0           0           0           0
           0           0           0           0           0           0
           0           0           0           0           0           0
           0           0           0           0           0           0
           0           0           0           0
Num RLSW                                   I               52
RLSW                                       R   N=          52
  1.00000000E+00  1.00000000E+00  1.00000000E+00  1.00000000E+00  1.00000000E+00
  0.00000000E+00  0.00000000E+00  1.00000000E+00  0.00000000E+00  0.00000000E+00
  0.00000000E+00  0.00000000E+00  1.00000000E+00  0.00000000E+00  0.00000000E+00
  0.00000000E+00  0.00000000E+00  1.00000000E+00  0.00000000E+00  0.00000000E+00
  0.00000000E+00  0.00000000E+00  1.00000000E+00  0.00000000E+00  0.00000000E+00
  0.00000000E+00  0.00000000E+00  1.00000000E+00  0.00000000E+00  0.00000000E+00
  0.00000000E+00  0.00000000E+00  1.00000000E+00  0.00000000E+00  0.00000000E+00
  0.00000000E+00  0.00000000E+00  0.00000000E+00  1.00000000E+00  1.00000000E+00
  0.00000000E+00  1.00000000E+00  0.00000000E+00  0.00000000E+00  0.00000000E+00
  0.00000000E+00  0.00000000E+00  0.00000000E+00  0.00000000E+00  0.00000000E+00
  0.00000000E+00  0.00000000E+00
MxBond                                     I                3
NBond                                      I   N=           5
           3           2           1           1           1
IBond                                      I   N=          15
           2           4           5           1           3           0
           2           0           0           1           0           0
           1           0           0
RBond                                      R   N=          15
  2.00000000E+00  1.00000000E+00  1.00000000E+00  2.00000000E+00  2.00000000E+00
  0.00000000E+00  2.00000000E+00  0.00000000E+00  0.00000000E+00  1.00000000E+00
  0.00000000E+00  0.00000000E+00  1.00000000E+00  0.00000000E+00  0.00000000E+00
Virial Ratio                               R      2.000455484480396E+00
SCF Energy                                 R     -5.111179800135553E+02
Total Energy                               R     -5.111179800135553E+02
S**2                                       R      5.098029887019759E-01
S**2 after annihilation                    R      4.368430979122736E-02
RMS Force                                  R      1.600044098788044E-02
RMS Density                                R      1.579045002009358E-09
Job Status                                 I                1
Nuclear derivative order                   I                1
External E-field                           R   N=          35
  0.00000000E+00  0.00000000E+00  0.00000000E+00  0.00000000E+00  0.00000000E+00
  0.00000000E+00  0.00000000E+00  0.00000000E+00  0.00000000E+00  0.00000000E+00
  0.00000000E+00  0.00000000E+00  0.00000000E+00  0.00000000E+00  0.00000000E+00
  0.00000000E+00  0.00000000E+00  0.00000000E+00  0.00000000E+00  0.00000000E+00
  0.00000000E+00  0.00000000E+00  0.00000000E+00  0.00000000E+00  0.00000000E+00
  0.00000000E+00  0.00000000E+00  0.00000000E+00  0.00000000E+00  0.00000000E+00
  0.00000000E+00  0.00000000E+00  0.00000000E+00  0.00000000E+00  0.00000000E+00
IOpCl                                      I                1
IROHF                                      I                0
Alpha Orbital Energies                     R   N=          56
 -9.20374634E+01 -2.05585176E+01 -1.12753395E+01 -9.06633135E+00 -6.75767020E+00
 -6.75341727E+00 -6.75052708E+00 -1.37966103E+00 -1.05460335E+00 -8.01056135E-01
 -6.58493634E-01 -6.35985369E-01 -6.20353644E-01 -5.54302278E-01 -4.43158692E-01
 -4.06678385E-01  9.00386537E-02  1.92149781E-01  1.98746889E-01  2.62509903E-01
  3.26748303E-01  4.80284854E-01  5.76912034E-01  6.67154926E-01  6.85628592E-01
  7.31857399E-01  8.21319699E-01  8.52406921E-01  8.71530022E-01  8.75215865E-01
  8.91090742E-01  9.43096773E-01  9.98537479E-01  1.08278660E+00  1.18898043E+00
  1.27868689E+00  1.27962406E+00  1.36727008E+00  1.42346659E+00  1.46189711E+00
  1.59824566E+00  1.78847036E+00  1.80990143E+00  1.92689078E+00  2.27576138E+00
  2.30636453E+00  2.32744856E+00  2.50261925E+00  2.68901087E+00  2.97767328E+00
  2.98283790E+00  3.07283096E+00  3.11998845E+00  3.18390969E+00  3.27468597E+00
  3.68769032E+00
Beta Orbital Energies                      R   N=          56
 -9.20337187E+01 -2.05384434E+01 -1.12942874E+01 -9.06228366E+00 -6.75127547E+00
 -6.74832916E+00 -6.74226240E+00 -1.33997213E+00 -1.06747773E+00 -8.02772323E-01
 -6.64875694E-01 -6.31016974E-01 -5.40142776E-01 -5.39214528E-01 -4.28116415E-01
 -3.87759997E-01  7.75179080E-02  1.84576641E-01  2.00856480E-01  2.66771445E-01
  3.28355918E-01  4.82678648E-01  5.73718364E-01  6.49295093E-01  6.52567719E-01
  6.88686555E-01  8.30548152E-01  8.33990498E-01  8.66534686E-01  8.92225661E-01
  8.94538196E-01  9.81765749E-01  9.99515957E-01  1.10046169E+00  1.18974872E+00
  1.28105007E+00  1.34979217E+00  1.37808817E+00  1.38882355E+00  1.47081985E+00
  1.60691023E+00  1.78928121E+00  1.79083195E+00  1.91304805E+00  2.24061566E+00
  2.28759602E+00  2.29901106E+00  2.46580505E+00  2.67757698E+00  3.02525188E+00
  3.02680586E+00  3.07619531E+00  3.16585050E+00  3.17511281E+00  3.27518275E+00
  3.70710662E+00
Alpha MO coefficients                      R   N=        3136
  1.22396405E-04 -5.06327678E-04  1.65275775E-03 -4.50246173E-04  8.12234315E-06
  1.41438852E-05  7.62300533E-04 -8.43122799E-06 -1.45852612E-05  2.84777256E-04
 -1.79433736E-05 -1.03109113E-05 -5.05409106E-04 -1.01651520E-05  9.94292927E-01
 -2.15138412E-02  9.28805352E-03 -4.84185031E-03 -1.00929833E-04 -9.59327179E-05
 -1.67973699E-04 -2.98269129E-04 -2.88700949E-04 -5.05523501E-04  1.50476412E-03
 -3.97592070E-04 -6.95906001E-04  1.98869573E-04 -3.91905848E-04  3.99593861E-04
  1.26881489E-04 -2.23880943E-04 -2.26250074E-05  3.49655680E-04 -1.49587079E-03
  6.48439625E-05 -4.88530907E-05 -8.55243273E-05  4.78260780E-04 -7.75976593E-04
 -1.35856033E-03 -3.59758315E-04  3.74806968E-04 -4.92657259E-04  4.19977827E-05
  2.14086544E-04 -8.66565699E-05  2.52872240E-04  6.81842038E-05 -2.30155264E-05
 -4.02628634E-05 -3.13295388E-05  4.68363378E-05 -1.02152900E-05  4.12309635E-05
  7.21347663E-05 -4.56367891E-05  9.47553533E-05  3.22766461E-03  3.51020429E-04
 -3.02713663E-05 -5.30266906E-05  4.38907265E-04 -8.09221766E-04 -1.41631708E-03
 -5.32916871E-05 -2.02410476E-04  1.16847738E-05  1.05921142E-04 -1.15613760E-04
 -2.36459276E-05 -1.38859339E-04  7.16901694E-04 -8.74705810E-03  2.96571431E-05
 -7.15357870E-05 -1.25246104E-04 -2.93952034E-04 -1.54736549E-05 -2.71245553E-05
 -4.55345486E-04  2.88066871E-03  5.04345594E-03 -4.69329362E-05 -2.80287521E-05
 -3.32909559E-04 -3.11451980E-04 -1.59574655E-05  9.90332669E-01 -3.37860690E-02
  1.82690616E-02  9.49354080E-04 -9.83428303E-04 -1.72178615E-03 -2.23298338E-03
  2.27622606E-03  3.98509826E-03  1.59824944E-04 -2.55659704E-04  3.18191559E-04
  9.85118890E-05 -1.46047394E-04  7.99653226E-05 -1.14045599E-04 -7.17931539E-05
  6.08525360E-05  1.06509007E-04 -2.28130033E-04 -1.37541708E-03 -1.37532689E-05
 -2.04350159E-05 -3.57325580E-05  9.91189990E-01  3.40770029E-02 -1.95213339E-02
 -6.14985764E-05  7.53980908E-05  1.31831091E-04  5.89128790E-04  8.99605350E-05
  1.57624943E-04  4.10828178E-04  1.14486456E-04  1.67528438E-03  1.26242763E-03
  6.51386086E-05  7.10837153E-05  4.95973827E-04 -1.21132604E-03  3.04833962E-03
  2.26811826E-04 -8.09453247E-06 -1.41384943E-05  1.12433574E-03 -1.92754772E-06
 -3.21613868E-06 -1.23151128E-04 -1.63238228E-04 -2.85724094E-04  7.34653810E-04
  1.49026860E-06 -1.22795412E-04 -1.41714219E-03  1.11844478E-06 -2.30388277E-05
 -1.19991287E-04 -2.75159739E-04  1.50053686E-04 -1.69537360E-05 -2.96158687E-05
 -3.27727835E-04 -7.19178582E-05 -1.26066533E-04 -2.93283620E-05  3.48567239E-05
  4.91816540E-06  5.66226685E-05  1.98960982E-05 -2.41068104E-03  4.85968334E-03
 -6.23812632E-04  5.99174497E-04  1.04829658E-03 -2.28236734E-03  5.07827199E-03
 -7.33068993E-04 -5.42836837E-04 -9.49999720E-04 -2.05385621E-04 -6.93924359E-04
  2.26362028E-03 -2.43365273E-04 -3.70992522E-06 -6.54624287E-06  9.62173615E-04
 -2.05862865E-04 -3.60074636E-04 -3.88277470E-05 -5.58364949E-05 -1.65532441E-04
 -1.27833517E-04 -3.18601155E-05  3.07517258E-01  1.02826625E+00  3.01862207E-02
 -9.47607866E-03  3.66071950E-03  3.28638171E-03  5.75370703E-03 -1.07545090E-03
 -7.47262339E-04 -1.30837238E-03  1.75775660E-03 -2.45320625E-05 -4.27997563E-05
  7.73989424E-05 -5.04198494E-04  2.24392846E-04  1.30597603E-04 -2.88007367E-04
  2.00629009E-04  1.44460030E-04 -4.86345733E-04 -7.74690039E-05  1.15866235E-04
  2.02856809E-04  3.01534921E-04 -6.30526989E-04 -1.10390114E-03 -4.64754047E-05
 -9.83961435E-06 -5.48760965E-05  1.57702895E-05 -5.61686334E-06  1.48131794E-04
  4.39941577E-04  2.37299406E-04 -6.12542335E-05 -1.07138334E-04  1.71705818E-05
 -6.16636581E-05  1.81165310E-04  5.30435451E-05  9.28363961E-05 -7.42721296E-09
 -6.79317132E-08  4.05029714E-07 -3.13718466E-08  1.55092620E-04 -8.86091520E-05
 -6.42603265E-09 -8.71070122E-04  4.97488480E-04  1.10679501E-05 -1.49501136E-04
 -7.49542444E-06  6.36950780E-06  2.61795018E-04 -7.21913813E-08 -2.53038700E-07
  8.05970862E-08 -4.87692348E-07  1.17320229E-04  8.55523528E-01 -4.88691641E-01
 -4.99857933E-06 -3.55164691E-02  2.02878515E-02  7.60813576E-07  5.17294034E-03
 -2.95461512E-03 -1.68850550E-04 -1.37627597E-04  1.14782245E-04 -9.73281890E-05
  2.41224312E-04 -3.77051404E-08 -1.06150892E-07  3.13648731E-07  2.69135487E-09
 -8.70541611E-05  4.97012901E-05 -1.72426623E-07 -4.20479630E-04  2.40424951E-04
 -1.63784415E-04  5.14639060E-05  1.11609307E-04 -9.45972452E-05 -9.01596450E-05
  7.22136892E-08 -9.35829878E-08 -4.55642538E-08  7.75183947E-05 -4.43173069E-05
 -9.40944980E-08 -5.44233147E-08  3.56821251E-08  1.00624738E-04 -5.75280963E-05
 -1.64093712E-04 -8.06008361E-04  4.34621402E-03 -8.21436344E-04 -2.65977055E-05
 -4.66893239E-05  1.57100657E-03  1.57077279E-04  2.75092816E-04  5.08840182E-04
 -1.10562407E-04 -5.23699590E-05 -9.43061957E-04 -6.30208684E-05 -1.60238845E-04
 -6.89505551E-04  1.28581044E-03 -5.80568505E-03  8.79373238E-01 -2.19419481E-01
 -3.83913368E-01 -3.90449229E-02  1.00453687E-02  1.75767952E-02  6.81395090E-03
 -4.20512318E-04 -7.34394507E-04 -1.54470732E-03  9.87635434E-04 -1.37520586E-03
  1.05347162E-03  5.63980137E-04 -3.96318332E-04 -1.02716686E-03  2.85275851E-03
  5.46411187E-05 -6.77747530E-05 -1.18656208E-04 -1.80062025E-03  1.12959712E-03
  1.97744349E-03  3.83248670E-04 -4.15538425E-04  4.96280344E-04 -7.83824073E-05
 -2.37335305E-04 -1.68487023E-04 -2.63214036E-05  2.06811485E-04 -3.00236302E-05
 -5.25157419E-05  1.32772251E-04 -1.69971278E-04  8.70112677E-05  6.47390458E-05
  1.13296912E-04 -9.30415383E-05 -3.80348590E-04  3.62836025E-03 -2.18031962E-04
  3.43754525E-05  6.01848385E-05  1.40928859E-03 -4.81974019E-04 -8.43553967E-04
  1.31237304E-04  3.58960359E-04 -2.23141574E-05 -2.53571193E-04  2.05116757E-04
 -2.63824416E-03 -9.79040471E-03  3.95201130E-03 -3.94505718E-03  4.42858166E-01
  4.36356039E-01  7.64008914E-01 -1.82984026E-02 -1.85870933E-02 -3.25438515E-02
  4.55681219E-03  2.54188424E-03  4.45082199E-03  4.90129913E-04 -4.10069370E-05
  7.75025446E-04  6.52876656E-05 -2.34635679E-05  3.07052328E-04  3.80832917E-04
  5.59557231E-05 -1.92877954E-04  7.37121939E-05  1.29034740E-04  1.77057576E-04
 -6.96722908E-04 -1.21981540E-03 -1.20138527E-04  3.63699192E-04 -2.51794276E-04
 -8.89034693E-05  2.07751518E-04  2.11072661E-04 -3.06938630E-04 -1.42821475E-04
 -5.32977091E-05 -9.32317874E-05 -3.47691243E-04 -1.11406436E-04  1.40503046E-04
 -1.59455472E-05 -2.78429334E-05 -2.74802683E-02  5.17686163E-02  1.12896546E-02
  3.49296757E-02 -3.17658657E-03 -5.55651571E-03  5.26342541E-03 -1.80763772E-03
 -3.16229702E-03 -3.84912235E-03 -2.95345329E-03 -1.37334587E-04  6.50385043E-03
 -1.68797311E-03 -3.87900963E-02 -2.40196697E-01  3.39594162E-01  4.62820322E-02
  1.94520326E-02 -3.71381581E-02 -6.50205851E-02  2.96512908E-02 -5.86802793E-02
 -1.02736038E-01  7.91236939E-03 -1.35731618E-02 -2.37633473E-02  2.32038408E-02
 -2.77041132E-02  3.26509863E-02 -1.67791588E-03 -1.58245533E-02  2.54365581E-01
  5.10398063E-01  3.21113350E-01 -5.02716296E-02  5.62536215E-02  9.84845504E-02
 -2.47882131E-02  2.54723704E-02  4.45954952E-02  6.87218650E-03 -9.89315919E-03
  7.12713450E-03 -3.49581355E-03 -5.64970259E-03  8.01208145E-03  3.05635197E-03
  2.32574813E-03 -5.84728834E-04 -1.02260027E-03  9.90031668E-03 -2.42661614E-03
  1.82643680E-03  8.54237002E-04  1.49470312E-03 -1.79009837E-01  3.50732607E-01
  5.33262148E-02  1.26036721E-01  4.70987825E-03  8.25831313E-03  1.63443266E-03
  1.09095445E-03  1.90959881E-03 -7.33770420E-03  1.01074562E-03  7.76988890E-03
  2.18636560E-02  5.73452800E-04 -4.79290683E-02 -3.04163674E-01  4.42386905E-01
  2.11503756E-01 -9.66567965E-02  1.93152984E-02  3.38027660E-02 -1.59772294E-01
  3.13112056E-02  5.47955530E-02 -1.16431886E-01  1.85236055E-02  3.24126112E-02
 -3.35700052E-02  1.09094392E-02 -1.92156669E-02  3.54795033E-02  6.22608615E-03
 -1.14330850E-01 -2.32029058E-01 -2.05703798E-01 -3.20425636E-02  1.17865433E-02
  2.06328478E-02 -3.71319723E-03  1.08720892E-03  1.90386562E-03 -1.05185654E-04
 -2.85324818E-03  2.37098301E-03  2.97851207E-03 -1.63035362E-03  1.09497703E-01
  1.05225979E-02  7.36979983E-03 -5.99688926E-03 -1.04914584E-02  9.13304579E-02
  9.47461709E-03  7.91275462E-03  4.65941835E-03  8.15418083E-03  1.60198105E-01
 -3.20954910E-01 -1.29905077E-01  1.67447255E-01  2.58554280E-03  4.55419333E-03
  4.94026116E-02 -4.49813773E-03 -7.86442806E-03 -9.75788288E-03 -1.39208035E-03
 -1.59266743E-02 -1.86704473E-03 -7.94464607E-04 -4.44163921E-02 -2.87711751E-01
  4.45324468E-01  1.91698633E-01  3.68206798E-02  8.67859195E-03  1.51988311E-02
  6.46199616E-02  1.30679328E-02  2.28865988E-02  5.87016587E-02  2.86597384E-02
  5.01832789E-02  6.55465130E-03 -4.76169085E-03 -4.58190091E-03 -1.67572634E-02
 -2.71558413E-03 -8.83892437E-02 -1.81726436E-01 -1.98443171E-01 -3.03697361E-02
  8.09285413E-02  1.41685804E-01 -1.62796544E-02  4.03164653E-02  7.05839662E-02
  6.26855740E-03 -4.18645900E-03  8.84647218E-03 -4.21896294E-04 -2.39157464E-03
 -2.08902125E-01 -4.38697220E-02 -5.42126936E-03  9.28294560E-03  1.62411989E-02
 -2.29405461E-01 -5.68559504E-02 -9.02559840E-03 -9.37712083E-03 -1.64091242E-02
  2.65750646E-03 -1.02129201E-02  1.17638092E-02 -2.14758138E-02  1.82372098E-01
  3.19099472E-01  6.23193288E-03  7.90921799E-02  1.38391726E-01  4.81020158E-03
 -3.61690266E-03  2.57548029E-03 -5.29842270E-03 -2.06397669E-03 -2.52266106E-03
 -1.64643485E-02  1.72512617E-02  4.24966214E-02  3.54068595E-02  4.81072171E-02
  8.41513634E-02  6.28530682E-02  8.65700830E-02  1.51432926E-01  7.27776320E-02
  7.41807929E-02  1.29740878E-01 -1.44147430E-02 -3.43673999E-02 -1.94977451E-02
  1.97659897E-03 -1.96395488E-02  3.84372019E-02  7.64980613E-02  1.18161178E-01
  2.04016394E-01 -3.22049230E-02 -5.65278260E-02  1.26813860E-01 -1.67743935E-02
 -2.94575544E-02  4.48463518E-04  1.06723803E-02 -3.75258597E-03 -5.21257342E-03
  6.09389532E-03  2.87437431E-01  7.65104401E-02  1.14718716E-02 -7.08362239E-03
 -1.23920163E-02 -2.44636974E-01 -5.69752085E-02 -1.27495774E-02 -5.11941230E-03
 -8.96022883E-03 -1.72665730E-02  2.39223978E-02  7.66314572E-02 -2.91648999E-01
 -9.92286518E-03 -1.74059705E-02 -9.91338840E-02 -6.72821930E-03 -1.17845618E-02
  1.27135710E-02 -3.35348584E-04  7.32367295E-03 -1.33906208E-02 -1.89316091E-04
 -8.92140160E-03 -5.96443445E-02  1.01505245E-01  9.11872451E-03  1.63125169E-01
 -2.01933213E-02 -3.53320161E-02  2.95650542E-01 -3.95643029E-02 -6.92289512E-02
  2.37617145E-01 -8.85838487E-04 -1.51886201E-03  2.80319227E-02 -3.68069075E-02
  1.82193178E-02 -2.70698044E-02 -2.10181211E-02 -6.81584759E-02 -1.39892209E-01
 -1.83778848E-01  9.18594814E-02  1.83153557E-01  3.20685870E-01  6.12949737E-02
  1.13643468E-01  1.98981042E-01  1.49633364E-02 -7.59979110E-04  1.66863414E-02
 -6.23209624E-03 -4.33984624E-04  1.18423255E-01  3.87981260E-02  6.82669495E-04
 -4.58253419E-03 -8.01778413E-03  1.74084808E-01  3.21360806E-02  2.54850241E-03
  6.67959189E-03  1.16885421E-02 -1.14059649E-06  3.21906724E-06  3.78119458E-06
  1.01889929E-05  5.59690680E-02 -3.20445037E-02  8.49320060E-07  2.74466589E-02
 -1.57144076E-02  2.58385616E-04 -6.36911295E-03 -1.76210207E-04  1.52896594E-04
  1.11495086E-02  1.67547338E-06  1.08490968E-05 -1.17831882E-05 -2.83920454E-05
  1.22481404E-06  1.34498202E-01 -7.68586126E-02  2.68733016E-06  2.41046586E-01
 -1.37746691E-01  5.14307057E-07  2.57505224E-01 -1.47136190E-01  3.88136007E-02
  1.36755780E-03 -2.64238977E-02  2.24031202E-02 -2.38124511E-03 -1.15170532E-05
 -2.25531247E-05 -3.76479420E-05 -4.35031621E-05  4.42367437E-01 -2.52625109E-01
 -2.77596831E-05  2.92036398E-01 -1.66778829E-01 -1.87198216E-02  5.74808587E-03
  1.27510842E-02 -1.08074185E-02 -1.00697991E-02 -4.28847546E-05 -1.52011298E-05
 -1.73934241E-06  1.35200531E-03 -7.70307611E-04  3.61033422E-05  6.12786368E-06
  1.67883411E-06  1.59007129E-03 -9.07347432E-04 -2.21892382E-03  5.28895572E-03
  7.02141664E-03  9.21973105E-04 -1.09872602E-01 -1.92231215E-01 -1.31013068E-02
 -4.98687192E-02 -8.72458460E-02 -1.26210336E-03  1.32874745E-02 -2.69991845E-03
 -9.93552715E-04  7.59106515E-03 -9.90882874E-03 -6.46615722E-02  7.60099662E-02
  1.92291254E-01  2.63553906E-02  6.84677208E-02  1.19873234E-01  4.22643037E-02
  1.27434811E-01  2.23112958E-01  8.18257796E-02  1.04171273E-01  1.82382543E-01
 -4.69143096E-02  1.38024687E-02 -5.20515897E-02  1.98805768E-02  7.89708626E-03
  3.90744373E-02  8.10475093E-02  1.13686846E-01  4.13861155E-01 -7.85359630E-02
 -1.37602907E-01  2.93442404E-01 -4.95203550E-02 -8.67768926E-02  8.30631878E-04
  2.03950079E-02 -6.13244760E-03 -8.67707287E-03  1.16484918E-02 -2.02204319E-01
 -8.39588425E-02 -7.25290478E-03  4.43234276E-03  7.75367880E-03  1.80740142E-01
  5.61537375E-02  7.08696498E-03  3.62741306E-03  6.34911625E-03 -5.04627960E-02
  1.29764442E-01  1.56128312E-01  2.42710881E-01  2.90888545E-03  5.09343451E-03
  1.28417640E-01  2.67174356E-02  4.67591585E-02 -7.20452760E-03 -8.71153755E-03
 -1.23961934E-03  1.10142488E-02 -4.97696607E-03  1.77086575E-02  1.16883126E-01
 -1.32539460E-01 -3.60896834E-01 -9.96293922E-02 -5.41169367E-02 -9.47776489E-02
 -1.96321929E-01 -9.97876549E-02 -1.74764986E-01 -1.38383297E-01 -1.26432487E-01
 -2.21409328E-01 -4.77113844E-02 -5.61371857E-02  2.41256442E-03  8.54679094E-02
 -3.20839805E-02  7.45666777E-04  6.11018057E-03 -2.15088765E-02  3.71378265E-01
  1.45231704E-01  2.54371186E-01  3.18921630E-01  1.12811265E-01  1.97593447E-01
  1.03176917E-02  5.39491188E-03  9.07900005E-03 -7.15786548E-03  3.08205608E-03
 -4.08525391E-02 -6.30337963E-02  3.14020603E-03  2.23148366E-03  3.90333186E-03
 -8.79695660E-02 -6.66442850E-02 -7.61604813E-04 -2.50037400E-03 -4.37598263E-03
  2.95837848E-06 -2.42624438E-06 -3.27690627E-05  5.17354133E-06  1.63637005E-01
 -9.35494528E-02  9.46957125E-06  1.43119860E-01 -8.17973937E-02 -1.34986055E-03
 -1.30099207E-02  9.19227257E-04 -7.75763673E-04  2.27793497E-02 -2.04270089E-06
 -1.35359472E-05  1.46308631E-05  5.30534632E-05  2.10833733E-05  1.64273157E-01
 -9.38158360E-02  3.91113766E-05  3.06785491E-01 -1.75202779E-01  5.51106782E-05
  4.16120000E-01 -2.37664230E-01 -4.94399111E-02  4.42526146E-02  3.36612463E-02
 -2.85571251E-02 -7.74344281E-02 -1.70468720E-06 -2.84511786E-06 -1.62873612E-05
 -1.38538644E-05 -3.42298712E-01  1.95468020E-01 -1.41393881E-05 -3.07622979E-01
  1.75666301E-01  5.48460443E-03 -1.47912515E-03 -3.73660167E-03  3.16712293E-03
  2.59146821E-03 -3.54876492E-05 -1.42001071E-05  9.76098787E-08  4.49907721E-03
 -2.57023186E-03  3.92087914E-05  3.78604433E-05  1.78562416E-06  3.38340227E-03
 -1.93220142E-03  2.74493760E-07  2.55970422E-07  4.59628786E-05  2.13240392E-05
  3.41803674E-01 -1.95340896E-01  1.86478249E-05  6.30898901E-01 -3.60585751E-01
 -9.04809717E-05 -1.41196414E-03  6.13628956E-05 -5.36331073E-05  2.45479880E-03
 -3.19093868E-06 -2.11886404E-05  1.26972750E-05  1.43959858E-04  2.41367897E-06
 -1.06095053E-01  6.05823231E-02  6.17170846E-07 -1.89173129E-01  1.08025373E-01
  3.30356502E-05 -4.74260880E-01  2.70765656E-01  2.21721744E-02  4.51889677E-02