0005_q000_m01_k00_opt_uwb97xd_def2svpd/0005_q000_m01_k00_force_ub3lyp_de
Force     UB3LYP                                                      Gen                 
Number of atoms                            I                5
Info1-9                                    I   N=           9
          13           9           0           0           0         100
           5          18        -502
Full Title                                 C   N=           8
0005_q000_m01_k00_opt_uwb97xd_def2svpd/0005_q000_m01_k00_for
ce_ub3lyp_def2svpd stable-force     
Route                                      C   N=          15
#p ub3lyp/chkbasis force guess=read geom=check scf=(maxcycle
=900,verytightlineq,xqc) integral=grid=ultrafine symmetry=No
ne density=current pop=(cm5,hlygat,mbs,npa) output=wfx      
Charge                                     I                0
Multiplicity                               I                1
Number of electrons                        I               32
Number of alpha electrons                  I               16
Number of beta electrons                   I               16
Number of basis functions                  I               86
Number of independent functions            I               86
Number of point charges in /Mol/           I                0
Number of translation vectors              I                0
Atomic numbers                             I   N=           5
           6          16           8           1           1
Nuclear charges                            R   N=           5
  6.00000000E+00  1.60000000E+01  8.00000000E+00  1.00000000E+00  1.00000000E+00
Current cartesian coordinates              R   N=          15
  1.84630873E+00 -3.74093449E-02 -1.90536037E-01  4.89061526E+00 -6.53203910E-02
 -2.38935210E-01  5.99277468E+00 -1.34985333E+00 -2.48781287E+00  9.79013775E-01
  8.91172187E-01  1.43410851E+00  7.00713826E-01 -8.88557081E-01 -1.68005585E+00
Number of symbols in /Mol/                 I                0
Int Atom Types                             I   N=           5
           0           0           0           0           0
Force Field                                I                0
Atom Types                                 C   N=           5
                                                            
MM charges                                 R   N=           5
  0.00000000E+00  0.00000000E+00  0.00000000E+00  0.00000000E+00  0.00000000E+00
Integer atomic weights                     I   N=           5
          12          32          16           1           1
Real atomic weights                        R   N=           5
  1.20000000E+01  3.19720718E+01  1.59949146E+01  1.00782504E+00  1.00782504E+00
Atom fragment info                         I   N=           5
           0           0           0           0           0
Atom residue num                           I   N=           5
           0           0           0           0           0
Nuclear spins                              I   N=           5
           0           0           0           1           1
Nuclear ZEff                               R   N=           5
 -3.60000000E+00 -1.36000000E+01 -5.60000000E+00 -1.00000000E+00 -1.00000000E+00
Nuclear ZNuc                               R   N=           5
  6.00000000E+00  1.60000000E+01  8.00000000E+00  1.00000000E+00  1.00000000E+00
Nuclear QMom                               R   N=           5
  0.00000000E+00  0.00000000E+00  0.00000000E+00  0.00000000E+00  0.00000000E+00
Nuclear GFac                               R   N=           5
  0.00000000E+00  0.00000000E+00  0.00000000E+00  2.79284600E+00  2.79284600E+00
MicOpt                                     I   N=           5
          -1          -1          -1          -1          -1
Number of residues                         I                0
Number of secondary structures             I                0
Number of contracted shells                I               36
Number of primitive shells                 I               62
Pure/Cartesian d shells                    I                0
Pure/Cartesian f shells                    I                0
Highest angular momentum                   I                2
Largest degree of contraction              I                5
Shell types                                I   N=          36
           0           0           0           0           1           1
          -2          -2           0           0           0           0
           0           1           1           1           1          -2
          -2           0           0           0           0           1
           1           1          -2          -2           0           0
           1           1           0           0           1           1
Number of primitives per shell             I   N=          36
           5           1           1           1           3           1
           1           1           5           3           1           1
           1           5           1           1           1           1
           1           5           1           1           1           3
           1           1           1           1           3           1
           1           1           3           1           1           1
Shell to atom map                          I   N=          36
           1           1           1           1           1           1
           1           1           2           2           2           2
           2           2           2           2           2           2
           2           3           3           3           3           3
           3           3           3           3           4           4
           4           4           5           5           5           5
Primitive exponents                        R   N=          62
  1.23840169E+03  1.86290050E+02  4.22511763E+01  1.16765579E+01  3.59305065E+00
  4.02451474E-01  1.30901827E-01  6.70535403E-02  9.46809706E+00  2.01035451E+00
  5.47710047E-01  1.52686138E-01  8.00000000E-01  1.17131851E-01  9.18493030E+03
  1.38151055E+03  3.13871476E+02  8.80538706E+01  2.70399149E+01  4.56487313E+01
  4.96645223E+00  2.01162420E+00  3.56610770E-01  1.35072215E-01  4.49998235E-02
  2.61982334E+02  6.13068947E+01  1.91037299E+01  6.65677204E+00  2.39596352E+00
  6.17761617E-01  1.69933769E-01  4.17067937E-02  5.50000000E-01  1.01728537E-01
  2.26617678E+03  3.40870102E+02  7.73631352E+01  2.14796449E+01  6.65894331E+00
  8.09759757E-01  2.55307722E-01  7.65724533E-02  1.77215043E+01  3.86355054E+00
  1.04809209E+00  2.76415444E-01  6.90022764E-02  1.20000000E+00  1.79920243E-01
  1.30107010E+01  1.96225720E+00  4.44537960E-01  1.21949620E-01  8.00000000E-01
  1.17040991E-01  1.30107010E+01  1.96225720E+00  4.44537960E-01  1.21949620E-01
  8.00000000E-01  1.17040991E-01
Contraction coefficients                   R   N=          62
  5.51736505E-03  4.10888286E-02  1.82253821E-01  4.68284594E-01  4.45758173E-01
  1.00000000E+00  1.00000000E+00  1.00000000E+00  5.68883320E-02  3.12940593E-01
  7.60650165E-01  1.00000000E+00  1.00000000E+00  1.00000000E+00 -5.47294661E-03
 -4.09544022E-02 -1.84758290E-01 -4.75672806E-01 -4.34951536E-01 -9.19040458E-02
  5.56987772E-01  5.11154683E-01  1.00000000E+00  1.00000000E+00  1.00000000E+00
 -9.18305466E-03 -6.59022265E-02 -2.45877845E-01 -4.82314711E-01 -3.89563144E-01
  1.00000000E+00  1.00000000E+00  1.00000000E+00  1.00000000E+00  1.00000000E+00
 -5.38935039E-03 -4.02347214E-02 -1.80081842E-01 -4.68288577E-01 -4.46926172E-01
  1.00000000E+00  1.00000000E+00  1.00000000E+00  6.26302488E-02  3.33311385E-01
  7.41486383E-01  1.00000000E+00  1.00000000E+00  1.00000000E+00  1.00000000E+00
  3.34854848E-02  2.34721871E-01  8.13770285E-01  1.00000000E+00  1.00000000E+00
  1.00000000E+00  3.34854848E-02  2.34721871E-01  8.13770285E-01  1.00000000E+00
  1.00000000E+00  1.00000000E+00
Coordinates of each shell                  R   N=         108
  1.84630873E+00 -3.74093449E-02 -1.90536037E-01  1.84630873E+00 -3.74093449E-02
 -1.90536037E-01  1.84630873E+00 -3.74093449E-02 -1.90536037E-01  1.84630873E+00
 -3.74093449E-02 -1.90536037E-01  1.84630873E+00 -3.74093449E-02 -1.90536037E-01
  1.84630873E+00 -3.74093449E-02 -1.90536037E-01  1.84630873E+00 -3.74093449E-02
 -1.90536037E-01  1.84630873E+00 -3.74093449E-02 -1.90536037E-01  4.89061526E+00
 -6.53203910E-02 -2.38935210E-01  4.89061526E+00 -6.53203910E-02 -2.38935210E-01
  4.89061526E+00 -6.53203910E-02 -2.38935210E-01  4.89061526E+00 -6.53203910E-02
 -2.38935210E-01  4.89061526E+00 -6.53203910E-02 -2.38935210E-01  4.89061526E+00
 -6.53203910E-02 -2.38935210E-01  4.89061526E+00 -6.53203910E-02 -2.38935210E-01
  4.89061526E+00 -6.53203910E-02 -2.38935210E-01  4.89061526E+00 -6.53203910E-02
 -2.38935210E-01  4.89061526E+00 -6.53203910E-02 -2.38935210E-01  4.89061526E+00
 -6.53203910E-02 -2.38935210E-01  5.99277468E+00 -1.34985333E+00 -2.48781287E+00
  5.99277468E+00 -1.34985333E+00 -2.48781287E+00  5.99277468E+00 -1.34985333E+00
 -2.48781287E+00  5.99277468E+00 -1.34985333E+00 -2.48781287E+00  5.99277468E+00
 -1.34985333E+00 -2.48781287E+00  5.99277468E+00 -1.34985333E+00 -2.48781287E+00
  5.99277468E+00 -1.34985333E+00 -2.48781287E+00  5.99277468E+00 -1.34985333E+00
 -2.48781287E+00  5.99277468E+00 -1.34985333E+00 -2.48781287E+00  9.79013775E-01
  8.91172187E-01  1.43410851E+00  9.79013775E-01  8.91172187E-01  1.43410851E+00
  9.79013775E-01  8.91172187E-01  1.43410851E+00  9.79013775E-01  8.91172187E-01
  1.43410851E+00  7.00713826E-01 -8.88557081E-01 -1.68005585E+00  7.00713826E-01
 -8.88557081E-01 -1.68005585E+00  7.00713826E-01 -8.88557081E-01 -1.68005585E+00
  7.00713826E-01 -8.88557081E-01 -1.68005585E+00
Num ILSW                                   I              100
ILSW                                       I   N=         100
           1           0           0           0           2           0
           0           0           0           0         402          -1
           5           0           0           0           2           0
           0           0           0           0           1           0
           1           1           0           0           0           0
           0           0      100000           0          -1           0
           0           0           0           0           0           0
           0           0           0           1           0           0
           0 -2000000000           1           0           0           0
           0           0           4          52           0           0
           0           0           5           0           0           0
           0           0           0           5           0           1
           0           0           0           0           0           0
           0           0           0           0           0           0
           0           0           0           0           0           0
           0           0           0           0           0           0
           0           0           0           0
Num RLSW                                   I               52
RLSW                                       R   N=          52
  8.00000000E-01  7.20000000E-01  1.00000000E+00  8.10000000E-01  2.00000000E-01
  0.00000000E+00  0.00000000E+00  1.00000000E+00  0.00000000E+00  0.00000000E+00
  0.00000000E+00  0.00000000E+00  1.00000000E+00  0.00000000E+00  0.00000000E+00
  0.00000000E+00  0.00000000E+00  1.00000000E+00  0.00000000E+00  0.00000000E+00
  0.00000000E+00  0.00000000E+00  1.00000000E+00  0.00000000E+00  0.00000000E+00
  0.00000000E+00  0.00000000E+00  1.00000000E+00  0.00000000E+00  0.00000000E+00
  0.00000000E+00  0.00000000E+00  1.00000000E+00  0.00000000E+00  0.00000000E+00
  0.00000000E+00  0.00000000E+00  0.00000000E+00  1.00000000E+00  1.00000000E+00
  0.00000000E+00  1.00000000E+00  0.00000000E+00  0.00000000E+00  0.00000000E+00
  0.00000000E+00  0.00000000E+00  0.00000000E+00  0.00000000E+00  0.00000000E+00
  0.00000000E+00  0.00000000E+00
MxBond                                     I                3
NBond                                      I   N=           5
           3           2           1           1           1
IBond                                      I   N=          15
           2           4           5           1           3           0
           2           0           0           1           0           0
           1           0           0
RBond                                      R   N=          15
  2.00000000E+00  1.00000000E+00  1.00000000E+00  2.00000000E+00  2.00000000E+00
  0.00000000E+00  2.00000000E+00  0.00000000E+00  0.00000000E+00  1.00000000E+00
  0.00000000E+00  0.00000000E+00  1.00000000E+00  0.00000000E+00  0.00000000E+00
Virial Ratio                               R      2.004131573096747E+00
SCF Energy                                 R     -5.124763728344898E+02
Total Energy                               R     -5.124763728344898E+02
S**2                                       R     -3.552713678800501E-15
S**2 after annihilation                    R      8.988365607365220E-13
RMS Force                                  R      5.690074997393998E-03
RMS Density                                R      2.020792704045401E-09
Job Status                                 I                1
Nuclear derivative order                   I                1
External E-field                           R   N=          35
  0.00000000E+00  0.00000000E+00  0.00000000E+00  0.00000000E+00  0.00000000E+00
  0.00000000E+00  0.00000000E+00  0.00000000E+00  0.00000000E+00  0.00000000E+00
  0.00000000E+00  0.00000000E+00  0.00000000E+00  0.00000000E+00  0.00000000E+00
  0.00000000E+00  0.00000000E+00  0.00000000E+00  0.00000000E+00  0.00000000E+00
  0.00000000E+00  0.00000000E+00  0.00000000E+00  0.00000000E+00  0.00000000E+00
  0.00000000E+00  0.00000000E+00  0.00000000E+00  0.00000000E+00  0.00000000E+00
  0.00000000E+00  0.00000000E+00  0.00000000E+00  0.00000000E+00  0.00000000E+00
IOpCl                                      I                1
IROHF                                      I                0
Alpha Orbital Energies                     R   N=          86
 -8.89807780E+01 -1.91443249E+01 -1.02450954E+01 -8.06077130E+00 -6.02896773E+00
 -6.02689629E+00 -6.02325526E+00 -1.04490040E+00 -8.04990214E-01 -6.06690025E-01
 -4.96722926E-01 -4.70499994E-01 -4.28243151E-01 -3.98171653E-01 -2.92634801E-01
 -2.82461274E-01 -9.67583956E-02  4.17668729E-03  1.12536539E-02  3.16389321E-02
  5.19304966E-02  5.52468967E-02  8.06655728E-02  1.02820490E-01  1.27063408E-01
  1.47018225E-01  1.52877191E-01  1.66208301E-01  1.84637482E-01  1.99287737E-01
  2.14138991E-01  2.24838774E-01  2.32074947E-01  2.46644683E-01  2.87195177E-01
  2.88954111E-01  3.13795589E-01  3.19853010E-01  3.41241334E-01  3.69718661E-01
  3.73593862E-01  3.76235835E-01  4.17157465E-01  4.31759772E-01  4.47520327E-01
  4.79147481E-01  5.54538846E-01  5.76297346E-01  5.84457245E-01  5.95827928E-01
  6.22371758E-01  7.24717580E-01  7.43570666E-01  7.65275398E-01  8.11984910E-01
  8.30084258E-01  8.76608017E-01  8.87279373E-01  9.28769723E-01  9.50679752E-01
  9.80098444E-01  1.02062965E+00  1.09875168E+00  1.13748985E+00  1.18283399E+00
  1.27330576E+00  1.32182507E+00  1.42093961E+00  1.42608827E+00  1.47925020E+00
  1.57149658E+00  1.67339274E+00  1.74521478E+00  1.78309636E+00  2.04997149E+00
  2.05013164E+00  2.08013694E+00  2.24116124E+00  2.44365199E+00  2.82622788E+00
  2.83140508E+00  2.84752900E+00  2.85922518E+00  2.93462215E+00  2.98224927E+00
  3.36013164E+00
Beta Orbital Energies                      R   N=          86
 -8.89807780E+01 -1.91443249E+01 -1.02450954E+01 -8.06077130E+00 -6.02896773E+00
 -6.02689629E+00 -6.02325526E+00 -1.04490040E+00 -8.04990214E-01 -6.06690025E-01
 -4.96722926E-01 -4.70499994E-01 -4.28243151E-01 -3.98171653E-01 -2.92634801E-01
 -2.82461274E-01 -9.67583956E-02  4.17668729E-03  1.12536539E-02  3.16389321E-02
  5.19304966E-02  5.52468967E-02  8.06655728E-02  1.02820490E-01  1.27063408E-01
  1.47018225E-01  1.52877191E-01  1.66208301E-01  1.84637482E-01  1.99287737E-01
  2.14138991E-01  2.24838774E-01  2.32074947E-01  2.46644683E-01  2.87195177E-01
  2.88954111E-01  3.13795589E-01  3.19853010E-01  3.41241334E-01  3.69718661E-01
  3.73593862E-01  3.76235835E-01  4.17157465E-01  4.31759772E-01  4.47520327E-01
  4.79147481E-01  5.54538846E-01  5.76297346E-01  5.84457245E-01  5.95827928E-01
  6.22371758E-01  7.24717580E-01  7.43570666E-01  7.65275398E-01  8.11984910E-01
  8.30084258E-01  8.76608017E-01  8.87279373E-01  9.28769723E-01  9.50679752E-01
  9.80098444E-01  1.02062965E+00  1.09875168E+00  1.13748985E+00  1.18283399E+00
  1.27330576E+00  1.32182507E+00  1.42093961E+00  1.42608827E+00  1.47925020E+00
  1.57149658E+00  1.67339274E+00  1.74521478E+00  1.78309636E+00  2.04997149E+00
  2.05013164E+00  2.08013694E+00  2.24116124E+00  2.44365199E+00  2.82622788E+00
  2.83140508E+00  2.84752900E+00  2.85922518E+00  2.93462215E+00  2.98224927E+00
  3.36013164E+00
Alpha MO coefficients                      R   N=        7396
  1.05331665E-04 -6.73837596E-04  1.02023115E-02  8.11299963E-03 -2.54942520E-04
  6.17607117E-05  1.07931552E-04  6.21261542E-04 -2.27778114E-03 -3.98485308E-03
  3.59926295E-04  6.20281477E-05  7.90668336E-05 -5.30236286E-04  3.55685886E-05
  3.57125152E-04  6.33515361E-03  1.19612746E-03  7.92361124E-04  3.61960873E-03
  9.94159346E-01 -2.24999278E-02  1.51004653E-02 -1.37487741E-02 -5.89418426E-03
 -8.06836170E-05 -9.39406130E-05 -1.64519762E-04 -2.43139416E-04 -2.97348529E-04
 -5.20910319E-04  3.68097450E-03 -2.43500996E-03 -4.26152873E-03  3.86199453E-04
  2.85251583E-04  4.99775672E-04  3.64843649E-04 -4.77443653E-04  5.81387778E-04
  5.38782611E-05 -2.72714314E-04  2.95568149E-04  3.76964063E-03 -1.14461699E-03
 -1.86099617E-03  2.15384249E-03  1.54069000E-05  8.43383843E-04 -2.44570377E-03
  5.81869928E-03 -6.78895880E-05  1.37731801E-05  2.40839331E-05  1.39908831E-03
 -1.32229103E-03 -2.31486592E-03  7.19844850E-04  5.29084820E-04  9.26774762E-04
 -3.53460170E-04  3.86635269E-04 -4.98762157E-04  2.38643258E-05  2.20851476E-04
 -1.01212772E-03  1.20030618E-03 -1.14651169E-03  4.00839213E-04  6.85487539E-04
 -4.18386764E-05  8.45003008E-03 -1.49830766E-04 -4.19878891E-05 -7.35402016E-05
 -6.28353424E-04 -1.41396837E-03 -2.47368901E-03 -5.52599177E-04 -1.80997507E-02
 -1.42941294E-04 -4.82704231E-05 -8.45265972E-05 -4.95216319E-04 -1.70244942E-03
 -2.97835166E-03 -1.55771747E-05 -5.65158648E-04  3.16531311E-04  1.61026644E-03
  1.27317255E-04  5.59701214E-06  9.78348708E-06  4.94795139E-03 -2.33220801E-03
 -4.08117802E-03 -1.00946976E-04 -2.26828945E-04  4.01339570E-06  1.79507195E-04
 -1.29533020E-04 -3.98930936E-03 -1.76473598E-03 -1.19384621E-03  5.50491982E-03
 -1.00965368E-03 -1.17806549E-05  2.95458007E-06  6.39149640E-04 -2.61328818E-02
  3.57287563E-03  3.63180520E-05 -7.03941485E-05 -1.23230435E-04 -4.56115136E-04
  1.88087513E-04  3.29362295E-04  5.41134556E-04  6.14554841E-03  1.07589962E-02
 -5.02977853E-04 -8.14142398E-04 -1.42560789E-03 -2.08806446E-04  2.65546163E-04
 -6.34117010E-04 -3.86409065E-04  1.51717880E-04 -2.80259885E-03  3.08621225E-03
 -3.99338638E-03  1.44133424E-04  1.76277343E-03  9.88571339E-01 -4.39614173E-02
  3.91915504E-02 -7.83447492E-03  8.90625297E-04 -9.90214848E-04 -1.73374097E-03
 -3.66552440E-03  4.00336249E-03  7.00916713E-03  1.91127962E-03 -4.89154771E-04
 -8.56055661E-04  1.10530698E-04 -2.30394328E-04  2.26734048E-04  7.59784198E-05
 -1.31606452E-04  9.90647574E-04 -7.91190673E-04  8.54860357E-04 -7.07235687E-04
 -4.51773528E-04  2.55797950E-04  8.75868673E-03  9.19930791E-06 -4.40259739E-05
 -7.71526640E-05  6.08642617E-03  2.09494509E-04  3.68061670E-04 -2.86491581E-04
  8.28659505E-04 -1.28599682E-04  4.57445143E-05  8.01523256E-05  2.89747040E-03
 -1.12513143E-03 -1.96719887E-03  9.87607369E-01  5.80936183E-02 -1.26495933E-01
 -1.28357899E-02 -1.05468988E-03  8.67383983E-05  1.51498067E-04  1.20136296E-02
 -6.11789395E-04 -1.06851016E-03  5.72340140E-04  1.59447344E-04  1.64805243E-03
  9.50602704E-04  9.08775750E-05 -4.90527326E-03 -4.86698496E-04 -8.89417563E-03
 -1.98575608E-03 -2.77598952E-04  7.98217561E-05  6.60327208E-04 -2.21408115E-03
  1.34581850E-02 -1.66906327E-03  3.83966074E-04 -3.01182418E-06 -5.21102139E-06
  1.41164483E-03  4.38539531E-05  7.70195696E-05 -2.27740201E-03 -3.56533788E-04
 -6.24963656E-04  2.32031324E-03  2.63745306E-05  4.63207147E-05  1.10653288E-03
 -1.72695719E-04  1.15793767E-04 -1.77995895E-03 -9.83183661E-05  1.01237811E-03
 -1.39763736E-03  9.19491462E-04 -6.69212565E-04 -7.98094666E-04 -1.35887826E-05
  1.32090032E-04 -2.67105173E-03  1.50097238E-03  3.08254319E-04 -6.76084570E-05
 -1.18346469E-04 -6.14944973E-04 -2.11328249E-04 -3.69959386E-04 -2.54777690E-03
  1.36612218E-04  2.39276856E-04 -2.45553371E-06  1.20716222E-04 -4.57291973E-05
 -4.96780655E-05  6.89573922E-05 -5.91810140E-04 -4.27194639E-04  2.25103366E-04
  1.29077842E-03 -2.44129387E-04 -2.66844342E-03  5.73300449E-02 -1.19023928E-03
  1.00629576E-03  1.76064284E-03  9.48270049E-03 -6.06293353E-03 -1.06056356E-02
 -2.68575466E-03  5.74747640E-02 -1.36986453E-03 -9.49173154E-04 -1.66119098E-03
  1.14896346E-02  5.48541178E-03  9.59980840E-03  9.83238126E-05 -1.85294041E-03
  2.25172178E-02  1.77907936E-02 -6.89919655E-04  1.48898253E-04  2.60177235E-04
  1.84913591E-03 -6.14701805E-03 -1.07539574E-02  4.84938088E-04  8.65868056E-05
 -9.37054523E-06 -8.50956489E-04  4.97183519E-05  7.58388888E-04  1.56154677E-02
  2.58118644E-03  1.73170501E-03  8.92190708E-03  3.06260843E-01  1.01885785E+00
  6.35860157E-02 -4.41110854E-02 -1.44054772E-02  3.79834962E-03  4.38681530E-03
  7.67931403E-03 -8.90395217E-04 -9.80325256E-04 -1.71691092E-03  7.63528114E-03
 -4.84523220E-03 -8.47932894E-03  3.42716385E-04  9.34118310E-04  1.63626352E-03
  6.52659026E-04 -1.15060389E-03  1.18813271E-03  2.71017551E-04 -6.57272849E-04
  4.91842664E-04  9.89292465E-03 -3.16054423E-03 -4.57721670E-03  5.65234263E-03
  1.25343779E-04  1.14130721E-03 -3.23060991E-03  1.80749822E-02 -9.38540812E-05
 -5.31122228E-05 -9.30585422E-05  2.73231692E-03 -2.37075058E-03 -4.15024576E-03
  1.48652945E-03  1.92191772E-03  3.36609678E-03 -4.42234819E-04  4.31339128E-04
 -6.26881526E-04  2.64572812E-05  2.46391713E-04 -2.24315875E-03  2.77929821E-03
 -2.51523886E-03  9.18835218E-04  1.58726327E-03  2.27258648E-04  2.42996413E-02
 -7.99906318E-05 -1.58925081E-04 -2.78209460E-04 -9.23425499E-04 -3.87326423E-03
 -6.77603062E-03 -1.13099629E-03 -4.40309291E-02 -6.13922202E-05 -8.42123937E-05
 -1.47454202E-04 -1.33903474E-03 -4.20322639E-03 -7.35321363E-03 -1.60671657E-05
 -8.83154721E-04  2.25076126E-02  1.08920684E-02 -7.76499714E-04  4.13444889E-05
  7.21782866E-05  4.21469451E-03 -1.33395486E-03 -2.33337197E-03  6.54578260E-04
 -1.25752984E-04  9.47930111E-05 -1.02204159E-03 -7.16961403E-05 -1.16482622E-03
  7.05684220E-03 -1.87897466E-04  1.79520381E-03  4.03279261E-03  1.11354024E-03
  3.93342288E-03  1.74576116E-05 -2.12356019E-02 -6.06660029E-03  7.09840886E-01
 -3.36060545E-01 -5.88115687E-01 -3.93209711E-02  1.87548082E-02  3.28218443E-02
  1.61642266E-02 -4.74121775E-03 -8.29405042E-03  3.53539360E-03 -7.69545620E-04
 -1.34642003E-03 -1.77126874E-03  1.31659920E-03 -1.78391373E-03  9.63896385E-04
  7.51989813E-04  3.27627561E-03  1.12029316E-03  1.34765861E-03 -4.08423324E-03
  6.41464726E-04 -3.19217895E-04 -1.27251259E-03  1.35392563E-03  4.11446727E-03
  1.00388967E-04 -4.12624519E-05 -7.22312615E-05 -2.76969995E-03  2.38259956E-03
  4.17111439E-03 -1.41842452E-03  1.59017865E-03  2.78401385E-03  5.51615043E-04
 -5.85042335E-04  7.00573441E-04 -1.29008849E-04 -3.34130103E-04  1.13862488E-03
 -2.46945879E-03  2.43053440E-03  8.94669949E-04 -1.41086022E-03 -6.41221917E-05
  5.38208274E-03 -5.81743828E-05  6.44438518E-06  1.13160039E-05 -1.92356411E-03
 -5.42746419E-04 -9.48936669E-04 -1.77600837E-04 -1.78388826E-02 -7.47347992E-05
 -1.13928139E-05 -2.00192257E-05  8.07030332E-04 -2.19957830E-03 -3.85011862E-03
 -2.64029784E-09  2.60829936E-08  3.28420697E-07 -2.63523156E-07 -3.30741484E-08
  3.26062162E-04 -1.86482677E-04 -2.79525347E-07 -2.86024125E-03  1.63886575E-03
  4.24717868E-06 -2.36696179E-04 -2.83246225E-06  2.41484174E-06  4.14285790E-04
  1.89408056E-05  2.41047956E-03 -1.24508501E-05  9.43835447E-06 -4.23004426E-03
 -8.36905553E-08 -2.18947531E-07 -7.17234585E-07  4.28859050E-07  1.72596336E-06
  1.11094384E-04  8.52749114E-01 -4.87142916E-01 -5.96307280E-06 -4.39321122E-02
  2.50966301E-02  1.31229290E-06  1.34682095E-02 -7.69029878E-03  3.39669334E-07
 -4.73398100E-05  2.70827156E-05 -3.32392262E-04 -4.04581266E-05  2.25915221E-04
 -1.91727062E-04  7.12941824E-05  8.85171283E-04  1.69415232E-03 -6.02674852E-04
  5.10291048E-04 -2.96917416E-03 -3.97351013E-08 -2.31361915E-07  9.19951236E-07
 -2.25013498E-06 -1.83200752E-08  6.12482102E-05 -3.50040274E-05 -3.22751638E-07
 -7.79870203E-04  4.46451666E-04  4.63730021E-08 -1.24236875E-03  7.09231493E-04
 -2.62557334E-04  8.87889924E-05  1.78926262E-04 -1.51652056E-04 -1.55599767E-04
  5.42667054E-04 -3.55854548E-04 -3.68894641E-04  3.13127464E-04  6.22324263E-04
 -1.97698485E-07 -1.07206580E-05  3.56778648E-08  1.89541101E-04 -1.08247858E-04
  7.28810688E-07 -1.39577858E-03  8.00934471E-04  2.22501182E-07  1.02635686E-05
  1.35666954E-08  1.85093904E-04 -1.05740384E-04 -5.57526727E-07 -1.90190754E-03
  1.08994260E-03 -4.85406081E-05 -7.49264151E-04  1.74547008E-02  1.26356204E-02
 -6.53205953E-04 -1.09150966E-04 -1.90823095E-04  6.09226771E-03  3.49721820E-03
  6.11768887E-03  4.50610228E-04  2.26349630E-04  9.39351125E-05 -6.69736539E-04
  1.29394029E-04 -5.00793975E-05 -1.41936114E-02  7.16049779E-04  9.26954151E-04
 -8.11070230E-03 -2.98475871E-03 -1.05835811E-02  3.27811588E-03 -1.08961301E-02
 -3.57249361E-03  6.77813516E-01  3.52215178E-01  6.16711320E-01 -3.59872903E-02
 -1.88665705E-02 -3.30339169E-02  1.73078211E-02  8.89318774E-03  1.55688976E-02
  5.99678218E-03  4.53082343E-04  7.93103166E-04  1.19516009E-04  1.13764274E-04
  4.40836125E-04  3.12895667E-04  6.49387819E-05  5.91282841E-04 -7.38517223E-03
 -8.46965342E-04 -2.02406017E-03 -4.21860219E-03  1.23350799E-04  1.30660819E-04
  1.90919862E-03 -7.75186878E-03  3.87870764E-05  2.36142505E-05  4.13335259E-05
 -1.26459549E-03 -4.02342451E-04 -7.04366169E-04 -2.06614831E-03 -1.69260457E-03
 -2.96382494E-03 -1.63723416E-05  3.10710002E-04 -9.49081187E-05 -8.35362655E-05
  1.77485627E-04 -6.37328546E-04 -2.65612434E-04 -9.15341339E-04  2.40521349E-05
 -1.51703998E-04 -3.22378226E-04 -3.12196919E-02 -8.38621141E-05  7.10755345E-05
  1.24494291E-04  2.80111953E-03  4.11630112E-03  7.20264971E-03  3.03533940E-04
  2.19971829E-02 -1.77755015E-04  6.36183557E-05  1.11389261E-04 -4.85191339E-04
  2.37439496E-03  4.15371718E-03 -3.57751296E-02  6.94875076E-02  2.27045943E-02
 -2.93385955E-03  4.14263501E-02 -3.34434507E-03 -5.85012698E-03  3.16062058E-02
 -1.77436304E-02 -3.10387512E-02 -3.93725252E-03 -2.70026579E-03 -4.18134637E-04
  6.32636592E-03 -1.54324144E-03 -2.01235048E-02  3.12055003E-02 -1.43129798E-02
  1.79900626E-02  1.78282049E-02 -4.56652337E-02 -2.80544518E-01  4.11171413E-01
 -3.05617746E-02 -2.42368460E-02  1.97509771E-02 -4.03971112E-02 -7.07255074E-02
  3.03063920E-02 -6.44211305E-02 -1.12786115E-01  3.35800820E-02 -2.66135711E-02
 -4.65844100E-02 -1.80269538E-03  1.19677607E-03  2.09771024E-03  2.37377352E-02
 -2.90756093E-02  3.49055467E-02  5.58860287E-05 -1.66086075E-02  4.07151536E-03
  1.99557084E-02 -2.54658578E-03 -1.00520254E-02  1.14020583E-02  2.36698888E-01
  4.72805495E-01  2.74145748E-01  5.51698676E-02 -6.49156823E-02  7.06165695E-02
  1.23631722E-01 -2.84697160E-02  2.97294018E-02  5.20497260E-02 -2.16748281E-05
  6.56995354E-03  1.15046293E-02  7.58290533E-03 -1.02708015E-02  1.02477355E-02
 -1.04589474E-03 -5.86612384E-03  1.79268191E-03 -4.88893512E-03  5.01593132E-03
  2.81305583E-03 -2.79247966E-03  1.22929656E-02  1.14154746E-01  2.31885630E-03
 -1.11456600E-03 -1.94983114E-03  1.30362092E-02 -9.62473023E-03 -1.68307430E-02
  1.19598683E-02 -5.77124432E-02  2.04913933E-03  8.29859785E-04  1.45194951E-03
  9.10010685E-03 -1.32361233E-02 -2.31609924E-02 -1.99526275E-01  4.07860693E-01
 -6.52172240E-02 -4.12173528E-02  1.18322340E-01  6.38408590E-03  1.11902104E-02
  2.02981059E-02 -1.57739066E-03 -2.75464807E-03 -6.62386984E-03  1.65270592E-03
  1.63804795E-03  1.34027229E-02  9.41599046E-04 -1.91836718E-02  8.27352950E-04
 -2.12351562E-02  8.21005322E-03  4.70299687E-04 -4.18509878E-02 -2.61670489E-01
  3.81495166E-01  1.64104994E-01  1.67281414E-02 -1.04496516E-01  2.32863187E-02
  4.07556131E-02 -1.69134297E-01  3.69998123E-02  6.47568739E-02 -1.34804527E-01
  2.51017932E-02  4.39286717E-02 -1.20276860E-02  2.97149010E-03  5.20240537E-03
 -3.14526177E-02  1.24143155E-02 -1.59558610E-02  3.56558925E-02  7.08477955E-03
 -1.44412259E-02  3.01731941E-03 -2.60639448E-03  2.19293247E-02  1.71756905E-03
 -1.19903015E-01 -2.47707897E-01 -1.70549220E-01  1.25687108E-03 -1.12697827E-02
 -7.96197944E-03 -1.39419509E-02 -1.57491631E-03 -6.81990172E-03 -1.19425366E-02
 -4.98387772E-03 -1.00545757E-04 -1.80475478E-04 -2.10896083E-03 -5.63678594E-04
 -1.57714910E-03  1.79186483E-03 -3.22349074E-04 -3.88666320E-03  2.66358543E-03
 -5.44205656E-03  3.11263899E-04  1.52245340E-03  1.17443592E-01  9.00156217E-02
  7.73302528E-03 -6.40966670E-03 -1.12142819E-02  1.67942500E-02 -5.22174896E-03
 -9.13345548E-03  9.93620118E-02  7.38029595E-02  8.62133637E-03  5.19826851E-03
  9.09750094E-03  1.79547310E-02  3.02161707E-03  5.29477926E-03  1.54765717E-01
 -3.24819587E-01 -4.03833982E-02  3.68543916E-02  2.11934400E-01  8.79118090E-03
  1.54256794E-02  5.29011425E-04  4.38876314E-04  7.67352771E-04 -7.25550561E-03
  2.90259564E-04 -6.87253399E-03  4.46884209E-03  1.65013388E-04  4.83745784E-02
  1.06162616E-02  4.10140171E-02 -3.54599955E-02  6.07303970E-03 -4.90050162E-02