0005_q000_m01_k00_opt_uwb97xd_def2svpd/0005_q000_m01_k00_force_uhf_def2t
Force     UHF                                                         Gen                 
Number of atoms                            I                5
Info1-9                                    I   N=           9
          13           9           0           0           0         100
           5           1           2
Full Title                                 C   N=           8
0005_q000_m01_k00_opt_uwb97xd_def2svpd/0005_q000_m01_k00_for
ce_uhf_def2tzvpd stable-force       
Route                                      C   N=          15
#p uhf/chkbasis force guess=read geom=check scf=(maxcycle=90
0,verytightlineq,xqc) integral=grid=ultrafine symmetry=None 
density=current pop=(cm5,hlygat,mbs,npa) output=wfx         
Charge                                     I                0
Multiplicity                               I                1
Number of electrons                        I               32
Number of alpha electrons                  I               16
Number of beta electrons                   I               16
Number of basis functions                  I              141
Number of independent functions            I              141
Number of point charges in /Mol/           I                0
Number of translation vectors              I                0
Atomic numbers                             I   N=           5
           6          16           8           1           1
Nuclear charges                            R   N=           5
  6.00000000E+00  1.60000000E+01  8.00000000E+00  1.00000000E+00  1.00000000E+00
Current cartesian coordinates              R   N=          15
  1.84630873E+00 -3.74093449E-02 -1.90536037E-01  4.89061526E+00 -6.53203910E-02
 -2.38935210E-01  5.99277468E+00 -1.34985333E+00 -2.48781287E+00  9.79013775E-01
  8.91172187E-01  1.43410851E+00  7.00713826E-01 -8.88557081E-01 -1.68005585E+00
Number of symbols in /Mol/                 I                0
Int Atom Types                             I   N=           5
           0           0           0           0           0
Force Field                                I                0
Atom Types                                 C   N=           5
                                                            
MM charges                                 R   N=           5
  0.00000000E+00  0.00000000E+00  0.00000000E+00  0.00000000E+00  0.00000000E+00
Integer atomic weights                     I   N=           5
          12          32          16           1           1
Real atomic weights                        R   N=           5
  1.20000000E+01  3.19720718E+01  1.59949146E+01  1.00782504E+00  1.00782504E+00
Atom fragment info                         I   N=           5
           0           0           0           0           0
Atom residue num                           I   N=           5
           0           0           0           0           0
Nuclear spins                              I   N=           5
           0           0           0           1           1
Nuclear ZEff                               R   N=           5
 -3.60000000E+00 -1.36000000E+01 -5.60000000E+00 -1.00000000E+00 -1.00000000E+00
Nuclear ZNuc                               R   N=           5
  6.00000000E+00  1.60000000E+01  8.00000000E+00  1.00000000E+00  1.00000000E+00
Nuclear QMom                               R   N=           5
  0.00000000E+00  0.00000000E+00  0.00000000E+00  0.00000000E+00  0.00000000E+00
Nuclear GFac                               R   N=           5
  0.00000000E+00  0.00000000E+00  0.00000000E+00  2.79284600E+00  2.79284600E+00
MicOpt                                     I   N=           5
          -1          -1          -1          -1          -1
Number of residues                         I                0
Number of secondary structures             I                0
Number of contracted shells                I               53
Number of primitive shells                 I               89
Pure/Cartesian d shells                    I                0
Pure/Cartesian f shells                    I                0
Highest angular momentum                   I                3
Largest degree of contraction              I                7
Shell types                                I   N=          53
           0           0           0           0           0           0
           1           1           1          -2          -2          -2
          -3           0           0           0           0           0
           0           1           1           1           1           1
           1          -2          -2          -2          -3           0
           0           0           0           0           0           1
           1           1           1          -2          -2          -2
          -3           0           0           0           1           1
           0           0           0           1           1
Number of primitives per shell             I   N=          53
           6           2           1           1           1           1
           4           1           1           1           1           1
           1           7           3           2           1           1
           1           5           1           1           1           1
           1           2           1           1           1           6
           2           1           1           1           1           4
           1           1           1           1           1           1
           1           3           1           1           1           1
           3           1           1           1           1
Shell to atom map                          I   N=          53
           1           1           1           1           1           1
           1           1           1           1           1           1
           1           2           2           2           2           2
           2           2           2           2           2           2
           2           2           2           2           2           3
           3           3           3           3           3           3
           3           3           3           3           3           3
           3           4           4           4           4           4
           5           5           5           5           5
Primitive exponents                        R   N=          89
  1.35753497E+04  2.03523337E+03  4.63225624E+02  1.31200196E+02  4.28530159E+01
  1.55841858E+01  6.20671385E+00  2.57648965E+00  5.76963394E-01  2.29728314E-01
  9.51644400E-02  4.84754014E-02  3.46972322E+01  7.95826228E+00  2.37808269E+00
  8.14332082E-01  2.88875473E-01  1.00568237E-01  1.09700000E+00  3.18000000E-01
  9.09853364E-02  7.61000000E-01  6.07009281E+04  9.10261069E+03  2.07141660E+03
  5.86024768E+02  1.90553950E+02  6.76303843E+01  2.51273069E+01  1.12574630E+02
  3.47955542E+01  6.51155562E+00  3.23990323E+00  1.54771609E+00  4.05410301E-01
  1.45506511E-01  5.01788395E-02  5.64367160E+02  1.33426244E+02  4.24682712E+01
  1.56165276E+01  6.10939885E+00  2.44041602E+00  8.38822013E-01  3.12887469E-01
  1.07701090E-01  3.03598336E-02  3.75600000E+00  8.12000000E-01  2.73000000E-01
  8.15470250E-02  5.57000000E-01  2.70323826E+04  4.05238714E+03  9.22327227E+02
  2.61240710E+02  8.53546414E+01  3.10350352E+01  1.22608607E+01  4.99870760E+00
  1.17031082E+00  4.64747410E-01  1.85045364E-01  7.02880263E-02  6.32749548E+01
  1.46270494E+01  4.45012235E+00  1.52757996E+00  5.29351179E-01  1.74784213E-01
  5.11127457E-02  2.31400000E+00  6.45000000E-01  1.46964774E-01  1.42800000E+00
  3.40613410E+01  5.12357460E+00  1.16466260E+00  3.27230410E-01  1.03072410E-01
  8.00000000E-01  9.57741296E-02  3.40613410E+01  5.12357460E+00  1.16466260E+00
  3.27230410E-01  1.03072410E-01  8.00000000E-01  9.57741296E-02
Contraction coefficients                   R   N=          89
  6.06455036E-04  4.69790889E-03  2.43324776E-02  9.73999683E-02  3.01955843E-01
  6.62336091E-01  6.55953085E-01  3.75856333E-01  1.00000000E+00  1.00000000E+00
  1.00000000E+00  1.00000000E+00  1.13272200E-02  7.61696592E-02  3.01922522E-01
  7.27850273E-01  1.00000000E+00  1.00000000E+00  1.00000000E+00  1.00000000E+00
  1.00000000E+00  1.00000000E+00  5.23800749E-04  4.05063268E-03  2.08270042E-02
  8.14968503E-02  2.37491138E-01  4.47261715E-01  3.48919184E-01  1.00455699E-01
  4.33911729E-01 -1.20843306E+00  6.74981294E-01  3.47087958E-01  1.00000000E+00
  1.00000000E+00  1.00000000E+00  3.48869236E-03  2.76851268E-02  1.26594002E-01
  3.61659257E-01  6.12220344E-01  1.00000000E+00  1.00000000E+00  1.00000000E+00
  1.00000000E+00  1.00000000E+00  1.82851975E-01  9.14259873E-01  1.00000000E+00
  1.00000000E+00  1.00000000E+00  5.72273352E-04  4.43532335E-03  2.30201077E-02
  9.28224907E-02  2.93785000E-01  6.74016045E-01  6.38399370E-01  3.95345871E-01
  1.00000000E+00  1.00000000E+00  1.00000000E+00  1.00000000E+00  1.20183322E-02
  8.30054218E-02  3.19917439E-01  7.07155429E-01  1.00000000E+00  1.00000000E+00
  1.00000000E+00  1.00000000E+00  1.00000000E+00  1.00000000E+00  1.00000000E+00
  2.54393072E-02  1.90085949E-01  8.52441130E-01  1.00000000E+00  1.00000000E+00
  1.00000000E+00  1.00000000E+00  2.54393072E-02  1.90085949E-01  8.52441130E-01
  1.00000000E+00  1.00000000E+00  1.00000000E+00  1.00000000E+00
Coordinates of each shell                  R   N=         159
  1.84630873E+00 -3.74093449E-02 -1.90536037E-01  1.84630873E+00 -3.74093449E-02
 -1.90536037E-01  1.84630873E+00 -3.74093449E-02 -1.90536037E-01  1.84630873E+00
 -3.74093449E-02 -1.90536037E-01  1.84630873E+00 -3.74093449E-02 -1.90536037E-01
  1.84630873E+00 -3.74093449E-02 -1.90536037E-01  1.84630873E+00 -3.74093449E-02
 -1.90536037E-01  1.84630873E+00 -3.74093449E-02 -1.90536037E-01  1.84630873E+00
 -3.74093449E-02 -1.90536037E-01  1.84630873E+00 -3.74093449E-02 -1.90536037E-01
  1.84630873E+00 -3.74093449E-02 -1.90536037E-01  1.84630873E+00 -3.74093449E-02
 -1.90536037E-01  1.84630873E+00 -3.74093449E-02 -1.90536037E-01  4.89061526E+00
 -6.53203910E-02 -2.38935210E-01  4.89061526E+00 -6.53203910E-02 -2.38935210E-01
  4.89061526E+00 -6.53203910E-02 -2.38935210E-01  4.89061526E+00 -6.53203910E-02
 -2.38935210E-01  4.89061526E+00 -6.53203910E-02 -2.38935210E-01  4.89061526E+00
 -6.53203910E-02 -2.38935210E-01  4.89061526E+00 -6.53203910E-02 -2.38935210E-01
  4.89061526E+00 -6.53203910E-02 -2.38935210E-01  4.89061526E+00 -6.53203910E-02
 -2.38935210E-01  4.89061526E+00 -6.53203910E-02 -2.38935210E-01  4.89061526E+00
 -6.53203910E-02 -2.38935210E-01  4.89061526E+00 -6.53203910E-02 -2.38935210E-01
  4.89061526E+00 -6.53203910E-02 -2.38935210E-01  4.89061526E+00 -6.53203910E-02
 -2.38935210E-01  4.89061526E+00 -6.53203910E-02 -2.38935210E-01  4.89061526E+00
 -6.53203910E-02 -2.38935210E-01  5.99277468E+00 -1.34985333E+00 -2.48781287E+00
  5.99277468E+00 -1.34985333E+00 -2.48781287E+00  5.99277468E+00 -1.34985333E+00
 -2.48781287E+00  5.99277468E+00 -1.34985333E+00 -2.48781287E+00  5.99277468E+00
 -1.34985333E+00 -2.48781287E+00  5.99277468E+00 -1.34985333E+00 -2.48781287E+00
  5.99277468E+00 -1.34985333E+00 -2.48781287E+00  5.99277468E+00 -1.34985333E+00
 -2.48781287E+00  5.99277468E+00 -1.34985333E+00 -2.48781287E+00  5.99277468E+00
 -1.34985333E+00 -2.48781287E+00  5.99277468E+00 -1.34985333E+00 -2.48781287E+00
  5.99277468E+00 -1.34985333E+00 -2.48781287E+00  5.99277468E+00 -1.34985333E+00
 -2.48781287E+00  5.99277468E+00 -1.34985333E+00 -2.48781287E+00  9.79013775E-01
  8.91172187E-01  1.43410851E+00  9.79013775E-01  8.91172187E-01  1.43410851E+00
  9.79013775E-01  8.91172187E-01  1.43410851E+00  9.79013775E-01  8.91172187E-01
  1.43410851E+00  9.79013775E-01  8.91172187E-01  1.43410851E+00  7.00713826E-01
 -8.88557081E-01 -1.68005585E+00  7.00713826E-01 -8.88557081E-01 -1.68005585E+00
  7.00713826E-01 -8.88557081E-01 -1.68005585E+00  7.00713826E-01 -8.88557081E-01
 -1.68005585E+00  7.00713826E-01 -8.88557081E-01 -1.68005585E+00
Num ILSW                                   I              100
ILSW                                       I   N=         100
           1           0           0           0           2           0
           0           0           0           0           0          -1
           5           0           0           0           2           0
           0           0           0           0           1           0
           1           1           0           0           0           0
           0           0      100000           0          -1           0
           0           0           0           0           0           0
           0           0           0           1           0           0
           0 -2000000000           1           0           0           0
           0           0           4          52           0           0
           0           0           0           0           0           0
           0           0           0           5           0           1
           0           0           0           0           0           0
           0           0           0           0           0           0
           0           0           0           0           0           0
           0           0           0           0           0           0
           0           0           0           0
Num RLSW                                   I               52
RLSW                                       R   N=          52
  1.00000000E+00  1.00000000E+00  1.00000000E+00  1.00000000E+00  1.00000000E+00
  0.00000000E+00  0.00000000E+00  1.00000000E+00  0.00000000E+00  0.00000000E+00
  0.00000000E+00  0.00000000E+00  1.00000000E+00  0.00000000E+00  0.00000000E+00
  0.00000000E+00  0.00000000E+00  1.00000000E+00  0.00000000E+00  0.00000000E+00
  0.00000000E+00  0.00000000E+00  1.00000000E+00  0.00000000E+00  0.00000000E+00
  0.00000000E+00  0.00000000E+00  1.00000000E+00  0.00000000E+00  0.00000000E+00
  0.00000000E+00  0.00000000E+00  1.00000000E+00  0.00000000E+00  0.00000000E+00
  0.00000000E+00  0.00000000E+00  0.00000000E+00  1.00000000E+00  1.00000000E+00
  0.00000000E+00  1.00000000E+00  0.00000000E+00  0.00000000E+00  0.00000000E+00
  0.00000000E+00  0.00000000E+00  0.00000000E+00  0.00000000E+00  0.00000000E+00
  0.00000000E+00  0.00000000E+00
MxBond                                     I                3
NBond                                      I   N=           5
           3           2           1           1           1
IBond                                      I   N=          15
           2           4           5           1           3           0
           2           0           0           1           0           0
           1           0           0
RBond                                      R   N=          15
  2.00000000E+00  1.00000000E+00  1.00000000E+00  2.00000000E+00  2.00000000E+00
  0.00000000E+00  2.00000000E+00  0.00000000E+00  0.00000000E+00  1.00000000E+00
  0.00000000E+00  0.00000000E+00  1.00000000E+00  0.00000000E+00  0.00000000E+00
Virial Ratio                               R      2.000407901516928E+00
SCF Energy                                 R     -5.114245760505866E+02
Total Energy                               R     -5.114245760505866E+02
S**2                                       R      4.333255107159690E-01
S**2 after annihilation                    R      4.346878426932914E-02
RMS Force                                  R      2.070964334279749E-02
RMS Density                                R      2.013632014732527E-09
Job Status                                 I                1
Nuclear derivative order                   I                1
External E-field                           R   N=          35
  0.00000000E+00  0.00000000E+00  0.00000000E+00  0.00000000E+00  0.00000000E+00
  0.00000000E+00  0.00000000E+00  0.00000000E+00  0.00000000E+00  0.00000000E+00
  0.00000000E+00  0.00000000E+00  0.00000000E+00  0.00000000E+00  0.00000000E+00
  0.00000000E+00  0.00000000E+00  0.00000000E+00  0.00000000E+00  0.00000000E+00
  0.00000000E+00  0.00000000E+00  0.00000000E+00  0.00000000E+00  0.00000000E+00
  0.00000000E+00  0.00000000E+00  0.00000000E+00  0.00000000E+00  0.00000000E+00
  0.00000000E+00  0.00000000E+00  0.00000000E+00  0.00000000E+00  0.00000000E+00
IOpCl                                      I                1
IROHF                                      I                0
Alpha Orbital Energies                     R   N=         141
 -9.20716270E+01 -2.05652917E+01 -1.12800436E+01 -9.06495383E+00 -6.75274925E+00
 -6.74590773E+00 -6.74381046E+00 -1.38692544E+00 -1.06097527E+00 -8.11407163E-01
 -6.59811800E-01 -6.37039373E-01 -6.12732162E-01 -5.55560243E-01 -4.45469562E-01
 -4.07026832E-01  6.02796526E-02  6.10514232E-02  6.38948547E-02  7.68527230E-02
  7.91414616E-02  1.23566708E-01  1.34111338E-01  1.50712852E-01  1.73409003E-01
  1.83160436E-01  1.92783954E-01  2.12799617E-01  2.36972867E-01  2.41067517E-01
  2.68117723E-01  2.70691480E-01  2.94320769E-01  3.01218965E-01  3.29001008E-01
  3.40089970E-01  3.41586186E-01  3.63846446E-01  3.86370859E-01  3.91017317E-01
  3.93171188E-01  4.33413661E-01  4.39919040E-01  4.52134114E-01  4.59455004E-01
  4.78814831E-01  5.02557442E-01  5.25707306E-01  5.41839184E-01  5.69673855E-01
  5.85612471E-01  6.10480749E-01  6.29126652E-01  6.63675342E-01  6.81731740E-01
  6.95891494E-01  7.02920905E-01  7.37605557E-01  7.53690688E-01  7.87872519E-01
  8.36949006E-01  8.44533197E-01  9.00070343E-01  9.68699186E-01  1.00484032E+00
  1.01926739E+00  1.03078810E+00  1.06442330E+00  1.08346582E+00  1.17453799E+00
  1.18525220E+00  1.24233844E+00  1.31989405E+00  1.33829232E+00  1.34832837E+00
  1.75556287E+00  1.79537263E+00  1.81959465E+00  1.83090460E+00  1.85607034E+00
  1.86024235E+00  1.86916668E+00  1.93570256E+00  1.94935522E+00  2.02917051E+00
  2.06179672E+00  2.08044732E+00  2.08778586E+00  2.11029063E+00  2.11521641E+00
  2.15751943E+00  2.16108832E+00  2.29546177E+00  2.33846303E+00  2.36834435E+00
  2.41611813E+00  2.46112963E+00  2.61040652E+00  2.64744913E+00  2.65860384E+00
  2.70906106E+00  2.85533897E+00  2.90866422E+00  2.92577498E+00  2.97904063E+00
  3.06842954E+00  3.12795693E+00  3.27711583E+00  3.42859846E+00  3.47206050E+00
  3.47593990E+00  3.48650485E+00  3.52178924E+00  3.56447145E+00  3.64235314E+00
  3.77698102E+00  3.79797136E+00  3.84400069E+00  4.02776072E+00  4.08917682E+00
  4.32260119E+00  4.56032456E+00  4.90876158E+00  5.59084812E+00  5.59149265E+00
  5.67995619E+00  5.71052076E+00  5.90099452E+00  5.98665540E+00  6.01096097E+00
  6.93562666E+00  6.95295251E+00  7.15849190E+00  7.23968681E+00  7.52094349E+00
  9.57082628E+00  9.95349664E+00  1.03308902E+01  2.16679961E+01  2.32695013E+01
  4.52814807E+01
Beta Orbital Energies                      R   N=         141
 -9.20671005E+01 -2.05495172E+01 -1.12961701E+01 -9.06047174E+00 -6.74295556E+00
 -6.74191701E+00 -6.73482941E+00 -1.35338522E+00 -1.07555422E+00 -8.09567656E-01
 -6.65421679E-01 -6.33681492E-01 -5.43580419E-01 -5.40898478E-01 -4.32071667E-01
 -3.99378858E-01  5.58770457E-02  5.99077185E-02  6.34072750E-02  7.65047866E-02
  7.78234630E-02  1.23626625E-01  1.35357108E-01  1.50553503E-01  1.76785719E-01
  1.84413952E-01  1.92960059E-01  2.15062309E-01  2.37625871E-01  2.41783427E-01
  2.47845861E-01  2.69032479E-01  2.92316851E-01  3.01518059E-01  3.27917572E-01
  3.39632671E-01  3.47114953E-01  3.61725490E-01  3.84783698E-01  3.89374310E-01
  3.95173005E-01  4.28864278E-01  4.36463476E-01  4.56736848E-01  4.56877493E-01
  4.72478855E-01  5.02224944E-01  5.27124152E-01  5.42270713E-01  5.67687421E-01
  5.84997276E-01  6.09156715E-01  6.22896882E-01  6.59340662E-01  6.79375264E-01
  6.91330792E-01  7.12387479E-01  7.37300131E-01  7.81843641E-01  7.87107875E-01
  8.33376183E-01  8.47681507E-01  9.02146666E-01  9.68839683E-01  1.00402104E+00
  1.02004928E+00  1.02111553E+00  1.05613030E+00  1.08482589E+00  1.15226209E+00
  1.18575788E+00  1.24504049E+00  1.30807441E+00  1.33637834E+00  1.34730622E+00
  1.76666315E+00  1.77927531E+00  1.82240841E+00  1.82950806E+00  1.84894265E+00
  1.86777337E+00  1.88043656E+00  1.92934973E+00  1.94933303E+00  2.04786694E+00
  2.06014234E+00  2.08461979E+00  2.08589815E+00  2.10409507E+00  2.11746387E+00
  2.16164465E+00  2.17482260E+00  2.30500887E+00  2.33906396E+00  2.37173678E+00
  2.41832585E+00  2.46054010E+00  2.61211782E+00  2.65564722E+00  2.66933884E+00
  2.70124207E+00  2.85247518E+00  2.90763283E+00  2.92316545E+00  2.97890436E+00
  3.05476668E+00  3.12596926E+00  3.30304775E+00  3.39370982E+00  3.44320464E+00
  3.46746841E+00  3.47636224E+00  3.50735268E+00  3.57626213E+00  3.63022413E+00
  3.76090685E+00  3.77882768E+00  3.83494662E+00  4.02356112E+00  4.07996360E+00
  4.32638876E+00  4.55475043E+00  4.90102690E+00  5.60932630E+00  5.60996456E+00
  5.69253343E+00  5.72406749E+00  5.91751028E+00  5.99160444E+00  6.01976846E+00
  6.97010751E+00  6.98701839E+00  7.18949748E+00  7.24793751E+00  7.53490365E+00
  9.58708084E+00  9.95560533E+00  1.03331856E+01  2.16734598E+01  2.32587046E+01
  4.52906579E+01
Alpha MO coefficients                      R   N=       19881
  8.32697203E-07 -7.27227596E-06  6.80266689E-04 -2.54730993E-03 -9.12835693E-04
 -1.35833979E-04  1.78014316E-04 -3.60281660E-06 -6.27877242E-06 -2.20881651E-03
 -2.14213981E-06 -4.09838900E-06  8.71687791E-04 -1.28533859E-04 -2.24816860E-04
  3.48262538E-05  1.08652604E-07 -6.79422888E-06 -6.83216053E-05  7.35682834E-08
  6.01705334E-04 -1.35608558E-05  1.06795329E-04 -9.16374591E-04 -7.58372670E-06
 -8.28041088E-04 -3.39267530E-04 -5.71933437E-04  7.60222676E-04 -1.93993322E-04
 -4.94421428E-06  1.81027769E-04  3.13966612E-06  6.48370244E-06 -1.12907133E-05
 -2.44557582E-04  5.69115737E-06  9.98656869E-01 -2.86763551E-02 -7.75832428E-03
  3.39499617E-03  6.73124415E-04 -1.48631705E-04 -5.37056277E-05 -6.13547262E-05
 -1.07417040E-04  1.41275199E-05  5.84194160E-05  1.02276330E-04  1.83205978E-04
  4.03140731E-05  7.06199498E-05 -1.51712676E-03 -5.94966021E-04 -1.04193871E-03
  5.54935987E-04  3.60044472E-06  6.20670579E-06  4.69313996E-05  1.42039378E-05
  2.48840718E-05  6.40868200E-06 -9.38886002E-05  1.31788149E-04  1.44351507E-04
 -5.36547107E-05 -1.87421486E-04 -4.95819861E-04  4.04172783E-04  8.01353832E-04
 -2.83349731E-04  9.63244350E-06 -1.02003775E-04 -6.16064818E-06 -2.40187438E-05
 -5.82754177E-05 -3.95780882E-05  3.47105665E-04 -1.96771298E-04  4.66879196E-05
  1.87572176E-04 -2.67462692E-04 -1.46748837E-05  1.22429454E-05 -4.55173907E-05
  4.29250787E-04 -8.38183099E-04 -1.18643578E-03 -5.44255611E-04 -6.20397174E-05
  6.51239894E-05  1.14017106E-04  3.62117537E-04 -4.06665732E-04 -7.11975985E-04
  1.56755553E-04 -3.90599648E-04 -6.83808210E-04  1.09729155E-05 -8.82756921E-05
 -1.54567487E-04  3.07362688E-05 -3.72997772E-05  4.30681511E-05 -2.43512990E-06
 -2.13060256E-05 -2.48999216E-04  2.93980612E-04 -3.46285860E-04  2.28149266E-05
  1.67921135E-04 -1.25572763E-04  2.69303257E-05 -1.60864236E-04  2.77622893E-05
  1.53933102E-05 -9.96881497E-06  7.80375335E-05 -8.47657796E-05  1.09317508E-05
  8.15082509E-05 -2.22463199E-05 -1.31869356E-05 -1.25918886E-05 -1.81875395E-04
  1.47477744E-03 -4.18115492E-05  1.71187581E-06  2.99122443E-06  6.92237340E-04
  1.05802715E-04  1.85281226E-04  5.09553565E-06 -1.91676487E-04  1.59789888E-03
 -7.19831669E-05  8.86135245E-06  1.54840086E-05  4.84422557E-04 -1.46770912E-04
 -2.56753882E-04  1.07212172E-06  5.98271959E-07  1.13226327E-06  3.90343666E-04
 -5.34369291E-04  2.30675054E-04 -4.20090071E-05 -1.30187932E-05 -2.28110581E-05
  8.98565839E-04 -1.86833373E-05 -3.25101234E-05 -1.94896518E-03 -3.50558825E-04
 -6.14067057E-04  2.99253778E-06 -4.19550555E-05  1.91656628E-05  1.74278964E-05
 -2.39742559E-05 -2.96965106E-04  1.21414090E-04 -2.91356619E-04  1.70917659E-04
  6.93641472E-05  1.90602819E-04 -1.08271105E-03  1.81827703E-04 -1.16047533E-04
 -6.18741266E-04 -1.57549457E-05  1.20341447E-05  2.01301567E-06  2.04938405E-05
  2.12620812E-05  4.90082487E-06  1.57626217E-05  5.10526231E-05 -1.00230300E-04
 -3.69805085E-04  2.38120377E-04 -4.90873270E-04  1.70348805E-04 -1.45649494E-05
  1.18308436E-05  2.07070085E-05 -2.10378357E-06  5.01813922E-05  8.78681386E-05
 -1.40423975E-04 -2.11457678E-05 -3.70719817E-05  1.25903098E-03 -7.57383071E-04
 -1.32578952E-03 -1.81534206E-03  1.50648942E-03  2.63680318E-03 -1.59678098E-05
  2.10940195E-05  3.68898508E-05  2.02948054E-04 -2.11475299E-04  2.68652396E-04
 -3.46252111E-05 -1.20785899E-04  6.11892604E-04 -4.93119956E-04  6.20905011E-04
 -3.27473365E-04 -2.81634535E-04 -6.08805049E-04  3.56052433E-06 -5.94342206E-04
  3.53470516E-04  1.93920205E-06 -4.05426158E-05  1.72251907E-04 -3.12304137E-04
  4.52230861E-05  2.32762525E-04  1.79954651E-06 -4.49180975E-05  4.35561538E-01
  6.42273738E-01  2.28553459E-02 -1.09683070E-02  6.85233973E-03  2.68112640E-05
 -8.48114682E-04  8.46074702E-04  1.48134479E-03  1.07095346E-03 -1.10805595E-03
 -1.94000088E-03 -7.63591710E-04  8.21567887E-04  1.43847234E-03 -5.73856341E-05
 -7.19154440E-05 -1.25891036E-04  1.37403992E-05 -3.54756598E-05 -1.05806803E-04
 -1.48615717E-04 -2.02253081E-05 -2.74496488E-04  3.73103499E-04 -3.50984809E-04
  6.14144267E-05  2.13090768E-04  1.82455908E-04 -2.08718876E-04  2.10834673E-04
 -6.72879908E-05 -1.19204363E-04 -5.27472020E-06  3.94992615E-05 -4.08825005E-05
  5.87730467E-06  4.03903473E-05 -1.20915375E-05 -5.90881491E-06  3.22746446E-05
  5.33525116E-04 -1.87334060E-03  3.96626783E-05 -3.86372352E-05 -6.75756235E-05
  6.49465439E-04  2.31917845E-04  4.06097502E-04  1.80913759E-05  3.20675753E-04
 -5.48368632E-04  1.05335797E-04  1.98268768E-05  3.46742082E-05 -3.96472337E-04
 -8.72826004E-05 -1.52756191E-04  4.67764405E-01  6.12806968E-01  1.86343797E-02
 -9.50564102E-03  2.62613952E-02 -1.18982736E-03  2.05295973E-04  3.92699616E-05
  6.87279250E-05  2.12869120E-04  1.57280539E-06  2.76647400E-06 -4.36685251E-03
  4.48875456E-04  7.84897726E-04  1.07312269E-04  2.23287028E-05  7.31074680E-04
  6.75598227E-04  1.26241866E-05  2.91109116E-05  3.50953137E-05  1.98163828E-04
  1.83034788E-04  2.00028104E-05  1.96595291E-03  6.08565048E-04  2.30871143E-03
 -6.84323443E-04  3.47810762E-04  5.75899369E-05 -4.23474978E-04  4.70272872E-05
 -7.36715868E-05 -3.38416020E-04  2.21085872E-04 -4.30837436E-05 -2.83559823E-05
  2.32642417E-05  7.06890779E-05  8.90150328E-05  1.35116644E-03  8.15418899E-04
  6.16268438E-05  5.95268412E-06  1.04319530E-05 -3.68113787E-05 -3.96123323E-06
 -6.94234995E-06 -1.27686962E-04  2.18193514E-05  3.81902580E-05  1.21995532E-04
 -1.20961011E-04 -2.11784904E-04 -2.35310250E-04 -5.32790971E-04 -9.32564552E-04
 -3.61946695E-04  1.50788652E-05  2.63660513E-05  1.51578583E-05 -2.06432606E-05
 -2.81453658E-05 -5.94571766E-05 -1.17842017E-05  1.99747400E-04  7.94810904E-05
  1.10238419E-04 -2.15872819E-04  4.54432501E-05 -2.25728145E-04  4.85667987E-04
 -3.51450986E-04 -2.31582514E-05  2.77494579E-04 -1.86550996E-05 -1.45039834E-04
 -4.02210465E-05  2.32271873E-05 -1.11272081E-05  1.76539993E-04  7.14048456E-06
  2.03757870E-06  9.20520713E-07  2.10664840E-05  1.75205244E-05 -4.17781647E-04
 -5.34860387E-04  1.19559053E-05  1.42479371E-06  2.49908251E-06  3.25030334E-05
 -1.01112311E-05 -1.76872658E-05  6.19271043E-04 -1.77613907E-04 -3.10869918E-04
  3.88057980E-04 -8.57655914E-05 -1.50115403E-04 -1.72020457E-06 -1.19252343E-05
  1.87718303E-06  5.18845390E-06 -6.81392653E-06  2.13947048E-05  7.21396701E-05
 -2.56779943E-06 -4.00567557E-05  4.12185291E-05  4.45020363E-05  1.22701654E-04
 -4.01238983E-05 -1.24418602E-04  7.00434377E-05  1.05811840E-05  3.57314974E-07
  4.35809894E-06 -1.36130524E-05  2.26980548E-06  1.72194113E-06 -9.04460217E-06
  3.70177035E-06  1.11144644E-04 -1.19139526E-02 -1.16983215E-04  1.37204681E-04
  2.40068353E-04 -1.81937640E-03  6.28421411E-04  1.09894364E-03 -9.35686906E-06
  1.89798456E-04 -1.21654636E-02 -1.52554336E-04 -1.16036832E-04 -2.03066934E-04
 -1.90414150E-03 -5.26653832E-04 -9.21752544E-04 -1.56392757E-04 -2.53348694E-04
  1.09472351E-04  9.74932942E-05  1.96303941E-03  4.28819915E-04  1.98429832E-04
 -3.23398539E-06 -5.63526760E-06 -1.82674387E-04  1.54077115E-05  2.69242836E-05
  3.66320156E-03 -1.74118470E-04 -3.04209364E-04 -2.49234006E-05 -1.12466146E-06
 -2.78975333E-06  3.98762357E-05 -6.48787372E-07  2.44309006E-05 -3.99210777E-05
  8.88307927E-05  6.23397787E-05 -2.28124975E-05 -1.30031193E-03  2.52551228E-04
 -8.24652261E-04  1.28059176E-03  1.44114766E-04  3.11689699E-05 -1.22537650E-04
  1.94192694E-05 -3.99697876E-05 -4.24503750E-05  1.17348490E-04 -2.49198921E-05
 -2.87459944E-01 -2.48646097E-01  8.05707646E-01  1.51003751E-02 -8.52990440E-03
 -1.83244745E-03 -1.76368778E-03 -1.63590335E-03 -2.86389739E-03 -1.37256514E-03
 -1.41018812E-03 -2.46868434E-03 -3.08839214E-04 -2.03795977E-04 -3.56783204E-04
 -4.61408838E-04  1.33200853E-04  2.33098780E-04  2.45137728E-03  8.59149077E-05
  1.50920402E-04  1.57610337E-04  3.10097085E-05  5.43397807E-05 -1.66610887E-04
 -3.00588157E-04 -3.24272719E-04 -9.39924442E-05 -1.71669338E-04 -5.28956206E-05
  2.45876881E-04  1.62162445E-05  1.10775251E-04  1.40448196E-04  1.55954200E-04
  6.37326780E-05 -4.85815659E-05 -3.27603106E-04  3.64457976E-05  1.61733847E-06
  2.13789469E-04 -1.54164088E-04 -5.70539053E-06  1.37347603E-04 -1.43755232E-04
 -4.30176272E-05 -9.18039460E-05 -1.86837901E-04  3.64271262E-05  4.40335184E-04
  5.67039472E-04  3.91435661E-04 -9.73897069E-05  1.30021442E-04  2.27632849E-04
 -1.93692305E-04  2.04171026E-04  3.57454129E-04 -1.68743498E-04  1.43433710E-04
  2.51085757E-04  2.58063315E-05 -2.07336148E-05 -3.63493801E-05  2.43332552E-05
 -2.06360355E-05  3.06836897E-05 -5.95178124E-06 -1.17859137E-05  1.15175114E-04
 -1.80645670E-04  1.73910410E-04  5.64528210E-06 -1.03184666E-04 -1.25270091E-05
  4.52852780E-05 -4.51974759E-05 -3.16117256E-05  2.58848273E-05  4.42519796E-06