0005_q000_m01_k00_opt_uwb97xd_def2svpd/0005_q000_m01_k00_force_uwb97xd_d
Force     UwB97XD                                                     Gen                 
Number of atoms                            I                5
Info1-9                                    I   N=           9
          13           9           0           0           0         100
           5          18       -5802
Full Title                                 C   N=           8
0005_q000_m01_k00_opt_uwb97xd_def2svpd/0005_q000_m01_k00_for
ce_uwb97xd_def2tzvpd stable-force   
Route                                      C   N=          15
#p uwb97xd/chkbasis force guess=read geom=check scf=(maxcycl
e=900,verytightlineq,xqc) integral=grid=ultrafine symmetry=N
one density=current pop=(cm5,hlygat,mbs,npa) output=wfx     
Charge                                     I                0
Multiplicity                               I                1
Number of electrons                        I               32
Number of alpha electrons                  I               16
Number of beta electrons                   I               16
Number of basis functions                  I              141
Number of independent functions            I              141
Number of point charges in /Mol/           I                0
Number of translation vectors              I                0
Atomic numbers                             I   N=           5
           6          16           8           1           1
Nuclear charges                            R   N=           5
  6.00000000E+00  1.60000000E+01  8.00000000E+00  1.00000000E+00  1.00000000E+00
Current cartesian coordinates              R   N=          15
  1.84630873E+00 -3.74093449E-02 -1.90536037E-01  4.89061526E+00 -6.53203910E-02
 -2.38935210E-01  5.99277468E+00 -1.34985333E+00 -2.48781287E+00  9.79013775E-01
  8.91172187E-01  1.43410851E+00  7.00713826E-01 -8.88557081E-01 -1.68005585E+00
Number of symbols in /Mol/                 I                0
Int Atom Types                             I   N=           5
           0           0           0           0           0
Force Field                                I                0
Atom Types                                 C   N=           5
                                                            
MM charges                                 R   N=           5
  0.00000000E+00  0.00000000E+00  0.00000000E+00  0.00000000E+00  0.00000000E+00
Integer atomic weights                     I   N=           5
          12          32          16           1           1
Real atomic weights                        R   N=           5
  1.20000000E+01  3.19720718E+01  1.59949146E+01  1.00782504E+00  1.00782504E+00
Atom fragment info                         I   N=           5
           0           0           0           0           0
Atom residue num                           I   N=           5
           0           0           0           0           0
Nuclear spins                              I   N=           5
           0           0           0           1           1
Nuclear ZEff                               R   N=           5
 -3.60000000E+00 -1.36000000E+01 -5.60000000E+00 -1.00000000E+00 -1.00000000E+00
Nuclear ZNuc                               R   N=           5
  6.00000000E+00  1.60000000E+01  8.00000000E+00  1.00000000E+00  1.00000000E+00
Nuclear QMom                               R   N=           5
  0.00000000E+00  0.00000000E+00  0.00000000E+00  0.00000000E+00  0.00000000E+00
Nuclear GFac                               R   N=           5
  0.00000000E+00  0.00000000E+00  0.00000000E+00  2.79284600E+00  2.79284600E+00
MicOpt                                     I   N=           5
          -1          -1          -1          -1          -1
Number of residues                         I                0
Number of secondary structures             I                0
Number of contracted shells                I               53
Number of primitive shells                 I               89
Pure/Cartesian d shells                    I                0
Pure/Cartesian f shells                    I                0
Highest angular momentum                   I                3
Largest degree of contraction              I                7
Shell types                                I   N=          53
           0           0           0           0           0           0
           1           1           1          -2          -2          -2
          -3           0           0           0           0           0
           0           1           1           1           1           1
           1          -2          -2          -2          -3           0
           0           0           0           0           0           1
           1           1           1          -2          -2          -2
          -3           0           0           0           1           1
           0           0           0           1           1
Number of primitives per shell             I   N=          53
           6           2           1           1           1           1
           4           1           1           1           1           1
           1           7           3           2           1           1
           1           5           1           1           1           1
           1           2           1           1           1           6
           2           1           1           1           1           4
           1           1           1           1           1           1
           1           3           1           1           1           1
           3           1           1           1           1
Shell to atom map                          I   N=          53
           1           1           1           1           1           1
           1           1           1           1           1           1
           1           2           2           2           2           2
           2           2           2           2           2           2
           2           2           2           2           2           3
           3           3           3           3           3           3
           3           3           3           3           3           3
           3           4           4           4           4           4
           5           5           5           5           5
Primitive exponents                        R   N=          89
  1.35753497E+04  2.03523337E+03  4.63225624E+02  1.31200196E+02  4.28530159E+01
  1.55841858E+01  6.20671385E+00  2.57648965E+00  5.76963394E-01  2.29728314E-01
  9.51644400E-02  4.84754014E-02  3.46972322E+01  7.95826228E+00  2.37808269E+00
  8.14332082E-01  2.88875473E-01  1.00568237E-01  1.09700000E+00  3.18000000E-01
  9.09853364E-02  7.61000000E-01  6.07009281E+04  9.10261069E+03  2.07141660E+03
  5.86024768E+02  1.90553950E+02  6.76303843E+01  2.51273069E+01  1.12574630E+02
  3.47955542E+01  6.51155562E+00  3.23990323E+00  1.54771609E+00  4.05410301E-01
  1.45506511E-01  5.01788395E-02  5.64367160E+02  1.33426244E+02  4.24682712E+01
  1.56165276E+01  6.10939885E+00  2.44041602E+00  8.38822013E-01  3.12887469E-01
  1.07701090E-01  3.03598336E-02  3.75600000E+00  8.12000000E-01  2.73000000E-01
  8.15470250E-02  5.57000000E-01  2.70323826E+04  4.05238714E+03  9.22327227E+02
  2.61240710E+02  8.53546414E+01  3.10350352E+01  1.22608607E+01  4.99870760E+00
  1.17031082E+00  4.64747410E-01  1.85045364E-01  7.02880263E-02  6.32749548E+01
  1.46270494E+01  4.45012235E+00  1.52757996E+00  5.29351179E-01  1.74784213E-01
  5.11127457E-02  2.31400000E+00  6.45000000E-01  1.46964774E-01  1.42800000E+00
  3.40613410E+01  5.12357460E+00  1.16466260E+00  3.27230410E-01  1.03072410E-01
  8.00000000E-01  9.57741296E-02  3.40613410E+01  5.12357460E+00  1.16466260E+00
  3.27230410E-01  1.03072410E-01  8.00000000E-01  9.57741296E-02
Contraction coefficients                   R   N=          89
  6.06455036E-04  4.69790889E-03  2.43324776E-02  9.73999683E-02  3.01955843E-01
  6.62336091E-01  6.55953085E-01  3.75856333E-01  1.00000000E+00  1.00000000E+00
  1.00000000E+00  1.00000000E+00  1.13272200E-02  7.61696592E-02  3.01922522E-01
  7.27850273E-01  1.00000000E+00  1.00000000E+00  1.00000000E+00  1.00000000E+00
  1.00000000E+00  1.00000000E+00  5.23800749E-04  4.05063268E-03  2.08270042E-02
  8.14968503E-02  2.37491138E-01  4.47261715E-01  3.48919184E-01  1.00455699E-01
  4.33911729E-01 -1.20843306E+00  6.74981294E-01  3.47087958E-01  1.00000000E+00
  1.00000000E+00  1.00000000E+00  3.48869236E-03  2.76851268E-02  1.26594002E-01
  3.61659257E-01  6.12220344E-01  1.00000000E+00  1.00000000E+00  1.00000000E+00
  1.00000000E+00  1.00000000E+00  1.82851975E-01  9.14259873E-01  1.00000000E+00
  1.00000000E+00  1.00000000E+00  5.72273352E-04  4.43532335E-03  2.30201077E-02
  9.28224907E-02  2.93785000E-01  6.74016045E-01  6.38399370E-01  3.95345871E-01
  1.00000000E+00  1.00000000E+00  1.00000000E+00  1.00000000E+00  1.20183322E-02
  8.30054218E-02  3.19917439E-01  7.07155429E-01  1.00000000E+00  1.00000000E+00
  1.00000000E+00  1.00000000E+00  1.00000000E+00  1.00000000E+00  1.00000000E+00
  2.54393072E-02  1.90085949E-01  8.52441130E-01  1.00000000E+00  1.00000000E+00
  1.00000000E+00  1.00000000E+00  2.54393072E-02  1.90085949E-01  8.52441130E-01
  1.00000000E+00  1.00000000E+00  1.00000000E+00  1.00000000E+00
Coordinates of each shell                  R   N=         159
  1.84630873E+00 -3.74093449E-02 -1.90536037E-01  1.84630873E+00 -3.74093449E-02
 -1.90536037E-01  1.84630873E+00 -3.74093449E-02 -1.90536037E-01  1.84630873E+00
 -3.74093449E-02 -1.90536037E-01  1.84630873E+00 -3.74093449E-02 -1.90536037E-01
  1.84630873E+00 -3.74093449E-02 -1.90536037E-01  1.84630873E+00 -3.74093449E-02
 -1.90536037E-01  1.84630873E+00 -3.74093449E-02 -1.90536037E-01  1.84630873E+00
 -3.74093449E-02 -1.90536037E-01  1.84630873E+00 -3.74093449E-02 -1.90536037E-01
  1.84630873E+00 -3.74093449E-02 -1.90536037E-01  1.84630873E+00 -3.74093449E-02
 -1.90536037E-01  1.84630873E+00 -3.74093449E-02 -1.90536037E-01  4.89061526E+00
 -6.53203910E-02 -2.38935210E-01  4.89061526E+00 -6.53203910E-02 -2.38935210E-01
  4.89061526E+00 -6.53203910E-02 -2.38935210E-01  4.89061526E+00 -6.53203910E-02
 -2.38935210E-01  4.89061526E+00 -6.53203910E-02 -2.38935210E-01  4.89061526E+00
 -6.53203910E-02 -2.38935210E-01  4.89061526E+00 -6.53203910E-02 -2.38935210E-01
  4.89061526E+00 -6.53203910E-02 -2.38935210E-01  4.89061526E+00 -6.53203910E-02
 -2.38935210E-01  4.89061526E+00 -6.53203910E-02 -2.38935210E-01  4.89061526E+00
 -6.53203910E-02 -2.38935210E-01  4.89061526E+00 -6.53203910E-02 -2.38935210E-01
  4.89061526E+00 -6.53203910E-02 -2.38935210E-01  4.89061526E+00 -6.53203910E-02
 -2.38935210E-01  4.89061526E+00 -6.53203910E-02 -2.38935210E-01  4.89061526E+00
 -6.53203910E-02 -2.38935210E-01  5.99277468E+00 -1.34985333E+00 -2.48781287E+00
  5.99277468E+00 -1.34985333E+00 -2.48781287E+00  5.99277468E+00 -1.34985333E+00
 -2.48781287E+00  5.99277468E+00 -1.34985333E+00 -2.48781287E+00  5.99277468E+00
 -1.34985333E+00 -2.48781287E+00  5.99277468E+00 -1.34985333E+00 -2.48781287E+00
  5.99277468E+00 -1.34985333E+00 -2.48781287E+00  5.99277468E+00 -1.34985333E+00
 -2.48781287E+00  5.99277468E+00 -1.34985333E+00 -2.48781287E+00  5.99277468E+00
 -1.34985333E+00 -2.48781287E+00  5.99277468E+00 -1.34985333E+00 -2.48781287E+00
  5.99277468E+00 -1.34985333E+00 -2.48781287E+00  5.99277468E+00 -1.34985333E+00
 -2.48781287E+00  5.99277468E+00 -1.34985333E+00 -2.48781287E+00  9.79013775E-01
  8.91172187E-01  1.43410851E+00  9.79013775E-01  8.91172187E-01  1.43410851E+00
  9.79013775E-01  8.91172187E-01  1.43410851E+00  9.79013775E-01  8.91172187E-01
  1.43410851E+00  9.79013775E-01  8.91172187E-01  1.43410851E+00  7.00713826E-01
 -8.88557081E-01 -1.68005585E+00  7.00713826E-01 -8.88557081E-01 -1.68005585E+00
  7.00713826E-01 -8.88557081E-01 -1.68005585E+00  7.00713826E-01 -8.88557081E-01
 -1.68005585E+00  7.00713826E-01 -8.88557081E-01 -1.68005585E+00
Num ILSW                                   I              100
ILSW                                       I   N=         100
           1           0           0           0           2           0
           0           0           0           0        4639          -1
           5           0           0           0           2           0
           0           0           0           0           1           0
           1           1           0           0           0           0
           0           0      100000           0          -1           0
           0           0           0           0           0           0
           0           0           0           1           0           0
           0 -2000000000           1           0           0           0
           0           0         121          52           0           0
           0           0          58           0           0           0
           0           0           0           5           0           1
           0           0           0           0           0           0
           0           0           0           0           0           0
           0           0           0           0           0           0
           0           0           0           0           0           0
           0           0           0           0
Num RLSW                                   I               52
RLSW                                       R   N=          52
  1.00000000E+00  1.00000000E+00  1.00000000E+00  1.00000000E+00  1.00000000E+00
  0.00000000E+00  2.00000000E-01  2.22036000E-01  0.00000000E+00  7.77964000E-01
  0.00000000E+00  2.00000000E-01  0.00000000E+00  0.00000000E+00  1.00000000E+00
  0.00000000E+00  0.00000000E+00  1.00000000E+00  0.00000000E+00  0.00000000E+00
  0.00000000E+00  0.00000000E+00  1.00000000E+00  0.00000000E+00  0.00000000E+00
  0.00000000E+00  0.00000000E+00  1.00000000E+00  0.00000000E+00  0.00000000E+00
  0.00000000E+00  0.00000000E+00  1.00000000E+00  0.00000000E+00  0.00000000E+00
  0.00000000E+00  0.00000000E+00  0.00000000E+00  1.00000000E+00  1.00000000E+00
  0.00000000E+00  1.00000000E+00  0.00000000E+00  0.00000000E+00  0.00000000E+00
  0.00000000E+00  0.00000000E+00  0.00000000E+00  0.00000000E+00  0.00000000E+00
  0.00000000E+00  0.00000000E+00
MxBond                                     I                3
NBond                                      I   N=           5
           3           2           1           1           1
IBond                                      I   N=          15
           2           4           5           1           3           0
           2           0           0           1           0           0
           1           0           0
RBond                                      R   N=          15
  2.00000000E+00  1.00000000E+00  1.00000000E+00  2.00000000E+00  2.00000000E+00
  0.00000000E+00  2.00000000E+00  0.00000000E+00  0.00000000E+00  1.00000000E+00
  0.00000000E+00  0.00000000E+00  1.00000000E+00  0.00000000E+00  0.00000000E+00
Virial Ratio                               R      2.002499720325961E+00
SCF Energy                                 R     -5.126940721514824E+02
Total Energy                               R     -5.126940721514824E+02
S**2                                       R     -3.552713678800501E-15
S**2 after annihilation                    R     -1.065814103640145E-14
RMS Force                                  R      1.110412912119208E-02
RMS Density                                R      6.210461400351614E-10
Job Status                                 I                1
Nuclear derivative order                   I                1
External E-field                           R   N=          35
  0.00000000E+00  0.00000000E+00  0.00000000E+00  0.00000000E+00  0.00000000E+00
  0.00000000E+00  0.00000000E+00  0.00000000E+00  0.00000000E+00  0.00000000E+00
  0.00000000E+00  0.00000000E+00  0.00000000E+00  0.00000000E+00  0.00000000E+00
  0.00000000E+00  0.00000000E+00  0.00000000E+00  0.00000000E+00  0.00000000E+00
  0.00000000E+00  0.00000000E+00  0.00000000E+00  0.00000000E+00  0.00000000E+00
  0.00000000E+00  0.00000000E+00  0.00000000E+00  0.00000000E+00  0.00000000E+00
  0.00000000E+00  0.00000000E+00  0.00000000E+00  0.00000000E+00  0.00000000E+00
IOpCl                                      I                1
IROHF                                      I                0
Alpha Orbital Energies                     R   N=         141
 -8.91366627E+01 -1.92521428E+01 -1.03405770E+01 -8.15810488E+00 -6.10494483E+00
 -6.10474289E+00 -6.10049656E+00 -1.14259325E+00 -8.99889003E-01 -6.98527575E-01
 -5.78738586E-01 -5.49910644E-01 -5.07913717E-01 -4.75836353E-01 -3.70895361E-01
 -3.54913824E-01 -2.04812117E-02  6.00960848E-02  6.37993632E-02  6.77041693E-02
  7.66793711E-02  9.78485798E-02  1.22751242E-01  1.42433877E-01  1.57823358E-01
  1.72741787E-01  1.78877473E-01  1.84964643E-01  2.17032641E-01  2.17054251E-01
  2.38209270E-01  2.50242861E-01  2.65838719E-01  2.69837848E-01  2.97161013E-01
  3.19634953E-01  3.21798234E-01  3.31433885E-01  3.41213326E-01  3.57931114E-01
  3.71729106E-01  3.84575484E-01  4.05491626E-01  4.22617343E-01  4.28053898E-01
  4.42339655E-01  4.58227129E-01  4.91484354E-01  5.00746813E-01  5.21705077E-01
  5.27554465E-01  5.42106375E-01  5.57291659E-01  5.89756750E-01  6.25196213E-01
  6.29753394E-01  6.42243902E-01  6.71552592E-01  6.84869524E-01  7.20087517E-01
  7.42243839E-01  7.56744764E-01  7.96905060E-01  8.45810441E-01  8.85217973E-01
  9.07876292E-01  9.14780705E-01  9.60160628E-01  9.64110801E-01  1.03315973E+00
  1.07572540E+00  1.13061595E+00  1.18142564E+00  1.19303736E+00  1.22462201E+00
  1.57062971E+00  1.58601944E+00  1.61840126E+00  1.63679841E+00  1.64040710E+00
  1.65943132E+00  1.68799910E+00  1.73928597E+00  1.76847808E+00  1.82084250E+00
  1.86112327E+00  1.88087585E+00  1.89165500E+00  1.91850935E+00  1.92001265E+00
  1.96120619E+00  1.96255017E+00  2.09404794E+00  2.12628343E+00  2.16382606E+00
  2.21678808E+00  2.26331856E+00  2.37565299E+00  2.42688961E+00  2.43678781E+00
  2.47535922E+00  2.63113741E+00  2.68156575E+00  2.71877913E+00  2.74716132E+00
  2.84284568E+00  2.89464071E+00  2.98177573E+00  3.16529137E+00  3.17495022E+00
  3.20848220E+00  3.22991233E+00  3.27516741E+00  3.28085486E+00  3.38950944E+00
  3.52852820E+00  3.53080074E+00  3.57668051E+00  3.76470292E+00  3.80816517E+00
  3.99322106E+00  4.28243124E+00  4.61705027E+00  5.23857859E+00  5.23924482E+00
  5.32120182E+00  5.35242443E+00  5.54027797E+00  5.61565777E+00  5.62439567E+00
  6.51652419E+00  6.53395738E+00  6.73668488E+00  6.80632720E+00  7.08331617E+00
  8.96669778E+00  9.34247128E+00  9.71600151E+00  2.10234986E+01  2.22757283E+01
  4.38230024E+01
Beta Orbital Energies                      R   N=         141
 -8.91366627E+01 -1.92521428E+01 -1.03405770E+01 -8.15810488E+00 -6.10494483E+00
 -6.10474289E+00 -6.10049656E+00 -1.14259325E+00 -8.99889003E-01 -6.98527575E-01
 -5.78738586E-01 -5.49910644E-01 -5.07913717E-01 -4.75836353E-01 -3.70895361E-01
 -3.54913824E-01 -2.04812117E-02  6.00960848E-02  6.37993632E-02  6.77041693E-02
  7.66793711E-02  9.78485798E-02  1.22751242E-01  1.42433877E-01  1.57823358E-01
  1.72741787E-01  1.78877473E-01  1.84964643E-01  2.17032641E-01  2.17054251E-01
  2.38209270E-01  2.50242861E-01  2.65838719E-01  2.69837848E-01  2.97161013E-01
  3.19634953E-01  3.21798234E-01  3.31433885E-01  3.41213326E-01  3.57931114E-01
  3.71729106E-01  3.84575484E-01  4.05491626E-01  4.22617343E-01  4.28053898E-01
  4.42339655E-01  4.58227129E-01  4.91484354E-01  5.00746813E-01  5.21705077E-01
  5.27554465E-01  5.42106375E-01  5.57291659E-01  5.89756750E-01  6.25196213E-01
  6.29753394E-01  6.42243902E-01  6.71552592E-01  6.84869524E-01  7.20087517E-01
  7.42243839E-01  7.56744764E-01  7.96905060E-01  8.45810441E-01  8.85217973E-01
  9.07876292E-01  9.14780705E-01  9.60160628E-01  9.64110801E-01  1.03315973E+00
  1.07572540E+00  1.13061595E+00  1.18142564E+00  1.19303736E+00  1.22462201E+00
  1.57062971E+00  1.58601944E+00  1.61840126E+00  1.63679841E+00  1.64040710E+00
  1.65943132E+00  1.68799910E+00  1.73928597E+00  1.76847808E+00  1.82084250E+00
  1.86112327E+00  1.88087585E+00  1.89165500E+00  1.91850935E+00  1.92001265E+00
  1.96120619E+00  1.96255017E+00  2.09404794E+00  2.12628343E+00  2.16382606E+00
  2.21678808E+00  2.26331856E+00  2.37565299E+00  2.42688961E+00  2.43678781E+00
  2.47535922E+00  2.63113741E+00  2.68156575E+00  2.71877913E+00  2.74716132E+00
  2.84284568E+00  2.89464071E+00  2.98177573E+00  3.16529137E+00  3.17495022E+00
  3.20848220E+00  3.22991233E+00  3.27516741E+00  3.28085486E+00  3.38950944E+00
  3.52852820E+00  3.53080074E+00  3.57668051E+00  3.76470292E+00  3.80816517E+00
  3.99322106E+00  4.28243124E+00  4.61705027E+00  5.23857859E+00  5.23924482E+00
  5.32120182E+00  5.35242443E+00  5.54027797E+00  5.61565777E+00  5.62439567E+00
  6.51652419E+00  6.53395738E+00  6.73668488E+00  6.80632720E+00  7.08331617E+00
  8.96669778E+00  9.34247128E+00  9.71600151E+00  2.10234986E+01  2.22757283E+01
  4.38230024E+01
Alpha MO coefficients                      R   N=       19881
  1.51474992E-06 -1.39118882E-05  1.04443323E-03 -3.90121799E-03 -1.44294034E-03
 -2.07796355E-04  2.75955521E-04 -5.76782407E-06 -1.00534365E-05 -3.37558136E-03
 -8.90360071E-07 -2.09116804E-06  1.24379842E-03 -1.95350204E-04 -3.41697001E-04
  5.05391741E-05 -4.40832455E-07 -1.04625058E-05 -9.98573020E-05 -2.35086500E-07
  9.19910981E-04 -1.65463316E-05  1.62335012E-04 -1.40209373E-03 -9.20267112E-06
 -1.23359410E-03 -5.23433221E-04 -8.53108996E-04  1.13131401E-03 -2.99292817E-04
 -7.56825448E-06  2.76344330E-04  4.99916928E-06  9.92902993E-06 -1.69733888E-05
 -3.73072244E-04  8.76297218E-06  9.99270193E-01 -3.17097830E-02 -1.13588219E-02
  5.06772960E-03  1.27037415E-03 -2.01079909E-04 -4.31136213E-05 -5.82144951E-05
 -1.01909639E-04 -1.14468530E-05  6.04502127E-05  1.05823597E-04  3.01371935E-04
  8.57431927E-05  1.50179350E-04 -2.33277540E-03 -9.27129777E-04 -1.62363615E-03
  7.91048301E-04  5.58670151E-06  9.62204770E-06  6.99114250E-05  2.16394102E-05
  3.79095362E-05  9.09030315E-06 -1.40027609E-04  1.98018496E-04  2.17829491E-04
 -8.00218090E-05 -2.87712671E-04 -7.54315493E-04  6.18651269E-04  1.22804667E-03
 -4.31075644E-04  1.13303851E-05 -1.55592879E-04 -1.14533657E-05 -3.32345869E-05
 -8.88914882E-05 -5.95234375E-05  5.32475308E-04 -3.02417339E-04  7.00642367E-05
  2.88575294E-04 -4.09500441E-04 -2.38136765E-05  1.85595433E-05 -7.05015560E-05
  6.52273579E-04 -1.26372036E-03 -1.84816606E-03 -8.44940678E-04 -9.59179114E-05
  1.01326249E-04  1.77398994E-04  5.48521475E-04 -6.17211187E-04 -1.08059184E-03
  2.59141085E-04 -6.09213049E-04 -1.06652570E-03  1.96414058E-05 -1.35577914E-04
 -2.37390293E-04  4.87228019E-05 -5.90440944E-05  6.83367572E-05 -3.78273457E-06
 -3.37266118E-05 -3.79340965E-04  4.47949356E-04 -5.27810958E-04  3.44539111E-05
  2.55867957E-04 -1.93582342E-04  4.84410928E-05 -2.49698324E-04  4.07807392E-05
  2.76854953E-05 -1.52491852E-05  1.18110518E-04 -1.28631402E-04  1.67464204E-05
  1.23370252E-04 -3.36635320E-05 -1.98936878E-05 -1.85414449E-05 -2.78144310E-04
  2.19521412E-03 -6.51769176E-05  2.57672195E-06  4.50196954E-06  1.04838592E-03
  1.59034075E-04  2.78497592E-04  8.04142235E-06 -2.93109125E-04  2.40172019E-03
 -1.08869581E-04  1.34014009E-05  2.34171771E-05  7.22526563E-04 -2.19125524E-04
 -3.83326193E-04  1.37682127E-06 -2.06416506E-06  4.74689084E-05  4.42878600E-04
 -1.44960264E-03  5.46306361E-04 -8.68947140E-05 -3.37407192E-05 -5.91145120E-05
  1.75785817E-03 -4.85843466E-05 -8.45927439E-05 -4.88450288E-03 -1.11077395E-03
 -1.94565116E-03  6.09294657E-06 -9.59253213E-05  3.75726799E-05  3.37854938E-05
 -5.48164524E-05 -5.68891723E-04  2.96689902E-04 -5.76048153E-04  3.06318723E-04
  1.69534515E-04  5.10282262E-04 -3.41565645E-03  6.34284943E-04 -1.36509847E-04
 -1.95201111E-03 -2.72582606E-05  4.12902683E-05  1.91298564E-06  3.54450683E-05
  5.92217793E-05  3.64549854E-06  2.68590833E-05  8.99448650E-05 -2.12914536E-04
 -6.47724181E-04  3.64909885E-04 -2.20938804E-03  1.72206615E-03 -5.27739927E-06
 -1.07295484E-05 -1.87938777E-05 -5.69465747E-07  9.48036073E-05  1.66015150E-04
 -3.14365656E-04  6.27136144E-06  1.08456766E-05  2.27685134E-03 -1.27175631E-03
 -2.22608838E-03 -5.12912878E-03  4.32527521E-03  7.57045962E-03 -7.03373943E-05
 -3.97561023E-05 -6.97214675E-05  3.82868589E-04 -3.87872094E-04  5.10187774E-04
 -6.13443766E-05 -2.21528085E-04  9.97617142E-04 -8.36392534E-04  9.74934114E-04
 -5.77984770E-04 -4.77697550E-04 -1.74050750E-03 -1.66417564E-04 -1.64810398E-03
  1.07062322E-03 -9.53665622E-05 -7.81174259E-05  3.73160692E-04 -6.27337351E-04
  8.65250061E-05  4.87846825E-04 -1.18908418E-05 -9.34411775E-05  4.35362528E-01
  6.39645768E-01  3.44955305E-02 -2.57383690E-02  1.89099006E-02 -1.71654771E-03
 -8.50286373E-04  8.83035741E-04  1.54606695E-03  1.60164283E-03 -1.77795036E-03
 -3.11285486E-03 -1.57837830E-03  1.90640388E-03  3.33790803E-03 -2.71141410E-05
 -2.87793466E-04 -5.03846545E-04  1.26583794E-04 -1.58638178E-04  1.57335649E-04
 -3.36531953E-05 -9.06031550E-05 -5.04909353E-04  6.27849880E-04 -6.61256473E-04
  9.45195979E-05  3.58602948E-04  4.96763745E-04 -4.49490159E-04  4.79518062E-04
 -2.94693565E-04 -2.56694275E-04 -1.26778660E-05  1.09448812E-04 -1.27372818E-04
  1.34407304E-05  1.17145629E-04 -2.84738603E-05 -2.20386109E-05  6.25854759E-05
  1.18774505E-03 -5.34732762E-03  8.12411801E-05 -8.96061470E-05 -1.56740359E-04
  2.00288192E-03  6.36815925E-04  1.11490662E-03  5.47738671E-05  4.98413295E-04
 -7.46829090E-04  2.08290800E-04  4.10972120E-05  7.18628984E-05 -1.10427487E-03
 -1.51975702E-04 -2.65644828E-04  4.67221267E-01  6.08574191E-01  3.77251479E-02
 -3.32562034E-02  9.80084951E-02 -4.80402802E-03  5.27266493E-04  1.93576149E-05
  3.38968831E-05 -3.06979113E-03  2.58454908E-04  4.51829470E-04 -2.02498771E-02
  1.30812095E-03  2.28634113E-03  7.76474363E-05  2.11363958E-05  6.46280947E-04
  6.27082900E-04  1.19278247E-05  1.29124106E-03  2.91885685E-04  9.48579748E-04
 -1.11896855E-03  1.66883048E-04  8.19215762E-03  2.58060411E-03  9.47488786E-03
 -3.02281821E-03  1.47491536E-03  7.49705286E-05 -5.89486212E-04  9.67870057E-05
 -9.51679850E-05 -6.98862399E-04  8.86319858E-05 -4.64844317E-05 -2.33635234E-05
  2.63695119E-05  6.15453323E-05  6.30276980E-05  1.09715707E-02  4.29024891E-03
  3.96721130E-05  7.64429925E-06  1.33915535E-05 -9.43296643E-05 -2.90392974E-05
 -5.08648291E-05 -4.90421102E-05  9.36319924E-05  1.63953741E-04 -1.99687319E-03
 -2.94895597E-04 -5.16691210E-04 -3.94072327E-03 -1.91473905E-03 -3.35186131E-03
 -1.70292058E-03  4.76449435E-05  8.32497445E-05 -2.69598862E-05 -9.99057638E-05
 -5.82298243E-05 -2.20495246E-05 -5.70704731E-05  8.98038773E-06  6.64657085E-04
  2.47766010E-04  2.77090018E-04  3.79640582E-04 -1.08255724E-03  2.17568012E-03
 -1.55781250E-03  3.93673912E-05  1.24307913E-03 -5.04157559E-05 -5.46016422E-04
 -5.76803308E-05  6.39393338E-05 -1.40706726E-04  5.69346964E-04  3.29798479E-05
  1.21569201E-06 -4.99619739E-07 -6.23769401E-05  6.25590553E-04 -1.08394516E-03
 -1.63813379E-03  9.10823187E-06 -9.22731734E-06 -1.61513970E-05 -1.18106599E-04
  1.50069176E-04  2.62750170E-04  2.67625078E-03 -6.38956179E-04 -1.11815082E-03
  1.68322630E-03 -2.47941184E-04 -4.33856262E-04 -2.33376167E-05 -5.18998785E-05
  3.06550153E-06  4.40157360E-05 -2.96620657E-05  1.81798593E-04  2.18355657E-04
  6.84852447E-05 -2.33988843E-04  1.24800490E-04  1.97456719E-04  5.82183101E-04
 -1.97440175E-04 -5.74871357E-04  3.32371585E-04  5.35928174E-05 -1.59658066E-05
  2.58569136E-05 -6.88676279E-05  7.39980110E-08  2.06614578E-05 -4.48020600E-05
 -4.10942686E-04 -1.37266591E-03 -4.61329635E-02 -7.55376555E-04  7.17333240E-04
  1.25505256E-03 -7.04347127E-03  2.39228467E-03  4.18319144E-03 -4.48600541E-04
 -8.03183349E-04 -4.97654748E-02 -9.35454338E-04 -6.13976245E-04 -1.07448535E-03
 -7.71556849E-03 -2.15291856E-03 -3.76786323E-03 -9.30594101E-05 -1.52048679E-04
  2.57214968E-03 -9.98625659E-03 -1.07873650E-03  1.80581097E-04  7.07073143E-04
 -1.23906147E-05 -2.15812793E-05 -9.24309959E-03 -4.15181168E-06 -8.73929027E-06
  9.76323115E-03 -1.07708874E-03 -1.88365247E-03  1.39100309E-04  1.22972755E-05
 -2.95447267E-05 -2.75719915E-04  7.07041668E-06  2.48602062E-03 -1.07585704E-04
  5.99364003E-04 -3.59983162E-03 -6.08190544E-05 -5.57784584E-03 -1.51308120E-03
 -3.75037005E-03  5.24166713E-03 -8.65464630E-04  1.77388279E-05  5.16528541E-04
  2.72944338E-05 -2.23769624E-05 -1.00725335E-04 -7.63708981E-04 -9.59535612E-06
 -2.87663325E-01 -2.40474687E-01  8.05797569E-01  3.41492192E-02 -1.22408346E-02
 -3.75048484E-03 -2.10611286E-03 -2.37988218E-03 -4.16563126E-03 -1.40031159E-03
 -1.48259828E-03 -2.59456707E-03  7.54057625E-04  8.83045214E-05  1.54860506E-04
 -6.73498175E-03 -2.25952835E-03 -3.95721669E-03  6.46083598E-03  6.54162957E-04
  1.14536268E-03  5.18951466E-04  1.20935749E-04  2.11895597E-04 -5.97947320E-05
 -6.35806490E-04  3.66806838E-04  5.35668384E-04 -3.63415954E-04 -9.31611671E-04
 -1.79684202E-03  1.53840287E-03  3.42852229E-03 -1.02684344E-03  2.38095117E-04
 -5.52769198E-04 -1.14501471E-04 -5.48083419E-04 -3.15770829E-04 -1.65021333E-04
  1.54876289E-03 -8.05962486E-04  1.95048219E-04  7.88422085E-04 -1.24015135E-03
 -5.72192984E-05 -5.36346062E-05 -2.09916682E-04  1.43943153E-03 -2.84668867E-03
 -3.42231006E-03 -1.47216022E-03 -2.34230747E-04  2.59916664E-04  4.55075126E-04
  1.23966815E-03 -1.39106331E-03 -2.43548672E-03  9.80358435E-05 -1.28845872E-03
 -2.25550252E-03 -4.97841603E-05 -4.11577702E-04 -7.20732566E-04  9.53653040E-05
 -1.04230486E-04  1.27796946E-04 -1.44070808E-05 -5.95319783E-05 -8.10995666E-04
  9.04152076E-04 -1.10903048E-03  9.64331501E-05  5.16433489E-04 -5.72420155E-04
  1.00522458E-04 -7.64304208E-04  9.01243357E-05  5.75310578E-05 -2.40280940E-05