 Entering Gaussian System, Link 0=g16
 Input=0001_q000_m01_k00_force_ub3lyp_def2qzvp.com
 Output=0001_q000_m01_k00_force_ub3lyp_def2qzvp.log
 Initial command:
 /opt/software/gaussian/g16.c01/l1.exe "/localscratch/bhavuk.2151330.0/Gau-16154.inp" -scrdir="/localscratch/bhavuk.2151330.0/"
 Entering Link 1 = /opt/software/gaussian/g16.c01/l1.exe PID=     16155.
  
 Copyright (c) 1988-2019, Gaussian, Inc.  All Rights Reserved.
  
 This is part of the Gaussian(R) 16 program.  It is based on
 the Gaussian(R) 09 system (copyright 2009, Gaussian, Inc.),
 the Gaussian(R) 03 system (copyright 2003, Gaussian, Inc.),
 the Gaussian(R) 98 system (copyright 1998, Gaussian, Inc.),
 the Gaussian(R) 94 system (copyright 1995, Gaussian, Inc.),
 the Gaussian 92(TM) system (copyright 1992, Gaussian, Inc.),
 the Gaussian 90(TM) system (copyright 1990, Gaussian, Inc.),
 the Gaussian 88(TM) system (copyright 1988, Gaussian, Inc.),
 the Gaussian 86(TM) system (copyright 1986, Carnegie Mellon
 University), and the Gaussian 82(TM) system (copyright 1983,
 Carnegie Mellon University). Gaussian is a federally registered
 trademark of Gaussian, Inc.
  
 This software contains proprietary and confidential information,
 including trade secrets, belonging to Gaussian, Inc.
  
 This software is provided under written license and may be
 used, copied, transmitted, or stored only in accord with that
 written license.
  
 The following legend is applicable only to US Government
 contracts under FAR:
  
                    RESTRICTED RIGHTS LEGEND
  
 Use, reproduction and disclosure by the US Government is
 subject to restrictions as set forth in subparagraphs (a)
 and (c) of the Commercial Computer Software - Restricted
 Rights clause in FAR 52.227-19.
  
 Gaussian, Inc.
 340 Quinnipiac St., Bldg. 40, Wallingford CT 06492
  
  
 ---------------------------------------------------------------
 Warning -- This program may not be used in any manner that
 competes with the business of Gaussian, Inc. or will provide
 assistance to any competitor of Gaussian, Inc.  The licensee
 of this program is prohibited from giving any competitor of
 Gaussian, Inc. access to this program.  By using this program,
 the user acknowledges that Gaussian, Inc. is engaged in the
 business of creating and licensing software in the field of
 computational chemistry and represents and warrants to the
 licensee that it is not a competitor of Gaussian, Inc. and that
 it will not use this program in any manner prohibited above.
 ---------------------------------------------------------------
  

 Cite this work as:
 Gaussian 16, Revision C.01,
 M. J. Frisch, G. W. Trucks, H. B. Schlegel, G. E. Scuseria, 
 M. A. Robb, J. R. Cheeseman, G. Scalmani, V. Barone, 
 G. A. Petersson, H. Nakatsuji, X. Li, M. Caricato, A. V. Marenich, 
 J. Bloino, B. G. Janesko, R. Gomperts, B. Mennucci, H. P. Hratchian, 
 J. V. Ortiz, A. F. Izmaylov, J. L. Sonnenberg, D. Williams-Young, 
 F. Ding, F. Lipparini, F. Egidi, J. Goings, B. Peng, A. Petrone, 
 T. Henderson, D. Ranasinghe, V. G. Zakrzewski, J. Gao, N. Rega, 
 G. Zheng, W. Liang, M. Hada, M. Ehara, K. Toyota, R. Fukuda, 
 J. Hasegawa, M. Ishida, T. Nakajima, Y. Honda, O. Kitao, H. Nakai, 
 T. Vreven, K. Throssell, J. A. Montgomery, Jr., J. E. Peralta, 
 F. Ogliaro, M. J. Bearpark, J. J. Heyd, E. N. Brothers, K. N. Kudin, 
 V. N. Staroverov, T. A. Keith, R. Kobayashi, J. Normand, 
 K. Raghavachari, A. P. Rendell, J. C. Burant, S. S. Iyengar, 
 J. Tomasi, M. Cossi, J. M. Millam, M. Klene, C. Adamo, R. Cammi, 
 J. W. Ochterski, R. L. Martin, K. Morokuma, O. Farkas, 
 J. B. Foresman, and D. J. Fox, Gaussian, Inc., Wallingford CT, 2019.
 
 ******************************************
 Gaussian 16:  ES64L-G16RevC.01  3-Jul-2019
                 3-Jan-2023 
 ******************************************
 %chk=0001_q000_m01_k00_force_ub3lyp_def2qzvp.chk
 %nprocshared=2
 Will use up to    2 processors via shared memory.
 %mem=4GB
 ----------------------------------------------------------------------
 #p ub3lyp/gen stable=opt scf=(maxcycle=900,verytightlineq,xqc) integra
 l=grid=ultrafine symmetry=None density=current iop(99/18=-1) output=wf
 n
 ----------------------------------------------------------------------
 1/38=1,172=1/1;
 2/12=2,15=3,17=6,18=5,40=1/2;
 3/5=7,11=2,25=1,30=1,74=-5,75=-5,116=2/1,2,3;
 4//1;
 5/5=2,7=900,8=3,13=1,17=3,38=5/2,8;
 6/7=2,8=2,9=2,10=2,22=-1,28=1/1;
 8/6=1,10=90,11=11/1;
 9/8=-3,42=1,46=1/14;
 5/5=2,7=900,8=3,17=43,38=5/8(-2);
 6/7=2,8=2,9=2,10=2,22=-1,28=1/1;
 99/5=1,6=100,9=1,18=-1/99;
 Leave Link    1 at Tue Jan  3 09:03:06 2023, MaxMem=   536870912 cpu:               0.1 elap:               0.1
 (Enter /opt/software/gaussian/g16.c01/l101.exe)
 ----------------------------------------------------------------------
 0001_q000_m01_k00_opt_uwb97xd_def2svpd/0001_q000_m01_k00_force_ub3lyp_
 def2qzvp stable-force
 ----------------------------------------------------------------------
 Symbolic Z-matrix:
 Charge =  0 Multiplicity = 1
 C                     1.07262  -0.0702   -0.15301 
 N                     2.37794  -0.08975  -0.25439 
 N                     3.08336  -0.36847  -1.30873 
 H                     4.06405  -0.29267  -1.04764 
 H                     0.63996   0.18515   0.80853 
 H                     0.48304  -0.30998  -1.03372 
 H                     2.8675    0.14588   0.61313 
 
 ITRead=  0  0  0  0  0  0  0
 MicOpt= -1 -1 -1 -1 -1 -1 -1
 NAtoms=      7 NQM=        7 NQMF=       0 NMMI=      0 NMMIF=      0
                NMic=       0 NMicF=      0.
                    Isotopes and Nuclear Properties:
 (Nuclear quadrupole moments (NQMom) in fm**2, nuclear magnetic moments (NMagM)
  in nuclear magnetons)

  Atom         1           2           3           4           5           6           7
 IAtWgt=          12          14          14           1           1           1           1
 AtmWgt=  12.0000000  14.0030740  14.0030740   1.0078250   1.0078250   1.0078250   1.0078250
 NucSpn=           0           2           2           1           1           1           1
 AtZEff=  -0.0000000  -0.0000000  -0.0000000  -0.0000000  -0.0000000  -0.0000000  -0.0000000
 NQMom=    0.0000000   2.0440000   2.0440000   0.0000000   0.0000000   0.0000000   0.0000000
 NMagM=    0.0000000   0.4037610   0.4037610   2.7928460   2.7928460   2.7928460   2.7928460
 AtZNuc=   6.0000000   7.0000000   7.0000000   1.0000000   1.0000000   1.0000000   1.0000000
 Leave Link  101 at Tue Jan  3 09:03:06 2023, MaxMem=   536870912 cpu:               0.2 elap:               0.1
 (Enter /opt/software/gaussian/g16.c01/l202.exe)
                          Input orientation:                          
 ---------------------------------------------------------------------
 Center     Atomic      Atomic             Coordinates (Angstroms)
 Number     Number       Type             X           Y           Z
 ---------------------------------------------------------------------
      1          6           0        1.072617   -0.070199   -0.153013
      2          7           0        2.377944   -0.089746   -0.254385
      3          7           0        3.083355   -0.368470   -1.308729
      4          1           0        4.064049   -0.292670   -1.047637
      5          1           0        0.639963    0.185154    0.808526
      6          1           0        0.483044   -0.309980   -1.033725
      7          1           0        2.867498    0.145880    0.613132
 ---------------------------------------------------------------------
                    Distance matrix (angstroms):
                    1          2          3          4          5
     1  C    0.000000
     2  N    1.309403   0.000000
     3  N    2.338315   1.298820   0.000000
     4  H    3.130258   1.874401   1.017681   0.000000
     5  H    1.084874   2.055706   3.280158   3.924032   0.000000
     6  H    1.086621   2.060708   2.615467   3.581074   1.914071
     7  H    1.963483   1.023606   2.001175   2.093374   2.236433
                    6          7
     6  H    0.000000
     7  H    2.933525   0.000000
 Symmetry turned off by external request.
 Stoichiometry    CH4N2
 Rotational constants (GHZ):          71.2642239          11.2793619           9.7380671
 Leave Link  202 at Tue Jan  3 09:03:06 2023, MaxMem=   536870912 cpu:               0.0 elap:               0.0
 (Enter /opt/software/gaussian/g16.c01/l301.exe)
 General basis read from cards:  (5D, 7F)
 Centers:       4      5      6      7
 S 4 1.00
     Exponent=  1.9069169000D+02 Coefficients=  7.0815167000D-04
     Exponent=  2.8605532000D+01 Coefficients=  5.4678827000D-03
     Exponent=  6.5095943000D+00 Coefficients=  2.7966605000D-02
     Exponent=  1.8412455000D+00 Coefficients=  1.0764538000D-01
 S 1 1.00
     Exponent=  5.9853725000D-01 Coefficients=  1.0000000000D+00
 S 1 1.00
     Exponent=  2.1397624000D-01 Coefficients=  1.0000000000D+00
 S 1 1.00
     Exponent=  8.0316286000D-02 Coefficients=  1.0000000000D+00
 P 1 1.00
     Exponent=  2.2920000000D+00 Coefficients=  1.0000000000D+00
 P 1 1.00
     Exponent=  8.3800000000D-01 Coefficients=  1.0000000000D+00
 P 1 1.00
     Exponent=  2.9200000000D-01 Coefficients=  1.0000000000D+00
 D 1 1.00
     Exponent=  2.0620000000D+00 Coefficients=  1.0000000000D+00
 D 1 1.00
     Exponent=  6.6200000000D-01 Coefficients=  1.0000000000D+00
 F 1 1.00
     Exponent=  1.3970000000D+00 Coefficients=  1.0000000000D+00
 ****
 Centers:       1
 S 8 1.00
     Exponent=  6.7025071029D+04 Coefficients=  3.8736308501D-05
     Exponent=  1.0039986538D+04 Coefficients=  3.0107917575D-04
     Exponent=  2.2849316911D+03 Coefficients=  1.5787918095D-03
     Exponent=  6.4714122130D+02 Coefficients=  6.6087087195D-03
     Exponent=  2.1109472335D+02 Coefficients=  2.3367123250D-02
     Exponent=  7.6177643862D+01 Coefficients=  7.0420716898D-02
     Exponent=  2.9633839163D+01 Coefficients=  1.7360344953D-01
     Exponent=  1.2187785081D+01 Coefficients=  3.2292305648D-01
 S 2 1.00
     Exponent=  5.3026006299D+01 Coefficients=  7.4897404492D-02
     Exponent=  1.5258502776D+01 Coefficients=  7.6136220983D-01
 S 1 1.00
     Exponent=  5.2403957464D+00 Coefficients=  1.0000000000D+00
 S 1 1.00
     Exponent=  2.2905022379D+00 Coefficients=  1.0000000000D+00
 S 1 1.00
     Exponent=  6.9673283006D-01 Coefficients=  1.0000000000D+00
 S 1 1.00
     Exponent=  2.7599337363D-01 Coefficients=  1.0000000000D+00
 S 1 1.00
     Exponent=  1.0739884389D-01 Coefficients=  1.0000000000D+00
 P 5 1.00
     Exponent=  1.0512555082D+02 Coefficients=  8.4647553844D-04
     Exponent=  2.4884461066D+01 Coefficients=  6.6274038534D-03
     Exponent=  7.8637230826D+00 Coefficients=  3.0120390419D-02
     Exponent=  2.8407001835D+00 Coefficients=  9.9951435476D-02
     Exponent=  1.1227137335D+00 Coefficients=  2.3826299282D-01
 P 1 1.00
     Exponent=  4.6050725555D-01 Coefficients=  1.0000000000D+00
 P 1 1.00
     Exponent=  1.8937530913D-01 Coefficients=  1.0000000000D+00
 P 1 1.00
     Exponent=  7.5983791611D-02 Coefficients=  1.0000000000D+00
 D 1 1.00
     Exponent=  1.8480000000D+00 Coefficients=  1.0000000000D+00
 D 1 1.00
     Exponent=  6.4900000000D-01 Coefficients=  1.0000000000D+00
 D 1 1.00
     Exponent=  2.2800000000D-01 Coefficients=  1.0000000000D+00
 F 1 1.00
     Exponent=  1.4190000000D+00 Coefficients=  1.0000000000D+00
 F 1 1.00
     Exponent=  4.8500000000D-01 Coefficients=  1.0000000000D+00
 G 1 1.00
     Exponent=  1.0110000000D+00 Coefficients=  1.0000000000D+00
 ****
 Centers:       2      3
 S 8 1.00
     Exponent=  9.0726889210D+04 Coefficients=  3.9257887368D-05
     Exponent=  1.3590528801D+04 Coefficients=  3.0513316455D-04
     Exponent=  3.0929883781D+03 Coefficients=  1.6000560446D-03
     Exponent=  8.7599876362D+02 Coefficients=  6.6982937306D-03
     Exponent=  2.8574469982D+02 Coefficients=  2.3690078765D-02
     Exponent=  1.0311913417D+02 Coefficients=  7.1455405268D-02
     Exponent=  4.0128556777D+01 Coefficients=  1.7632774876D-01
     Exponent=  1.6528095704D+01 Coefficients=  3.2677592815D-01
 S 2 1.00
     Exponent=  6.9390960983D+01 Coefficients=  8.0052094386D-02
     Exponent=  2.0428200596D+01 Coefficients=  7.8268063538D-01
 S 1 1.00
     Exponent=  7.1292587972D+00 Coefficients=  1.0000000000D+00
 S 1 1.00
     Exponent=  3.1324304893D+00 Coefficients=  1.0000000000D+00
 S 1 1.00
     Exponent=  9.8755778723D-01 Coefficients=  1.0000000000D+00
 S 1 1.00
     Exponent=  3.8765721307D-01 Coefficients=  1.0000000000D+00
 S 1 1.00
     Exponent=  1.4909883075D-01 Coefficients=  1.0000000000D+00
 P 5 1.00
     Exponent=  1.5005742670D+02 Coefficients= -8.6216165986D-04
     Exponent=  3.5491599483D+01 Coefficients= -6.8571273236D-03
     Exponent=  1.1247864223D+01 Coefficients= -3.1795688855D-02
     Exponent=  4.0900305195D+00 Coefficients= -1.0537396822D-01
     Exponent=  1.6220573146D+00 Coefficients= -2.4519708041D-01
 P 1 1.00
     Exponent=  6.6442261530D-01 Coefficients=  1.0000000000D+00
 P 1 1.00
     Exponent=  2.7099770070D-01 Coefficients=  1.0000000000D+00
 P 1 1.00
     Exponent=  1.0688749984D-01 Coefficients=  1.0000000000D+00
 D 1 1.00
     Exponent=  2.8370000000D+00 Coefficients=  1.0000000000D+00
 D 1 1.00
     Exponent=  9.6800000000D-01 Coefficients=  1.0000000000D+00
 D 1 1.00
     Exponent=  3.3500000000D-01 Coefficients=  1.0000000000D+00
 F 1 1.00
     Exponent=  2.0270000000D+00 Coefficients=  1.0000000000D+00
 F 1 1.00
     Exponent=  6.8500000000D-01 Coefficients=  1.0000000000D+00
 G 1 1.00
     Exponent=  1.4270000000D+00 Coefficients=  1.0000000000D+00
 ****
 Ernie: Thresh=  0.10000D-02 Tol=  0.10000D-05 Strict=F.
   291 basis functions,   428 primitive gaussians,   356 cartesian basis functions
    12 alpha electrons       12 beta electrons
       nuclear repulsion energy        73.3825490640 Hartrees.
 IExCor=  402 DFT=T Ex+Corr=B3LYP ExCW=0 ScaHFX=  0.200000
 ScaDFX=  0.800000  0.720000  1.000000  0.810000 ScalE2=  1.000000  1.000000
 IRadAn=      5 IRanWt=     -1 IRanGd=            0 ICorTp=0 IEmpDi=  4
 NAtoms=    7 NActive=    7 NUniq=    7 SFac= 1.00D+00 NAtFMM=   60 NAOKFM=F Big=F
 Integral buffers will be    131072 words long.
 Raffenetti 2 integral format.
 Two-electron integral symmetry is turned off.
 Leave Link  301 at Tue Jan  3 09:03:06 2023, MaxMem=   536870912 cpu:               0.2 elap:               0.1
 (Enter /opt/software/gaussian/g16.c01/l302.exe)
 NPDir=0 NMtPBC=     1 NCelOv=     1 NCel=       1 NClECP=     1 NCelD=      1
         NCelK=      1 NCelE2=     1 NClLst=     1 CellRange=     0.0.
 One-electron integrals computed using PRISM.
 NBasis=   291 RedAO= T EigKep=  1.01D-04  NBF=   291
 NBsUse=   291 1.00D-06 EigRej= -1.00D+00 NBFU=   291
 Precomputing XC quadrature grid using
 IXCGrd= 4 IRadAn=           5 IRanWt=          -1 IRanGd=           0 AccXCQ= 0.00D+00.
 Generated NRdTot=       0 NPtTot=           0 NUsed=           0 NTot=          32
 NSgBfM=   356   356   356   356   356 MxSgAt=     7 MxSgA2=     7.
 Leave Link  302 at Tue Jan  3 09:03:06 2023, MaxMem=   536870912 cpu:               0.5 elap:               0.3
 (Enter /opt/software/gaussian/g16.c01/l303.exe)
 DipDrv:  MaxL=1.
 Leave Link  303 at Tue Jan  3 09:03:06 2023, MaxMem=   536870912 cpu:               0.1 elap:               0.1
 (Enter /opt/software/gaussian/g16.c01/l401.exe)
 ExpMin= 7.60D-02 ExpMax= 9.07D+04 ExpMxC= 8.76D+02 IAcc=3 IRadAn=         5 AccDes= 0.00D+00
 Harris functional with IExCor=  402 and IRadAn=       5 diagonalized for initial guess.
 HarFok:  IExCor=  402 AccDes= 0.00D+00 IRadAn=         5 IDoV= 1 UseB2=F ITyADJ=14
 ICtDFT=  3500011 ScaDFX=  1.000000  1.000000  1.000000  1.000000
 FoFCou: FMM=F IPFlag=           0 FMFlag=      100000 FMFlg1=           0
         NFxFlg=           0 DoJE=T BraDBF=F KetDBF=T FulRan=T
         wScrn=  0.000000 ICntrl=       500 IOpCl=  0 I1Cent=   200000004 NGrid=           0
         NMat0=    1 NMatS0=      1 NMatT0=    0 NMatD0=    1 NMtDS0=    0 NMtDT0=    0
 Symmetry not used in FoFCou.
 Harris En= -150.021537273696    
 JPrj=0 DoOrth=F DoCkMO=F.
 Initial guess <Sx>= 0.0000 <Sy>= 0.0000 <Sz>= 0.0000 <S**2>=-0.0000 S=-0.0000
 Leave Link  401 at Tue Jan  3 09:03:08 2023, MaxMem=   536870912 cpu:               3.8 elap:               1.9
 (Enter /opt/software/gaussian/g16.c01/l502.exe)
 Two-electron integral symmetry not used.
 UHF open shell SCF:
 Using DIIS extrapolation, IDIIS=  1040.
 NGot=   536870912 LenX=   536612994 LenY=   536485817
 Requested convergence on RMS density matrix=1.00D-08 within 128 cycles.
 Requested convergence on MAX density matrix=1.00D-06.
 Requested convergence on             energy=1.00D-06.
 No special actions if energy rises.
 Fock matrices will be formed incrementally for  20 cycles.
 Integral accuracy reduced to 1.0D-05 until final iterations.

 Cycle   1  Pass 0  IDiag  1:
 FoFJK:  IHMeth= 1 ICntrl=       0 DoSepK=F KAlg= 0 I1Cent=           0 FoldK=F
 IRaf= 980000000 NMat=       1 IRICut=       1 DoRegI=T DoRafI=F ISym2E= 0 IDoP0=0 IntGTp=1.
 FoFCou: FMM=F IPFlag=           0 FMFlag=      100000 FMFlg1=           0
         NFxFlg=           0 DoJE=F BraDBF=F KetDBF=F FulRan=T
         wScrn=  0.000000 ICntrl=         0 IOpCl=  1 I1Cent=           0 NGrid=           0
         NMat0=    1 NMatS0=      1 NMatT0=    0 NMatD0=    1 NMtDS0=    0 NMtDT0=    0
 Symmetry not used in FoFCou.
 E= -149.905561842875    
 DIIS: error= 2.10D-02 at cycle   1 NSaved=   1.
 NSaved= 1 IEnMin= 1 EnMin= -149.905561842875     IErMin= 1 ErrMin= 2.10D-02
 ErrMax= 2.10D-02  0.00D+00 EMaxC= 1.00D-01 BMatC= 5.11D-01 BMatP= 5.11D-01
 IDIUse=3 WtCom= 7.90D-01 WtEn= 2.10D-01
 Coeff-Com:  0.100D+01
 Coeff-En:   0.100D+01
 Coeff:      0.100D+01
 Gap=     0.130 Goal=   None    Shift=    0.000
 Gap=     0.130 Goal=   None    Shift=    0.000
 GapD=    0.130 DampG=1.000 DampE=0.500 DampFc=0.5000 IDamp=-1.
 Damping current iteration by 5.00D-01
 RMSDP=2.32D-03 MaxDP=7.21D-02              OVMax= 2.21D-01

 Cycle   2  Pass 0  IDiag  1:
 RMSU=  1.16D-03    CP:  9.87D-01
 E= -149.938502887216     Delta-E=       -0.032941044342 Rises=F Damp=T
 DIIS: error= 7.81D-03 at cycle   2 NSaved=   2.
 NSaved= 2 IEnMin= 2 EnMin= -149.938502887216     IErMin= 2 ErrMin= 7.81D-03
 ErrMax= 7.81D-03  0.00D+00 EMaxC= 1.00D-01 BMatC= 6.43D-02 BMatP= 5.11D-01
 IDIUse=3 WtCom= 9.22D-01 WtEn= 7.81D-02
 Coeff-Com:  0.147D+00 0.853D+00
 Coeff-En:   0.293D+00 0.707D+00
 Coeff:      0.158D+00 0.842D+00
 Gap=     0.192 Goal=   None    Shift=    0.000
 Gap=     0.192 Goal=   None    Shift=    0.000
 RMSDP=7.25D-04 MaxDP=2.26D-02 DE=-3.29D-02 OVMax= 1.97D-01

 Cycle   3  Pass 0  IDiag  1:
 RMSU=  4.28D-04    CP:  9.88D-01  4.95D-01
 E= -149.985800839199     Delta-E=       -0.047297951983 Rises=F Damp=F
 DIIS: error= 1.40D-02 at cycle   3 NSaved=   3.
 NSaved= 3 IEnMin= 3 EnMin= -149.985800839199     IErMin= 2 ErrMin= 7.81D-03
 ErrMax= 1.40D-02  0.00D+00 EMaxC= 1.00D-01 BMatC= 8.23D-02 BMatP= 6.43D-02
 IDIUse=2 WtCom= 0.00D+00 WtEn= 1.00D+00
 Coeff-En:   0.000D+00 0.000D+00 0.100D+01
 Coeff:      0.000D+00 0.000D+00 0.100D+01
 Gap=     0.143 Goal=   None    Shift=    0.000
 Gap=     0.143 Goal=   None    Shift=    0.000
 RMSDP=1.15D-03 MaxDP=4.32D-02 DE=-4.73D-02 OVMax= 3.61D-01

 Cycle   4  Pass 0  IDiag  1:
 RMSU=  6.49D-04    CP:  9.83D-01  1.06D+00 -5.83D-01
 E= -149.818866707754     Delta-E=        0.166934131446 Rises=F Damp=F
 DIIS: error= 4.87D-02 at cycle   4 NSaved=   4.
 NSaved= 4 IEnMin= 3 EnMin= -149.985800839199     IErMin= 2 ErrMin= 7.81D-03
 ErrMax= 4.87D-02  0.00D+00 EMaxC= 1.00D-01 BMatC= 7.34D-01 BMatP= 6.43D-02
 IDIUse=2 WtCom= 0.00D+00 WtEn= 1.00D+00
 Coeff-En:   0.000D+00 0.000D+00 0.839D+00 0.161D+00
 Coeff:      0.000D+00 0.000D+00 0.839D+00 0.161D+00
 Gap=     0.159 Goal=   None    Shift=    0.000
 Gap=     0.159 Goal=   None    Shift=    0.000
 RMSDP=6.29D-04 MaxDP=2.13D-02 DE= 1.67D-01 OVMax= 1.86D-01

 Cycle   5  Pass 0  IDiag  1:
 RMSU=  1.10D-04    CP:  9.88D-01  7.29D-01  2.45D-01  4.96D-01
 E= -149.985592595690     Delta-E=       -0.166725887937 Rises=F Damp=F
 DIIS: error= 1.59D-02 at cycle   5 NSaved=   5.
 NSaved= 5 IEnMin= 3 EnMin= -149.985800839199     IErMin= 2 ErrMin= 7.81D-03
 ErrMax= 1.59D-02  0.00D+00 EMaxC= 1.00D-01 BMatC= 8.22D-02 BMatP= 6.43D-02
 IDIUse=2 WtCom= 0.00D+00 WtEn= 1.00D+00
 Coeff-En:   0.000D+00 0.000D+00 0.502D+00 0.000D+00 0.498D+00
 Coeff:      0.000D+00 0.000D+00 0.502D+00 0.000D+00 0.498D+00
 Gap=     0.171 Goal=   None    Shift=    0.000
 Gap=     0.171 Goal=   None    Shift=    0.000
 RMSDP=2.90D-04 MaxDP=1.14D-02 DE=-1.67D-01 OVMax= 9.46D-02

 Cycle   6  Pass 0  IDiag  1:
 RMSU=  2.17D-05    CP:  9.90D-01  5.93D-01  6.43D-01  2.33D-01  7.33D-01
 E= -150.005864430167     Delta-E=       -0.020271834477 Rises=F Damp=F
 DIIS: error= 7.24D-04 at cycle   6 NSaved=   6.
 NSaved= 6 IEnMin= 6 EnMin= -150.005864430167     IErMin= 6 ErrMin= 7.24D-04
 ErrMax= 7.24D-04  0.00D+00 EMaxC= 1.00D-01 BMatC= 3.26D-04 BMatP= 6.43D-02
 IDIUse=3 WtCom= 9.93D-01 WtEn= 7.24D-03
 Coeff-Com:  0.657D-04-0.843D-03 0.173D+00-0.637D-01 0.371D+00 0.520D+00
 Coeff-En:   0.000D+00 0.000D+00 0.000D+00 0.000D+00 0.000D+00 0.100D+01
 Coeff:      0.653D-04-0.836D-03 0.172D+00-0.633D-01 0.368D+00 0.524D+00
 Gap=     0.175 Goal=   None    Shift=    0.000
 Gap=     0.175 Goal=   None    Shift=    0.000
 RMSDP=2.10D-05 MaxDP=8.12D-04 DE=-2.03D-02 OVMax= 5.95D-03

 Cycle   7  Pass 0  IDiag  1:
 RMSU=  7.71D-06    CP:  9.89D-01  6.02D-01  6.27D-01  2.49D-01  7.60D-01
                    CP:  5.06D-01
 E= -150.005921085949     Delta-E=       -0.000056655781 Rises=F Damp=F
 DIIS: error= 3.99D-04 at cycle   7 NSaved=   7.
 NSaved= 7 IEnMin= 7 EnMin= -150.005921085949     IErMin= 7 ErrMin= 3.99D-04
 ErrMax= 3.99D-04  0.00D+00 EMaxC= 1.00D-01 BMatC= 4.79D-05 BMatP= 3.26D-04
 IDIUse=3 WtCom= 9.96D-01 WtEn= 3.99D-03
 Coeff-Com:  0.189D-03-0.234D-02 0.286D-01-0.756D-02 0.425D-01 0.229D+00
 Coeff-Com:  0.709D+00
 Coeff-En:   0.000D+00 0.000D+00 0.000D+00 0.000D+00 0.000D+00 0.172D+00
 Coeff-En:   0.828D+00
 Coeff:      0.188D-03-0.233D-02 0.285D-01-0.753D-02 0.423D-01 0.229D+00
 Coeff:      0.710D+00
 Gap=     0.175 Goal=   None    Shift=    0.000
 Gap=     0.175 Goal=   None    Shift=    0.000
 RMSDP=7.44D-06 MaxDP=2.36D-04 DE=-5.67D-05 OVMax= 2.28D-03

 Initial convergence to 1.0D-05 achieved.  Increase integral accuracy.
 Cycle   8  Pass 1  IDiag  1:
 E= -150.005937569947     Delta-E=       -0.000016483999 Rises=F Damp=F
 DIIS: error= 2.44D-05 at cycle   1 NSaved=   1.
 NSaved= 1 IEnMin= 1 EnMin= -150.005937569947     IErMin= 1 ErrMin= 2.44D-05
 ErrMax= 2.44D-05  0.00D+00 EMaxC= 1.00D-01 BMatC= 3.64D-07 BMatP= 3.64D-07
 IDIUse=1 WtCom= 1.00D+00 WtEn= 0.00D+00
 Coeff-Com:  0.100D+01
 Coeff:      0.100D+01
 Gap=     0.175 Goal=   None    Shift=    0.000
 Gap=     0.175 Goal=   None    Shift=    0.000
 RMSDP=7.44D-06 MaxDP=2.36D-04 DE=-1.65D-05 OVMax= 4.61D-04

 Cycle   9  Pass 1  IDiag  1:
 RMSU=  4.33D-06    CP:  1.00D+00
 E= -150.005937364545     Delta-E=        0.000000205402 Rises=F Damp=F
 DIIS: error= 5.47D-05 at cycle   2 NSaved=   2.
 NSaved= 2 IEnMin= 1 EnMin= -150.005937569947     IErMin= 1 ErrMin= 2.44D-05
 ErrMax= 5.47D-05  0.00D+00 EMaxC= 1.00D-01 BMatC= 1.18D-06 BMatP= 3.64D-07
 IDIUse=1 WtCom= 1.00D+00 WtEn= 0.00D+00
 Coeff-Com:  0.661D+00 0.339D+00
 Coeff:      0.661D+00 0.339D+00
 Gap=     0.175 Goal=   None    Shift=    0.000
 Gap=     0.175 Goal=   None    Shift=    0.000
 RMSDP=1.28D-06 MaxDP=5.10D-05 DE= 2.05D-07 OVMax= 4.17D-04

 Cycle  10  Pass 1  IDiag  1:
 RMSU=  1.25D-06    CP:  1.00D+00  9.42D-01
 E= -150.005937618641     Delta-E=       -0.000000254097 Rises=F Damp=F
 DIIS: error= 1.64D-05 at cycle   3 NSaved=   3.
 NSaved= 3 IEnMin= 3 EnMin= -150.005937618641     IErMin= 3 ErrMin= 1.64D-05
 ErrMax= 1.64D-05  0.00D+00 EMaxC= 1.00D-01 BMatC= 1.17D-07 BMatP= 3.64D-07
 IDIUse=1 WtCom= 1.00D+00 WtEn= 0.00D+00
 Coeff-Com:  0.270D+00 0.234D+00 0.496D+00
 Coeff:      0.270D+00 0.234D+00 0.496D+00
 Gap=     0.175 Goal=   None    Shift=    0.000
 Gap=     0.175 Goal=   None    Shift=    0.000
 RMSDP=4.72D-07 MaxDP=1.57D-05 DE=-2.54D-07 OVMax= 1.28D-04

 Cycle  11  Pass 1  IDiag  1:
 RMSU=  3.09D-07    CP:  1.00D+00  9.74D-01  7.37D-01
 E= -150.005937644604     Delta-E=       -0.000000025963 Rises=F Damp=F
 DIIS: error= 4.45D-06 at cycle   4 NSaved=   4.
 NSaved= 4 IEnMin= 4 EnMin= -150.005937644604     IErMin= 4 ErrMin= 4.45D-06
 ErrMax= 4.45D-06  0.00D+00 EMaxC= 1.00D-01 BMatC= 1.27D-08 BMatP= 1.17D-07
 IDIUse=1 WtCom= 1.00D+00 WtEn= 0.00D+00
 Coeff-Com:  0.736D-01 0.882D-01 0.304D+00 0.534D+00
 Coeff:      0.736D-01 0.882D-01 0.304D+00 0.534D+00
 Gap=     0.175 Goal=   None    Shift=    0.000
 Gap=     0.175 Goal=   None    Shift=    0.000
 RMSDP=1.11D-07 MaxDP=4.41D-06 DE=-2.60D-08 OVMax= 2.24D-05

 Cycle  12  Pass 1  IDiag  1:
 RMSU=  5.77D-08    CP:  1.00D+00  9.79D-01  7.91D-01  7.95D-01
 E= -150.005937647213     Delta-E=       -0.000000002608 Rises=F Damp=F
 DIIS: error= 1.63D-06 at cycle   5 NSaved=   5.
 NSaved= 5 IEnMin= 5 EnMin= -150.005937647213     IErMin= 5 ErrMin= 1.63D-06
 ErrMax= 1.63D-06  0.00D+00 EMaxC= 1.00D-01 BMatC= 8.79D-10 BMatP= 1.27D-08
 IDIUse=1 WtCom= 1.00D+00 WtEn= 0.00D+00
 Coeff-Com:  0.321D-02 0.128D-01 0.102D+00 0.273D+00 0.609D+00
 Coeff:      0.321D-02 0.128D-01 0.102D+00 0.273D+00 0.609D+00
 Gap=     0.175 Goal=   None    Shift=    0.000
 Gap=     0.175 Goal=   None    Shift=    0.000
 RMSDP=3.61D-08 MaxDP=1.30D-06 DE=-2.61D-09 OVMax= 5.26D-06

 Cycle  13  Pass 1  IDiag  1:
 RMSU=  2.68D-08    CP:  1.00D+00  9.83D-01  7.95D-01  7.69D-01  7.68D-01
 E= -150.005937647356     Delta-E=       -0.000000000143 Rises=F Damp=F
 DIIS: error= 4.22D-07 at cycle   6 NSaved=   6.
 NSaved= 6 IEnMin= 6 EnMin= -150.005937647356     IErMin= 6 ErrMin= 4.22D-07
 ErrMax= 4.22D-07  0.00D+00 EMaxC= 1.00D-01 BMatC= 1.02D-10 BMatP= 8.79D-10
 IDIUse=1 WtCom= 1.00D+00 WtEn= 0.00D+00
 Coeff-Com: -0.345D-02-0.999D-03 0.358D-01 0.105D+00 0.331D+00 0.532D+00
 Coeff:     -0.345D-02-0.999D-03 0.358D-01 0.105D+00 0.331D+00 0.532D+00
 Gap=     0.175 Goal=   None    Shift=    0.000
 Gap=     0.175 Goal=   None    Shift=    0.000
 RMSDP=1.04D-08 MaxDP=4.44D-07 DE=-1.43D-10 OVMax= 2.10D-06

 Cycle  14  Pass 1  IDiag  1:
 RMSU=  5.91D-09    CP:  1.00D+00  9.83D-01  7.99D-01  7.84D-01  7.99D-01
                    CP:  7.91D-01
 E= -150.005937647381     Delta-E=       -0.000000000025 Rises=F Damp=F
 DIIS: error= 8.08D-08 at cycle   7 NSaved=   7.
 NSaved= 7 IEnMin= 7 EnMin= -150.005937647381     IErMin= 7 ErrMin= 8.08D-08
 ErrMax= 8.08D-08  0.00D+00 EMaxC= 1.00D-01 BMatC= 2.80D-12 BMatP= 1.02D-10
 IDIUse=1 WtCom= 1.00D+00 WtEn= 0.00D+00
 Coeff-Com: -0.780D-03-0.167D-02 0.178D-02 0.167D-02 0.206D-01 0.770D-01
 Coeff-Com:  0.901D+00
 Coeff:     -0.780D-03-0.167D-02 0.178D-02 0.167D-02 0.206D-01 0.770D-01
 Coeff:      0.901D+00
 Gap=     0.175 Goal=   None    Shift=    0.000
 Gap=     0.175 Goal=   None    Shift=    0.000
 RMSDP=2.29D-09 MaxDP=7.33D-08 DE=-2.46D-11 OVMax= 3.36D-07

 SCF Done:  E(UB3LYP) =  -150.005937647     A.U. after   14 cycles
            NFock= 14  Conv=0.23D-08     -V/T= 2.0049
 <Sx>= 0.0000 <Sy>= 0.0000 <Sz>= 0.0000 <S**2>=-0.0000 S=-0.0000
 <L.S>=  0.00000000000    
 KE= 1.492731786234D+02 PE=-4.962976142675D+02 EE= 1.236359489326D+02
 Annihilation of the first spin contaminant:
 S**2 before annihilation    -0.0000,   after    -0.0000
 Leave Link  502 at Tue Jan  3 09:07:29 2023, MaxMem=   536870912 cpu:             521.0 elap:             260.9
 (Enter /opt/software/gaussian/g16.c01/l508.exe)
 QCSCF skips out because SCF is already converged.
 Leave Link  508 at Tue Jan  3 09:07:29 2023, MaxMem=   536870912 cpu:               0.0 elap:               0.0
 (Enter /opt/software/gaussian/g16.c01/l601.exe)
 Copying SCF densities to generalized density rwf, IOpCl= 1 IROHF=0.

 **********************************************************************

            Population analysis using the SCF Density.

 **********************************************************************

 Alpha  occ. eigenvalues --  -14.44128 -14.30522 -10.20070  -1.04283  -0.81166
 Alpha  occ. eigenvalues --   -0.64831  -0.56952  -0.48805  -0.43416  -0.42269
 Alpha  occ. eigenvalues --   -0.28714  -0.20462
 Alpha virt. eigenvalues --   -0.03001  -0.00968   0.04627   0.05889   0.09059
 Alpha virt. eigenvalues --    0.12262   0.13705   0.16668   0.18819   0.20256
 Alpha virt. eigenvalues --    0.22731   0.25061   0.26836   0.27835   0.31725
 Alpha virt. eigenvalues --    0.32720   0.34113   0.35134   0.38265   0.40057
 Alpha virt. eigenvalues --    0.41706   0.47612   0.48363   0.49882   0.54504
 Alpha virt. eigenvalues --    0.59478   0.62509   0.63936   0.68215   0.70599
 Alpha virt. eigenvalues --    0.71399   0.71726   0.76913   0.77414   0.78967
 Alpha virt. eigenvalues --    0.81103   0.81734   0.85835   0.89863   0.94115
 Alpha virt. eigenvalues --    0.95419   0.97463   0.99900   1.02623   1.04012
 Alpha virt. eigenvalues --    1.06217   1.10739   1.10818   1.16076   1.17887
 Alpha virt. eigenvalues --    1.19416   1.20795   1.24573   1.28031   1.35193
 Alpha virt. eigenvalues --    1.36013   1.41380   1.46089   1.51348   1.56096
 Alpha virt. eigenvalues --    1.67016   1.70508   1.72226   1.73883   1.78483
 Alpha virt. eigenvalues --    1.85072   1.87407   1.90367   1.91404   1.96064
 Alpha virt. eigenvalues --    1.97910   1.98941   2.09046   2.09339   2.13716
 Alpha virt. eigenvalues --    2.15083   2.20055   2.22678   2.24728   2.25015
 Alpha virt. eigenvalues --    2.28408   2.34521   2.36826   2.37673   2.40094
 Alpha virt. eigenvalues --    2.45055   2.46240   2.46990   2.51286   2.52323
 Alpha virt. eigenvalues --    2.55751   2.58141   2.61170   2.64567   2.65414
 Alpha virt. eigenvalues --    2.68433   2.71573   2.71876   2.74121   2.75977
 Alpha virt. eigenvalues --    2.82548   2.86938   2.86954   2.92103   2.95685
 Alpha virt. eigenvalues --    3.00182   3.02462   3.07013   3.13894   3.15808
 Alpha virt. eigenvalues --    3.26466   3.26753   3.27813   3.30409   3.34551
 Alpha virt. eigenvalues --    3.39418   3.45683   3.47306   3.49209   3.52772
 Alpha virt. eigenvalues --    3.54168   3.57753   3.63158   3.71816   3.73789
 Alpha virt. eigenvalues --    3.78791   3.82933   3.89558   4.03049   4.05180
 Alpha virt. eigenvalues --    4.11346   4.18229   4.22899   4.25489   4.34075
 Alpha virt. eigenvalues --    4.40444   4.56157   4.61191   4.83165   4.91506
 Alpha virt. eigenvalues --    4.99900   5.12096   5.21201   5.31382   5.37244
 Alpha virt. eigenvalues --    5.40917   5.41390   5.50622   5.51625   5.55566
 Alpha virt. eigenvalues --    5.70267   5.73986   5.77311   5.79190   5.86402
 Alpha virt. eigenvalues --    5.87782   5.91018   5.97020   5.98263   6.07761
 Alpha virt. eigenvalues --    6.08556   6.09624   6.21806   6.25892   6.31542
 Alpha virt. eigenvalues --    6.33546   6.38048   6.38073   6.50267   6.53196
 Alpha virt. eigenvalues --    6.53543   6.56209   6.65609   6.69920   6.76453
 Alpha virt. eigenvalues --    6.81304   6.81773   6.87641   6.90249   6.98057
 Alpha virt. eigenvalues --    7.03292   7.04812   7.11507   7.17754   7.20722
 Alpha virt. eigenvalues --    7.22909   7.23277   7.31796   7.34298   7.39552
 Alpha virt. eigenvalues --    7.42037   7.45137   7.46209   7.47499   7.54203
 Alpha virt. eigenvalues --    7.59221   7.64922   7.68248   7.72123   7.73786
 Alpha virt. eigenvalues --    7.78623   7.81344   7.86125   7.90109   7.92149
 Alpha virt. eigenvalues --    7.95781   7.96662   8.00462   8.02507   8.05647
 Alpha virt. eigenvalues --    8.05936   8.08265   8.13955   8.20346   8.21604
 Alpha virt. eigenvalues --    8.24434   8.25990   8.32606   8.37533   8.41032
 Alpha virt. eigenvalues --    8.44375   8.49340   8.56710   8.59896   8.61935
 Alpha virt. eigenvalues --    8.62712   8.67500   8.67664   8.81665   8.86052
 Alpha virt. eigenvalues --    8.86898   8.94660   8.96261   8.98368   9.07905
 Alpha virt. eigenvalues --    9.11496   9.13007   9.16603   9.22578   9.27609
 Alpha virt. eigenvalues --    9.31648   9.38305   9.39339   9.49218   9.59619
 Alpha virt. eigenvalues --    9.62823   9.68395   9.73449   9.79220   9.84258
 Alpha virt. eigenvalues --    9.90292   9.95019  10.14678  10.28384  10.39529
 Alpha virt. eigenvalues --   10.60907  10.67025  10.90474  10.93189  11.18977
 Alpha virt. eigenvalues --   11.22688  11.45338  11.53937  11.61659  11.61950
 Alpha virt. eigenvalues --   11.75054  11.86410  12.07668  12.26981  12.95453
 Alpha virt. eigenvalues --   13.15706  14.68388  14.70485  28.69328  37.62993
 Alpha virt. eigenvalues --   38.05981 147.70352 196.90677 197.34208
  Beta  occ. eigenvalues --  -14.44128 -14.30522 -10.20070  -1.04283  -0.81166
  Beta  occ. eigenvalues --   -0.64831  -0.56952  -0.48805  -0.43416  -0.42269
  Beta  occ. eigenvalues --   -0.28714  -0.20462
  Beta virt. eigenvalues --   -0.03001  -0.00968   0.04627   0.05889   0.09059
  Beta virt. eigenvalues --    0.12262   0.13705   0.16668   0.18819   0.20256
  Beta virt. eigenvalues --    0.22731   0.25061   0.26836   0.27835   0.31725
  Beta virt. eigenvalues --    0.32720   0.34113   0.35134   0.38265   0.40057
  Beta virt. eigenvalues --    0.41706   0.47612   0.48363   0.49882   0.54504
  Beta virt. eigenvalues --    0.59478   0.62509   0.63936   0.68215   0.70599
  Beta virt. eigenvalues --    0.71399   0.71726   0.76913   0.77414   0.78967
  Beta virt. eigenvalues --    0.81103   0.81734   0.85835   0.89863   0.94115
  Beta virt. eigenvalues --    0.95419   0.97463   0.99900   1.02623   1.04012
  Beta virt. eigenvalues --    1.06217   1.10739   1.10818   1.16076   1.17887
  Beta virt. eigenvalues --    1.19416   1.20795   1.24573   1.28031   1.35193
  Beta virt. eigenvalues --    1.36013   1.41380   1.46089   1.51348   1.56096
  Beta virt. eigenvalues --    1.67016   1.70508   1.72226   1.73883   1.78483
  Beta virt. eigenvalues --    1.85072   1.87407   1.90367   1.91404   1.96064
  Beta virt. eigenvalues --    1.97910   1.98941   2.09046   2.09339   2.13716
  Beta virt. eigenvalues --    2.15083   2.20055   2.22678   2.24728   2.25015
  Beta virt. eigenvalues --    2.28408   2.34521   2.36826   2.37673   2.40094
  Beta virt. eigenvalues --    2.45055   2.46240   2.46990   2.51286   2.52323
  Beta virt. eigenvalues --    2.55751   2.58141   2.61170   2.64567   2.65414
  Beta virt. eigenvalues --    2.68433   2.71573   2.71876   2.74121   2.75977
  Beta virt. eigenvalues --    2.82548   2.86938   2.86954   2.92103   2.95685
  Beta virt. eigenvalues --    3.00182   3.02462   3.07013   3.13894   3.15808
  Beta virt. eigenvalues --    3.26466   3.26753   3.27813   3.30409   3.34551
  Beta virt. eigenvalues --    3.39418   3.45683   3.47306   3.49209   3.52772
  Beta virt. eigenvalues --    3.54168   3.57753   3.63158   3.71816   3.73789
  Beta virt. eigenvalues --    3.78791   3.82933   3.89558   4.03049   4.05180
  Beta virt. eigenvalues --    4.11346   4.18229   4.22899   4.25489   4.34075
  Beta virt. eigenvalues --    4.40444   4.56157   4.61191   4.83165   4.91506
  Beta virt. eigenvalues --    4.99900   5.12096   5.21201   5.31382   5.37244
  Beta virt. eigenvalues --    5.40917   5.41390   5.50622   5.51625   5.55566
  Beta virt. eigenvalues --    5.70267   5.73986   5.77311   5.79190   5.86402
  Beta virt. eigenvalues --    5.87782   5.91018   5.97020   5.98263   6.07761
  Beta virt. eigenvalues --    6.08556   6.09624   6.21806   6.25892   6.31542
  Beta virt. eigenvalues --    6.33546   6.38048   6.38073   6.50267   6.53196
  Beta virt. eigenvalues --    6.53543   6.56209   6.65609   6.69920   6.76453
  Beta virt. eigenvalues --    6.81304   6.81773   6.87641   6.90249   6.98057
  Beta virt. eigenvalues --    7.03292   7.04812   7.11507   7.17754   7.20722
  Beta virt. eigenvalues --    7.22909   7.23277   7.31796   7.34298   7.39552
  Beta virt. eigenvalues --    7.42037   7.45137   7.46209   7.47499   7.54203
  Beta virt. eigenvalues --    7.59221   7.64922   7.68248   7.72123   7.73786
  Beta virt. eigenvalues --    7.78623   7.81344   7.86125   7.90109   7.92149
  Beta virt. eigenvalues --    7.95781   7.96662   8.00462   8.02507   8.05647
  Beta virt. eigenvalues --    8.05936   8.08265   8.13955   8.20346   8.21604
  Beta virt. eigenvalues --    8.24434   8.25990   8.32606   8.37533   8.41032
  Beta virt. eigenvalues --    8.44375   8.49340   8.56710   8.59896   8.61935
  Beta virt. eigenvalues --    8.62712   8.67500   8.67664   8.81665   8.86052
  Beta virt. eigenvalues --    8.86898   8.94660   8.96261   8.98368   9.07905
  Beta virt. eigenvalues --    9.11496   9.13007   9.16603   9.22578   9.27609
  Beta virt. eigenvalues --    9.31648   9.38305   9.39339   9.49218   9.59619
  Beta virt. eigenvalues --    9.62823   9.68395   9.73449   9.79220   9.84258
  Beta virt. eigenvalues --    9.90292   9.95019  10.14678  10.28384  10.39529
  Beta virt. eigenvalues --   10.60907  10.67025  10.90474  10.93189  11.18977
  Beta virt. eigenvalues --   11.22688  11.45338  11.53937  11.61659  11.61950
  Beta virt. eigenvalues --   11.75054  11.86410  12.07668  12.26981  12.95453
  Beta virt. eigenvalues --   13.15706  14.68388  14.70485  28.69328  37.62993
  Beta virt. eigenvalues --   38.05981 147.70352 196.90677 197.34208
          Condensed to atoms (all electrons):
               1          2          3          4          5          6
     1  C    4.973675   0.467844  -0.157444   0.009056   0.422398   0.435075
     2  N    0.467844   5.841643   0.413618  -0.040262  -0.043626  -0.042052
     3  N   -0.157444   0.413618   6.828546   0.289360   0.007466   0.002697
     4  H    0.009056  -0.040262   0.289360   0.668201  -0.001781  -0.001961
     5  H    0.422398  -0.043626   0.007466  -0.001781   0.607124  -0.039770
     6  H    0.435075  -0.042052   0.002697  -0.001961  -0.039770   0.554528
     7  H   -0.056416   0.373308  -0.047057  -0.033840  -0.007411   0.010632
               7
     1  C   -0.056416
     2  N    0.373308
     3  N   -0.047057
     4  H   -0.033840
     5  H   -0.007411
     6  H    0.010632
     7  H    0.606614
          Atomic-Atomic Spin Densities.
               1          2          3          4          5          6
     1  C    0.000000   0.000000  -0.000000   0.000000  -0.000000  -0.000000
     2  N    0.000000  -0.000000   0.000000  -0.000000   0.000000   0.000000
     3  N   -0.000000   0.000000  -0.000000   0.000000  -0.000000  -0.000000
     4  H    0.000000  -0.000000   0.000000  -0.000000   0.000000  -0.000000
     5  H   -0.000000   0.000000  -0.000000   0.000000  -0.000000  -0.000000
     6  H   -0.000000   0.000000  -0.000000  -0.000000  -0.000000  -0.000000
     7  H   -0.000000   0.000000   0.000000  -0.000000  -0.000000   0.000000
               7
     1  C   -0.000000
     2  N    0.000000
     3  N    0.000000
     4  H   -0.000000
     5  H   -0.000000
     6  H    0.000000
     7  H    0.000000
 Mulliken charges and spin densities:
               1          2
     1  C   -0.094188   0.000000
     2  N    0.029528  -0.000000
     3  N   -0.337187   0.000000
     4  H    0.111227  -0.000000
     5  H    0.055600  -0.000000
     6  H    0.080851  -0.000000
     7  H    0.154169   0.000000
 Sum of Mulliken charges =  -0.00000   0.00000
 Mulliken charges and spin densities with hydrogens summed into heavy atoms:
               1          2
     1  C    0.042263   0.000000
     2  N    0.183697  -0.000000
     3  N   -0.225960   0.000000
 Electronic spatial extent (au):  <R**2>=            598.8425
 Charge=             -0.0000 electrons
 Dipole moment (field-independent basis, Debye):
    X=              0.3026    Y=              0.7979    Z=              2.9680  Tot=              3.0882
 Quadrupole moment (field-independent basis, Debye-Ang):
   XX=            -14.3123   YY=            -21.5208   ZZ=            -22.8805
   XY=              2.3131   XZ=              8.5071   YZ=             -0.4569
 Traceless Quadrupole moment (field-independent basis, Debye-Ang):
   XX=              5.2589   YY=             -1.9496   ZZ=             -3.3093
   XY=              2.3131   XZ=              8.5071   YZ=             -0.4569
 Octapole moment (field-independent basis, Debye-Ang**2):
  XXX=            -92.0339  YYY=             10.9634  ZZZ=             41.6633  XYY=            -45.9469
  XXY=              9.0354  XXZ=             31.8202  XZZ=            -53.3706  YZZ=              5.4402
  YYZ=             12.1140  XYZ=             -2.3579
 Hexadecapole moment (field-independent basis, Debye-Ang**3):
 XXXX=           -491.7410 YYYY=            -31.0975 ZZZZ=           -117.8416 XXXY=             38.7029
 XXXZ=            134.7053 YYYX=             30.2717 YYYZ=            -12.4893 ZZZX=            119.2782
 ZZZY=            -14.2592 XXYY=           -127.0151 XXZZ=           -157.5979 YYZZ=            -24.2540
 XXYZ=             -9.6915 YYXZ=             35.0939 ZZXY=             15.0262
 N-N= 7.338254906404D+01 E-N=-4.962976101890D+02  KE= 1.492731786234D+02
                          Isotropic Fermi Contact Couplings
        Atom                 a.u.       MegaHertz       Gauss      10(-4) cm-1
     1  C(13)              0.00000       0.00000       0.00000       0.00000
     2  N(14)              0.00000       0.00000       0.00000       0.00000
     3  N(14)              0.00000       0.00000       0.00000       0.00000
     4  H(1)               0.00000       0.00000       0.00000       0.00000
     5  H(1)               0.00000       0.00000       0.00000       0.00000
     6  H(1)               0.00000       0.00000       0.00000       0.00000
     7  H(1)              -0.00000      -0.00000      -0.00000      -0.00000
 --------------------------------------------------------
       Center         ----  Spin Dipole Couplings  ----
                      3XX-RR        3YY-RR        3ZZ-RR
 --------------------------------------------------------
     1   Atom        0.000000     -0.000000      0.000000
     2   Atom        0.000000     -0.000000     -0.000000
     3   Atom        0.000000      0.000000     -0.000000
     4   Atom        0.000000     -0.000000     -0.000000
     5   Atom       -0.000000     -0.000000      0.000000
     6   Atom       -0.000000     -0.000000      0.000000
     7   Atom        0.000000      0.000000     -0.000000
 --------------------------------------------------------
                        XY            XZ            YZ
 --------------------------------------------------------
     1   Atom       -0.000000      0.000000      0.000000
     2   Atom        0.000000      0.000000     -0.000000
     3   Atom        0.000000      0.000000     -0.000000
     4   Atom       -0.000000     -0.000000      0.000000
     5   Atom        0.000000      0.000000      0.000000
     6   Atom        0.000000      0.000000      0.000000
     7   Atom       -0.000000     -0.000000     -0.000000
 --------------------------------------------------------


 ---------------------------------------------------------------------------------
              Anisotropic Spin Dipole Couplings in Principal Axis System
 ---------------------------------------------------------------------------------

       Atom             a.u.   MegaHertz   Gauss  10(-4) cm-1        Axes

              Baa    -0.0000    -0.000    -0.000    -0.000  0.0293  0.9626 -0.2692
     1 C(13)  Bbb     0.0000     0.000     0.000     0.000 -0.3436  0.2626  0.9016
              Bcc     0.0000     0.000     0.000     0.000  0.9386  0.0661  0.3385
 
              Baa    -0.0000    -0.000    -0.000    -0.000 -0.2786  0.7359  0.6172
     2 N(14)  Bbb     0.0000     0.000     0.000     0.000  0.3875  0.6741 -0.6288
              Bcc     0.0000     0.000     0.000     0.000  0.8788 -0.0639  0.4730
 
              Baa    -0.0000    -0.000    -0.000    -0.000 -0.5116  0.4536  0.7298
     3 N(14)  Bbb     0.0000     0.000     0.000     0.000  0.1312  0.8806 -0.4553
              Bcc     0.0000     0.000     0.000     0.000  0.8491  0.1372  0.5100
 
              Baa    -0.0000    -0.000    -0.000    -0.000  0.4174  0.1490  0.8964
     4 H(1)   Bbb    -0.0000    -0.000    -0.000    -0.000  0.0855  0.9756 -0.2020
              Bcc     0.0000     0.000     0.000     0.000  0.9047 -0.1609 -0.3945
 
              Baa    -0.0000    -0.000    -0.000    -0.000  0.9925 -0.1217 -0.0105
     5 H(1)   Bbb    -0.0000    -0.000    -0.000    -0.000  0.1171  0.9728 -0.1997
              Bcc     0.0000     0.000     0.000     0.000  0.0345  0.1970  0.9798
 
              Baa    -0.0000    -0.000    -0.000    -0.000 -0.0192  0.9710 -0.2381
     6 H(1)   Bbb    -0.0000    -0.000    -0.000    -0.000  0.9197 -0.0762 -0.3851
              Bcc     0.0000     0.000     0.000     0.000  0.3921  0.2264  0.8916
 
              Baa    -0.0000    -0.000    -0.000    -0.000  0.4378  0.2450  0.8650
     7 H(1)   Bbb     0.0000     0.000     0.000     0.000 -0.1696  0.9674 -0.1881
              Bcc     0.0000     0.000     0.000     0.000  0.8829  0.0644 -0.4651
 

 ---------------------------------------------------------------------------------

 No NMR shielding tensors so no spin-rotation constants.
 Leave Link  601 at Tue Jan  3 09:07:29 2023, MaxMem=   536870912 cpu:               0.8 elap:               0.4
 (Enter /opt/software/gaussian/g16.c01/l801.exe)
 DoSCS=F DFT=T ScalE2(SS,OS)=  1.000000  1.000000
 Range of M.O.s used for correlation:     1   291
 NBasis=   291 NAE=    12 NBE=    12 NFC=     0 NFV=     0
 NROrb=    291 NOA=    12 NOB=    12 NVA=   279 NVB=   279

 **** Warning!!: The largest alpha MO coefficient is  0.19189006D+02


 **** Warning!!: The largest beta MO coefficient is  0.19189006D+02

 Leave Link  801 at Tue Jan  3 09:07:30 2023, MaxMem=   536870912 cpu:               0.1 elap:               0.0
 (Enter /opt/software/gaussian/g16.c01/l914.exe)
 UHF ground state
 Doing stability rather than CIS.
 Two-electron integral symmetry not used.
 MDV=   536870912 DFT=T DoStab=T Mixed=T DoRPA=F DoScal=F NonHer=F
 Making orbital integer symmetry assigments:
    12 initial guesses have been made.
 Convergence on wavefunction:    0.001000000000000
 Davidson Disk Diagonalization:  ConvIn= 1.00D-03 SkipCon=T Conv= 1.00D-03.
 Max sub-space:  2000 roots to seek:    12 dimension of matrix:         6696
 Iteration     1 Dimension    12 NMult     0 NNew     12
 CISAX will form    12 AO SS matrices at one time.
 NMat=    12 NSing=    12 JSym2X= 0.
 FoFJK:  IHMeth= 1 ICntrl=       0 DoSepK=F KAlg= 0 I1Cent=           0 FoldK=F
 IRaf= 980000000 NMat=      12 IRICut=      30 DoRegI=T DoRafI=T ISym2E= 0 IDoP0=3 IntGTp=3.
 FoFCou: FMM=F IPFlag=           0 FMFlag=      100000 FMFlg1=           0
         NFxFlg=           0 DoJE=F BraDBF=F KetDBF=F FulRan=T
         wScrn=  0.000000 ICntrl=         0 IOpCl=  1 I1Cent=           0 NGrid=           0
         NMat0=   12 NMatS0=     12 NMatT0=    0 NMatD0=   12 NMtDS0=    0 NMtDT0=    0
 Symmetry not used in FoFCou.
 Raff kept on since  97.99% of shell-pairs survive, threshold=   0.20 IRatSp=98.
 Excitation Energies [eV] at current iteration:
 Root      1 :     1.319065771483884
 Root      2 :     4.084857949874568
 Root      3 :     4.215470969468610
 Root      4 :     4.764969333359703
 Root      5 :     5.637754468580005
 Root      6 :     5.885293235447325
 Root      7 :     5.934954268099056
 Root      8 :     6.022879766844285
 Root      9 :     6.161856905388934
 Root     10 :     6.338587289049723
 Root     11 :     6.680694379614989
 Root     12 :    12.414228088757000
 Iteration     2 Dimension    24 NMult    12 NNew     12
 CISAX will form    12 AO SS matrices at one time.
 NMat=    12 NSing=    12 JSym2X= 0.
 Root      1 not converged, maximum delta is    0.117892185089131
 Excitation Energies [eV] at current iteration:
 Root      1 :     0.855199165491164   Change is   -0.463866605992721
 Root      2 :     3.996774894231319   Change is   -0.088083055643249
 Root      3 :     4.195437016965719   Change is   -0.020033952502891
 Root      4 :     4.528811125017631   Change is   -0.236158208342072
 Root      5 :     5.502570969575777   Change is   -0.135183499004229
 Root      6 :     5.792663148658723   Change is   -0.142291119440334
 Root      7 :     5.798990203978238   Change is   -0.086303031469087
 Root      8 :     5.884492877849741   Change is   -0.277364027539192
 Root      9 :     5.887290126884179   Change is   -0.135589639960106
 Root     10 :     6.207433101564725   Change is   -0.131154187484999
 Root     11 :     6.437700417788262   Change is   -0.242993961826727
 Root     12 :     8.819271961928875   Change is   -3.594956126828124
 Iteration     3 Dimension    27 NMult    24 NNew      3
 CISAX will form     3 AO SS matrices at one time.
 NMat=     3 NSing=     3 JSym2X= 0.
 Root      1 not converged, maximum delta is    0.005065342847805
 Excitation Energies [eV] at current iteration:
 Root      1 :     0.848472247079966   Change is   -0.006726918411197
 Root      2 :     3.995396677975299   Change is   -0.001378216256021
 Root      3 :     4.195123134152226   Change is   -0.000313882813493
 Iteration     4 Dimension    30 NMult    27 NNew      3
 CISAX will form     3 AO SS matrices at one time.
 NMat=     3 NSing=     3 JSym2X= 0.
 Root      1 not converged, maximum delta is    0.001931265184019
 Excitation Energies [eV] at current iteration:
 Root      1 :     0.848239809645828   Change is   -0.000232437434139
 Root      2 :     3.995355843191618   Change is   -0.000040834783681
 Root      3 :     4.195110613675434   Change is   -0.000012520476793
 Iteration     5 Dimension    33 NMult    30 NNew      3
 CISAX will form     3 AO SS matrices at one time.
 NMat=     3 NSing=     3 JSym2X= 0.
 Root      1 has converged.
 Excitation Energies [eV] at current iteration:
 Root      1 :     0.848231877810336   Change is   -0.000007931835491
 Root      2 :     3.995354429491398   Change is   -0.000001413700220
 Root      3 :     4.195110027951047   Change is   -0.000000585724386
 Convergence achieved on expansion vectors.
 ***********************************************************************
 Stability analysis using <AA,BB:AA,BB> singles matrix:
 ***********************************************************************
 1PDM for each excited state written to RWF  633
 Ground to excited state transition densities written to RWF  633

 Eigenvectors of the stability matrix:
 
 Excited state symmetry could not be determined.
 Eigenvector   1:  3.000-?Sym  Eigenvalue= 0.0311719  <S**2>=2.000
     12A -> 13A        0.68978
     12A -> 19A       -0.11961
     12B -> 13B       -0.68978
     12B -> 19B        0.11961
 The wavefunction is stable under the perturbations considered.
 Leave Link  914 at Tue Jan  3 09:18:05 2023, MaxMem=   536870912 cpu:            1268.8 elap:             635.2
 (Enter /opt/software/gaussian/g16.c01/l508.exe)
 The wavefunction is already stable.
 Leave Link  508 at Tue Jan  3 09:18:05 2023, MaxMem=   536870912 cpu:               0.0 elap:               0.0
 (Enter /opt/software/gaussian/g16.c01/l601.exe)
 Copying SCF densities to generalized density rwf, IOpCl= 1 IROHF=0.

 **********************************************************************

            Population analysis using the SCF Density.

 **********************************************************************

 Alpha  occ. eigenvalues --  -14.44128 -14.30522 -10.20070  -1.04283  -0.81166
 Alpha  occ. eigenvalues --   -0.64831  -0.56952  -0.48805  -0.43416  -0.42269
 Alpha  occ. eigenvalues --   -0.28714  -0.20462
 Alpha virt. eigenvalues --   -0.03001  -0.00968   0.04627   0.05889   0.09059
 Alpha virt. eigenvalues --    0.12262   0.13705   0.16668   0.18819   0.20256
 Alpha virt. eigenvalues --    0.22731   0.25061   0.26836   0.27835   0.31725
 Alpha virt. eigenvalues --    0.32720   0.34113   0.35134   0.38265   0.40057
 Alpha virt. eigenvalues --    0.41706   0.47612   0.48363   0.49882   0.54504
 Alpha virt. eigenvalues --    0.59478   0.62509   0.63936   0.68215   0.70599
 Alpha virt. eigenvalues --    0.71399   0.71726   0.76913   0.77414   0.78967
 Alpha virt. eigenvalues --    0.81103   0.81734   0.85835   0.89863   0.94115
 Alpha virt. eigenvalues --    0.95419   0.97463   0.99900   1.02623   1.04012
 Alpha virt. eigenvalues --    1.06217   1.10739   1.10818   1.16076   1.17887
 Alpha virt. eigenvalues --    1.19416   1.20795   1.24573   1.28031   1.35193
 Alpha virt. eigenvalues --    1.36013   1.41380   1.46089   1.51348   1.56096
 Alpha virt. eigenvalues --    1.67016   1.70508   1.72226   1.73883   1.78483
 Alpha virt. eigenvalues --    1.85072   1.87407   1.90367   1.91404   1.96064
 Alpha virt. eigenvalues --    1.97910   1.98941   2.09046   2.09339   2.13716
 Alpha virt. eigenvalues --    2.15083   2.20055   2.22678   2.24728   2.25015
 Alpha virt. eigenvalues --    2.28408   2.34521   2.36826   2.37673   2.40094
 Alpha virt. eigenvalues --    2.45055   2.46240   2.46990   2.51286   2.52323
 Alpha virt. eigenvalues --    2.55751   2.58141   2.61170   2.64567   2.65414
 Alpha virt. eigenvalues --    2.68433   2.71573   2.71876   2.74121   2.75977
 Alpha virt. eigenvalues --    2.82548   2.86938   2.86954   2.92103   2.95685
 Alpha virt. eigenvalues --    3.00182   3.02462   3.07013   3.13894   3.15808
 Alpha virt. eigenvalues --    3.26466   3.26753   3.27813   3.30409   3.34551
 Alpha virt. eigenvalues --    3.39418   3.45683   3.47306   3.49209   3.52772
 Alpha virt. eigenvalues --    3.54168   3.57753   3.63158   3.71816   3.73789
 Alpha virt. eigenvalues --    3.78791   3.82933   3.89558   4.03049   4.05180
 Alpha virt. eigenvalues --    4.11346   4.18229   4.22899   4.25489   4.34075
 Alpha virt. eigenvalues --    4.40444   4.56157   4.61191   4.83165   4.91506
 Alpha virt. eigenvalues --    4.99900   5.12096   5.21201   5.31382   5.37244
 Alpha virt. eigenvalues --    5.40917   5.41390   5.50622   5.51625   5.55566
 Alpha virt. eigenvalues --    5.70267   5.73986   5.77311   5.79190   5.86402
 Alpha virt. eigenvalues --    5.87782   5.91018   5.97020   5.98263   6.07761
 Alpha virt. eigenvalues --    6.08556   6.09624   6.21806   6.25892   6.31542
 Alpha virt. eigenvalues --    6.33546   6.38048   6.38073   6.50267   6.53196
 Alpha virt. eigenvalues --    6.53543   6.56209   6.65609   6.69920   6.76453
 Alpha virt. eigenvalues --    6.81304   6.81773   6.87641   6.90249   6.98057
 Alpha virt. eigenvalues --    7.03292   7.04812   7.11507   7.17754   7.20722
 Alpha virt. eigenvalues --    7.22909   7.23277   7.31796   7.34298   7.39552
 Alpha virt. eigenvalues --    7.42037   7.45137   7.46209   7.47499   7.54203
 Alpha virt. eigenvalues --    7.59221   7.64922   7.68248   7.72123   7.73786
 Alpha virt. eigenvalues --    7.78623   7.81344   7.86125   7.90109   7.92149
 Alpha virt. eigenvalues --    7.95781   7.96662   8.00462   8.02507   8.05647
 Alpha virt. eigenvalues --    8.05936   8.08265   8.13955   8.20346   8.21604
 Alpha virt. eigenvalues --    8.24434   8.25990   8.32606   8.37533   8.41032
 Alpha virt. eigenvalues --    8.44375   8.49340   8.56710   8.59896   8.61935
 Alpha virt. eigenvalues --    8.62712   8.67500   8.67664   8.81665   8.86052
 Alpha virt. eigenvalues --    8.86898   8.94660   8.96261   8.98368   9.07905
 Alpha virt. eigenvalues --    9.11496   9.13007   9.16603   9.22578   9.27609
 Alpha virt. eigenvalues --    9.31648   9.38305   9.39339   9.49218   9.59619
 Alpha virt. eigenvalues --    9.62823   9.68395   9.73449   9.79220   9.84258
 Alpha virt. eigenvalues --    9.90292   9.95019  10.14678  10.28384  10.39529
 Alpha virt. eigenvalues --   10.60907  10.67025  10.90474  10.93189  11.18977
 Alpha virt. eigenvalues --   11.22688  11.45338  11.53937  11.61659  11.61950
 Alpha virt. eigenvalues --   11.75054  11.86410  12.07668  12.26981  12.95453
 Alpha virt. eigenvalues --   13.15706  14.68388  14.70485  28.69328  37.62993
 Alpha virt. eigenvalues --   38.05981 147.70352 196.90677 197.34208
  Beta  occ. eigenvalues --  -14.44128 -14.30522 -10.20070  -1.04283  -0.81166
  Beta  occ. eigenvalues --   -0.64831  -0.56952  -0.48805  -0.43416  -0.42269
  Beta  occ. eigenvalues --   -0.28714  -0.20462
  Beta virt. eigenvalues --   -0.03001  -0.00968   0.04627   0.05889   0.09059
  Beta virt. eigenvalues --    0.12262   0.13705   0.16668   0.18819   0.20256
  Beta virt. eigenvalues --    0.22731   0.25061   0.26836   0.27835   0.31725
  Beta virt. eigenvalues --    0.32720   0.34113   0.35134   0.38265   0.40057
  Beta virt. eigenvalues --    0.41706   0.47612   0.48363   0.49882   0.54504
  Beta virt. eigenvalues --    0.59478   0.62509   0.63936   0.68215   0.70599
  Beta virt. eigenvalues --    0.71399   0.71726   0.76913   0.77414   0.78967
  Beta virt. eigenvalues --    0.81103   0.81734   0.85835   0.89863   0.94115
  Beta virt. eigenvalues --    0.95419   0.97463   0.99900   1.02623   1.04012
  Beta virt. eigenvalues --    1.06217   1.10739   1.10818   1.16076   1.17887
  Beta virt. eigenvalues --    1.19416   1.20795   1.24573   1.28031   1.35193
  Beta virt. eigenvalues --    1.36013   1.41380   1.46089   1.51348   1.56096
  Beta virt. eigenvalues --    1.67016   1.70508   1.72226   1.73883   1.78483
  Beta virt. eigenvalues --    1.85072   1.87407   1.90367   1.91404   1.96064
  Beta virt. eigenvalues --    1.97910   1.98941   2.09046   2.09339   2.13716
  Beta virt. eigenvalues --    2.15083   2.20055   2.22678   2.24728   2.25015
  Beta virt. eigenvalues --    2.28408   2.34521   2.36826   2.37673   2.40094
  Beta virt. eigenvalues --    2.45055   2.46240   2.46990   2.51286   2.52323
  Beta virt. eigenvalues --    2.55751   2.58141   2.61170   2.64567   2.65414
  Beta virt. eigenvalues --    2.68433   2.71573   2.71876   2.74121   2.75977
  Beta virt. eigenvalues --    2.82548   2.86938   2.86954   2.92103   2.95685
  Beta virt. eigenvalues --    3.00182   3.02462   3.07013   3.13894   3.15808
  Beta virt. eigenvalues --    3.26466   3.26753   3.27813   3.30409   3.34551
  Beta virt. eigenvalues --    3.39418   3.45683   3.47306   3.49209   3.52772
  Beta virt. eigenvalues --    3.54168   3.57753   3.63158   3.71816   3.73789
  Beta virt. eigenvalues --    3.78791   3.82933   3.89558   4.03049   4.05180
  Beta virt. eigenvalues --    4.11346   4.18229   4.22899   4.25489   4.34075
  Beta virt. eigenvalues --    4.40444   4.56157   4.61191   4.83165   4.91506
  Beta virt. eigenvalues --    4.99900   5.12096   5.21201   5.31382   5.37244
  Beta virt. eigenvalues --    5.40917   5.41390   5.50622   5.51625   5.55566
  Beta virt. eigenvalues --    5.70267   5.73986   5.77311   5.79190   5.86402
  Beta virt. eigenvalues --    5.87782   5.91018   5.97020   5.98263   6.07761
  Beta virt. eigenvalues --    6.08556   6.09624   6.21806   6.25892   6.31542
  Beta virt. eigenvalues --    6.33546   6.38048   6.38073   6.50267   6.53196
  Beta virt. eigenvalues --    6.53543   6.56209   6.65609   6.69920   6.76453
  Beta virt. eigenvalues --    6.81304   6.81773   6.87641   6.90249   6.98057
  Beta virt. eigenvalues --    7.03292   7.04812   7.11507   7.17754   7.20722
  Beta virt. eigenvalues --    7.22909   7.23277   7.31796   7.34298   7.39552
  Beta virt. eigenvalues --    7.42037   7.45137   7.46209   7.47499   7.54203
  Beta virt. eigenvalues --    7.59221   7.64922   7.68248   7.72123   7.73786
  Beta virt. eigenvalues --    7.78623   7.81344   7.86125   7.90109   7.92149
  Beta virt. eigenvalues --    7.95781   7.96662   8.00462   8.02507   8.05647
  Beta virt. eigenvalues --    8.05936   8.08265   8.13955   8.20346   8.21604
  Beta virt. eigenvalues --    8.24434   8.25990   8.32606   8.37533   8.41032
  Beta virt. eigenvalues --    8.44375   8.49340   8.56710   8.59896   8.61935
  Beta virt. eigenvalues --    8.62712   8.67500   8.67664   8.81665   8.86052
  Beta virt. eigenvalues --    8.86898   8.94660   8.96261   8.98368   9.07905
  Beta virt. eigenvalues --    9.11496   9.13007   9.16603   9.22578   9.27609
  Beta virt. eigenvalues --    9.31648   9.38305   9.39339   9.49218   9.59619
  Beta virt. eigenvalues --    9.62823   9.68395   9.73449   9.79220   9.84258
  Beta virt. eigenvalues --    9.90292   9.95019  10.14678  10.28384  10.39529
  Beta virt. eigenvalues --   10.60907  10.67025  10.90474  10.93189  11.18977
  Beta virt. eigenvalues --   11.22688  11.45338  11.53937  11.61659  11.61950
  Beta virt. eigenvalues --   11.75054  11.86410  12.07668  12.26981  12.95453
  Beta virt. eigenvalues --   13.15706  14.68388  14.70485  28.69328  37.62993
  Beta virt. eigenvalues --   38.05981 147.70352 196.90677 197.34208
          Condensed to atoms (all electrons):
               1          2          3          4          5          6
     1  C    4.973675   0.467844  -0.157444   0.009056   0.422398   0.435075
     2  N    0.467844   5.841643   0.413618  -0.040262  -0.043626  -0.042052
     3  N   -0.157444   0.413618   6.828546   0.289360   0.007466   0.002697
     4  H    0.009056  -0.040262   0.289360   0.668201  -0.001781  -0.001961
     5  H    0.422398  -0.043626   0.007466  -0.001781   0.607124  -0.039770
     6  H    0.435075  -0.042052   0.002697  -0.001961  -0.039770   0.554528
     7  H   -0.056416   0.373308  -0.047057  -0.033840  -0.007411   0.010632
               7
     1  C   -0.056416
     2  N    0.373308
     3  N   -0.047057
     4  H   -0.033840
     5  H   -0.007411
     6  H    0.010632
     7  H    0.606614
          Atomic-Atomic Spin Densities.
               1          2          3          4          5          6
     1  C    0.000000   0.000000  -0.000000   0.000000  -0.000000  -0.000000
     2  N    0.000000  -0.000000   0.000000  -0.000000   0.000000   0.000000
     3  N   -0.000000   0.000000  -0.000000   0.000000  -0.000000  -0.000000
     4  H    0.000000  -0.000000   0.000000  -0.000000   0.000000  -0.000000
     5  H   -0.000000   0.000000  -0.000000   0.000000  -0.000000  -0.000000
     6  H   -0.000000   0.000000  -0.000000  -0.000000  -0.000000  -0.000000
     7  H   -0.000000   0.000000   0.000000  -0.000000  -0.000000   0.000000
               7
     1  C   -0.000000
     2  N    0.000000
     3  N    0.000000
     4  H   -0.000000
     5  H   -0.000000
     6  H    0.000000
     7  H    0.000000
 Mulliken charges and spin densities:
               1          2
     1  C   -0.094188   0.000000
     2  N    0.029528  -0.000000
     3  N   -0.337187   0.000000
     4  H    0.111227  -0.000000
     5  H    0.055600  -0.000000
     6  H    0.080851  -0.000000
     7  H    0.154169   0.000000
 Sum of Mulliken charges =  -0.00000   0.00000
 Mulliken charges and spin densities with hydrogens summed into heavy atoms:
               1          2
     1  C    0.042263   0.000000
     2  N    0.183697  -0.000000
     3  N   -0.225960   0.000000
 Electronic spatial extent (au):  <R**2>=            598.8425
 Charge=             -0.0000 electrons
 Dipole moment (field-independent basis, Debye):
    X=              0.3026    Y=              0.7979    Z=              2.9680  Tot=              3.0882
 Quadrupole moment (field-independent basis, Debye-Ang):
   XX=            -14.3123   YY=            -21.5208   ZZ=            -22.8805
   XY=              2.3131   XZ=              8.5071   YZ=             -0.4569
 Traceless Quadrupole moment (field-independent basis, Debye-Ang):
   XX=              5.2589   YY=             -1.9496   ZZ=             -3.3093
   XY=              2.3131   XZ=              8.5071   YZ=             -0.4569
 Octapole moment (field-independent basis, Debye-Ang**2):
  XXX=            -92.0339  YYY=             10.9634  ZZZ=             41.6633  XYY=            -45.9469
  XXY=              9.0354  XXZ=             31.8202  XZZ=            -53.3706  YZZ=              5.4402
  YYZ=             12.1140  XYZ=             -2.3579
 Hexadecapole moment (field-independent basis, Debye-Ang**3):
 XXXX=           -491.7410 YYYY=            -31.0975 ZZZZ=           -117.8416 XXXY=             38.7029
 XXXZ=            134.7053 YYYX=             30.2717 YYYZ=            -12.4893 ZZZX=            119.2782
 ZZZY=            -14.2592 XXYY=           -127.0151 XXZZ=           -157.5979 YYZZ=            -24.2540
 XXYZ=             -9.6915 YYXZ=             35.0939 ZZXY=             15.0262
 N-N= 7.338254906404D+01 E-N=-4.962976101890D+02  KE= 1.492731786234D+02
                          Isotropic Fermi Contact Couplings
        Atom                 a.u.       MegaHertz       Gauss      10(-4) cm-1
     1  C(13)              0.00000       0.00000       0.00000       0.00000
     2  N(14)              0.00000       0.00000       0.00000       0.00000
     3  N(14)              0.00000       0.00000       0.00000       0.00000
     4  H(1)               0.00000       0.00000       0.00000       0.00000
     5  H(1)               0.00000       0.00000       0.00000       0.00000
     6  H(1)               0.00000       0.00000       0.00000       0.00000
     7  H(1)              -0.00000      -0.00000      -0.00000      -0.00000
 --------------------------------------------------------
       Center         ----  Spin Dipole Couplings  ----
                      3XX-RR        3YY-RR        3ZZ-RR
 --------------------------------------------------------
     1   Atom        0.000000     -0.000000      0.000000
     2   Atom        0.000000     -0.000000     -0.000000
     3   Atom        0.000000      0.000000     -0.000000
     4   Atom        0.000000     -0.000000     -0.000000
     5   Atom       -0.000000     -0.000000      0.000000
     6   Atom       -0.000000     -0.000000      0.000000
     7   Atom        0.000000      0.000000     -0.000000
 --------------------------------------------------------
                        XY            XZ            YZ
 --------------------------------------------------------
     1   Atom       -0.000000      0.000000      0.000000
     2   Atom        0.000000      0.000000     -0.000000
     3   Atom        0.000000      0.000000     -0.000000
     4   Atom       -0.000000     -0.000000      0.000000
     5   Atom        0.000000      0.000000      0.000000
     6   Atom        0.000000      0.000000      0.000000
     7   Atom       -0.000000     -0.000000     -0.000000
 --------------------------------------------------------


 ---------------------------------------------------------------------------------
              Anisotropic Spin Dipole Couplings in Principal Axis System
 ---------------------------------------------------------------------------------

       Atom             a.u.   MegaHertz   Gauss  10(-4) cm-1        Axes

              Baa    -0.0000    -0.000    -0.000    -0.000  0.0293  0.9626 -0.2692
     1 C(13)  Bbb     0.0000     0.000     0.000     0.000 -0.3436  0.2626  0.9016
              Bcc     0.0000     0.000     0.000     0.000  0.9386  0.0661  0.3385
 
              Baa    -0.0000    -0.000    -0.000    -0.000 -0.2786  0.7359  0.6172
     2 N(14)  Bbb     0.0000     0.000     0.000     0.000  0.3875  0.6741 -0.6288
              Bcc     0.0000     0.000     0.000     0.000  0.8788 -0.0639  0.4730
 
              Baa    -0.0000    -0.000    -0.000    -0.000 -0.5116  0.4536  0.7298
     3 N(14)  Bbb     0.0000     0.000     0.000     0.000  0.1312  0.8806 -0.4553
              Bcc     0.0000     0.000     0.000     0.000  0.8491  0.1372  0.5100
 
              Baa    -0.0000    -0.000    -0.000    -0.000  0.4174  0.1490  0.8964
     4 H(1)   Bbb    -0.0000    -0.000    -0.000    -0.000  0.0855  0.9756 -0.2020
              Bcc     0.0000     0.000     0.000     0.000  0.9047 -0.1609 -0.3945
 
              Baa    -0.0000    -0.000    -0.000    -0.000  0.9925 -0.1217 -0.0105
     5 H(1)   Bbb    -0.0000    -0.000    -0.000    -0.000  0.1171  0.9728 -0.1997
              Bcc     0.0000     0.000     0.000     0.000  0.0345  0.1970  0.9798
 
              Baa    -0.0000    -0.000    -0.000    -0.000 -0.0192  0.9710 -0.2381
     6 H(1)   Bbb    -0.0000    -0.000    -0.000    -0.000  0.9197 -0.0762 -0.3851
              Bcc     0.0000     0.000     0.000     0.000  0.3921  0.2264  0.8916
 
              Baa    -0.0000    -0.000    -0.000    -0.000  0.4378  0.2450  0.8650
     7 H(1)   Bbb     0.0000     0.000     0.000     0.000 -0.1696  0.9674 -0.1881
              Bcc     0.0000     0.000     0.000     0.000  0.8829  0.0644 -0.4651
 

 ---------------------------------------------------------------------------------

 No NMR shielding tensors so no spin-rotation constants.
 Leave Link  601 at Tue Jan  3 09:18:05 2023, MaxMem=   536870912 cpu:               0.8 elap:               0.4
 (Enter /opt/software/gaussian/g16.c01/l9999.exe)

 Test job not archived.
 1\1\GINC-GRA704\Stability\UB3LYP\Gen\C1H4N2\BHAVUK\03-Jan-2023\0\\#p u
 b3lyp/gen stable=opt scf=(maxcycle=900,verytightlineq,xqc) integral=gr
 id=ultrafine symmetry=None density=current iop(99/18=-1) output=wfn\\0
 001_q000_m01_k00_opt_uwb97xd_def2svpd/0001_q000_m01_k00_force_ub3lyp_d
 ef2qzvp stable-force\\0,1\C,0,1.0726168695,-0.0701991232,-0.153012633\
 N,0,2.3779437514,-0.0897456927,-0.2543854931\N,0,3.0833554789,-0.36846
 97824,-1.3087287982\H,0,4.0640493508,-0.2926697434,-1.0476368317\H,0,0
 .6399628731,0.1851542916,0.8085260928\H,0,0.4830438364,-0.3099796861,-
 1.0337247999\H,0,2.8674978397,0.1458797364,0.6131324666\\Version=ES64L
 -G16RevC.01\HF=-150.0059376\S2=0.\S2-1=0.\S2A=0.\RMSD=2.289e-09\Dipole
 =0.1190371,0.3139285,1.167685\Quadrupole=3.9098729,-1.449491,-2.460381
 9,1.7197094,6.324825,-0.3397256\PG=Unknown\\@

 Writing a WFN file to "0001_q000_m01_k00_force_ub3lyp_def2qzvp.wfn"


 WE DON'T KNOW ONE MILLIONTH OF ONE PERCENT ABOUT
 ANYTHING.
                                     T. A. EDISON.
 Job cpu time:       0 days  0 hours 29 minutes 56.9 seconds.
 Elapsed time:       0 days  0 hours 14 minutes 59.8 seconds.
 File lengths (MBytes):  RWF=    183 Int=      0 D2E=      0 Chk=     11 Scr=      1
 Normal termination of Gaussian 16 at Tue Jan  3 09:18:05 2023.
 Initial command:
 /opt/software/gaussian/g16.c01/l1.exe "/localscratch/bhavuk.2151330.0/Gau-16154.inp" -scrdir="/localscratch/bhavuk.2151330.0/"
 Entering Link 1 = /opt/software/gaussian/g16.c01/l1.exe PID=      5620.
  
 Copyright (c) 1988-2019, Gaussian, Inc.  All Rights Reserved.
  
 This is part of the Gaussian(R) 16 program.  It is based on
 the Gaussian(R) 09 system (copyright 2009, Gaussian, Inc.),
 the Gaussian(R) 03 system (copyright 2003, Gaussian, Inc.),
 the Gaussian(R) 98 system (copyright 1998, Gaussian, Inc.),
 the Gaussian(R) 94 system (copyright 1995, Gaussian, Inc.),
 the Gaussian 92(TM) system (copyright 1992, Gaussian, Inc.),
 the Gaussian 90(TM) system (copyright 1990, Gaussian, Inc.),
 the Gaussian 88(TM) system (copyright 1988, Gaussian, Inc.),
 the Gaussian 86(TM) system (copyright 1986, Carnegie Mellon
 University), and the Gaussian 82(TM) system (copyright 1983,
 Carnegie Mellon University). Gaussian is a federally registered
 trademark of Gaussian, Inc.
  
 This software contains proprietary and confidential information,
 including trade secrets, belonging to Gaussian, Inc.
  
 This software is provided under written license and may be
 used, copied, transmitted, or stored only in accord with that
 written license.
  
 The following legend is applicable only to US Government
 contracts under FAR:
  
                    RESTRICTED RIGHTS LEGEND
  
 Use, reproduction and disclosure by the US Government is
 subject to restrictions as set forth in subparagraphs (a)
 and (c) of the Commercial Computer Software - Restricted
 Rights clause in FAR 52.227-19.
  
 Gaussian, Inc.
 340 Quinnipiac St., Bldg. 40, Wallingford CT 06492
  
  
 ---------------------------------------------------------------
 Warning -- This program may not be used in any manner that
 competes with the business of Gaussian, Inc. or will provide
 assistance to any competitor of Gaussian, Inc.  The licensee
 of this program is prohibited from giving any competitor of
 Gaussian, Inc. access to this program.  By using this program,
 the user acknowledges that Gaussian, Inc. is engaged in the
 business of creating and licensing software in the field of
 computational chemistry and represents and warrants to the
 licensee that it is not a competitor of Gaussian, Inc. and that
 it will not use this program in any manner prohibited above.
 ---------------------------------------------------------------
  

 Cite this work as:
 Gaussian 16, Revision C.01,
 M. J. Frisch, G. W. Trucks, H. B. Schlegel, G. E. Scuseria, 
 M. A. Robb, J. R. Cheeseman, G. Scalmani, V. Barone, 
 G. A. Petersson, H. Nakatsuji, X. Li, M. Caricato, A. V. Marenich, 
 J. Bloino, B. G. Janesko, R. Gomperts, B. Mennucci, H. P. Hratchian, 
 J. V. Ortiz, A. F. Izmaylov, J. L. Sonnenberg, D. Williams-Young, 
 F. Ding, F. Lipparini, F. Egidi, J. Goings, B. Peng, A. Petrone, 
 T. Henderson, D. Ranasinghe, V. G. Zakrzewski, J. Gao, N. Rega, 
 G. Zheng, W. Liang, M. Hada, M. Ehara, K. Toyota, R. Fukuda, 
 J. Hasegawa, M. Ishida, T. Nakajima, Y. Honda, O. Kitao, H. Nakai, 
 T. Vreven, K. Throssell, J. A. Montgomery, Jr., J. E. Peralta, 
 F. Ogliaro, M. J. Bearpark, J. J. Heyd, E. N. Brothers, K. N. Kudin, 
 V. N. Staroverov, T. A. Keith, R. Kobayashi, J. Normand, 
 K. Raghavachari, A. P. Rendell, J. C. Burant, S. S. Iyengar, 
 J. Tomasi, M. Cossi, J. M. Millam, M. Klene, C. Adamo, R. Cammi, 
 J. W. Ochterski, R. L. Martin, K. Morokuma, O. Farkas, 
 J. B. Foresman, and D. J. Fox, Gaussian, Inc., Wallingford CT, 2019.
 
 ******************************************
 Gaussian 16:  ES64L-G16RevC.01  3-Jul-2019
                 3-Jan-2023 
 ******************************************
 %chk=0001_q000_m01_k00_force_ub3lyp_def2qzvp.chk
 %nprocshared=2
 Will use up to    2 processors via shared memory.
 %mem=4GB
 ----------------------------------------------------------------------
 #p ub3lyp/chkbasis force guess=read geom=check scf=(maxcycle=900,veryt
 ightlineq,xqc) integral=grid=ultrafine symmetry=None density=current p
 op=(cm5,hlygat,mbs,npa) output=wfx
 ----------------------------------------------------------------------
 1/10=7,29=2,30=1,38=1/1,3;
 2/12=2,15=3,40=1/2;
 3/5=7,6=2,11=2,14=-4,25=1,30=1,67=1,71=1,74=-5,75=-5,116=2/1,2,3;
 4/5=1/1;
 5/5=2,7=900,8=3,13=1,17=3,38=6/2,8;
 6/7=2,8=2,9=2,10=2,15=8,20=15,22=-1,27=100,28=1,40=-1,79=1/1,2,7;
 7/29=1,30=1/1,2,3,16;
 1/10=7,30=1/3;
 99/6=200/99;
 Leave Link    1 at Tue Jan  3 09:18:06 2023, MaxMem=   536870912 cpu:               0.1 elap:               0.1
 (Enter /opt/software/gaussian/g16.c01/l101.exe)
 ----------------------------------------------------------------------
 0001_q000_m01_k00_opt_uwb97xd_def2svpd/0001_q000_m01_k00_force_ub3lyp_
 def2qzvp stable-force
 ----------------------------------------------------------------------
 Structure from the checkpoint file:  "0001_q000_m01_k00_force_ub3lyp_def2qzvp.chk"
 Charge =  0 Multiplicity = 1
 Z-Matrix found in chk file.
 C,0,1.0726168695,-0.0701991232,-0.153012633
 N,0,2.3779437514,-0.0897456927,-0.2543854931
 N,0,3.0833554789,-0.3684697824,-1.3087287982
 H,0,4.0640493508,-0.2926697434,-1.0476368317
 H,0,0.6399628731,0.1851542916,0.8085260928
 H,0,0.4830438364,-0.3099796861,-1.0337247999
 H,0,2.8674978397,0.1458797364,0.6131324666
 Recover connectivity data from disk.
 ITRead=  0  0  0  0  0  0  0
 MicOpt= -1 -1 -1 -1 -1 -1 -1
 NAtoms=      7 NQM=        7 NQMF=       0 NMMI=      0 NMMIF=      0
                NMic=       0 NMicF=      0.
                    Isotopes and Nuclear Properties:
 (Nuclear quadrupole moments (NQMom) in fm**2, nuclear magnetic moments (NMagM)
  in nuclear magnetons)

  Atom         1           2           3           4           5           6           7
 IAtWgt=          12          14          14           1           1           1           1
 AtmWgt=  12.0000000  14.0030740  14.0030740   1.0078250   1.0078250   1.0078250   1.0078250
 NucSpn=           0           2           2           1           1           1           1
 AtZEff=   3.6000000   4.5500000   4.5500000   1.0000000   1.0000000   1.0000000   1.0000000
 NQMom=    0.0000000   2.0440000   2.0440000   0.0000000   0.0000000   0.0000000   0.0000000
 NMagM=    0.0000000   0.4037610   0.4037610   2.7928460   2.7928460   2.7928460   2.7928460
 AtZNuc=   6.0000000   7.0000000   7.0000000   1.0000000   1.0000000   1.0000000   1.0000000
 Leave Link  101 at Tue Jan  3 09:18:06 2023, MaxMem=   536870912 cpu:               0.2 elap:               0.1
 (Enter /opt/software/gaussian/g16.c01/l103.exe)

 GradGradGradGradGradGradGradGradGradGradGradGradGradGradGradGradGradGrad
 Berny optimization.
 Initialization pass.
 Trust Radius=3.00D-01 FncErr=1.00D-07 GrdErr=1.00D-07 EigMax=2.50D+02 EigMin=1.00D-04
 Number of steps in this run=      2 maximum allowed number of steps=      2.
 GradGradGradGradGradGradGradGradGradGradGradGradGradGradGradGradGradGrad

 Leave Link  103 at Tue Jan  3 09:18:06 2023, MaxMem=   536870912 cpu:               0.1 elap:               0.0
 (Enter /opt/software/gaussian/g16.c01/l202.exe)
                          Input orientation:                          
 ---------------------------------------------------------------------
 Center     Atomic      Atomic             Coordinates (Angstroms)
 Number     Number       Type             X           Y           Z
 ---------------------------------------------------------------------
      1          6           0        1.072617   -0.070199   -0.153013
      2          7           0        2.377944   -0.089746   -0.254385
      3          7           0        3.083355   -0.368470   -1.308729
      4          1           0        4.064049   -0.292670   -1.047637
      5          1           0        0.639963    0.185154    0.808526
      6          1           0        0.483044   -0.309980   -1.033725
      7          1           0        2.867498    0.145880    0.613132
 ---------------------------------------------------------------------
                    Distance matrix (angstroms):
                    1          2          3          4          5
     1  C    0.000000
     2  N    1.309403   0.000000
     3  N    2.338315   1.298820   0.000000
     4  H    3.130258   1.874401   1.017681   0.000000
     5  H    1.084874   2.055706   3.280158   3.924032   0.000000
     6  H    1.086621   2.060708   2.615467   3.581074   1.914071
     7  H    1.963483   1.023606   2.001175   2.093374   2.236433
                    6          7
     6  H    0.000000
     7  H    2.933525   0.000000
 Symmetry turned off by external request.
 Stoichiometry    CH4N2
 Rotational constants (GHZ):          71.2642239          11.2793619           9.7380671
 Leave Link  202 at Tue Jan  3 09:18:06 2023, MaxMem=   536870912 cpu:               0.0 elap:               0.0
 (Enter /opt/software/gaussian/g16.c01/l301.exe)
 Basis read from chk: "0001_q000_m01_k00_force_ub3lyp_def2qzvp.chk" (5D, 7F)
 No pseudopotential information found on chk file.
   291 basis functions,   428 primitive gaussians,   356 cartesian basis functions
    12 alpha electrons       12 beta electrons
       nuclear repulsion energy        73.3825490640 Hartrees.
 IExCor=  402 DFT=T Ex+Corr=B3LYP ExCW=0 ScaHFX=  0.200000
 ScaDFX=  0.800000  0.720000  1.000000  0.810000 ScalE2=  1.000000  1.000000
 IRadAn=      5 IRanWt=     -1 IRanGd=            0 ICorTp=0 IEmpDi=  4
 NAtoms=    7 NActive=    7 NUniq=    7 SFac= 1.00D+00 NAtFMM=   60 NAOKFM=F Big=F
 Integral buffers will be    131072 words long.
 Raffenetti 2 integral format.
 Two-electron integral symmetry is turned off.
 No density basis found on file  20724.
 Leave Link  301 at Tue Jan  3 09:18:06 2023, MaxMem=   536870912 cpu:               0.1 elap:               0.1
 (Enter /opt/software/gaussian/g16.c01/l302.exe)
 NPDir=0 NMtPBC=     1 NCelOv=     1 NCel=       1 NClECP=     1 NCelD=      1
         NCelK=      1 NCelE2=     1 NClLst=     1 CellRange=     0.0.
[...]
   180    H    4  py     Ryd( 3p)     0.00010       3.92717
   181    H    4  py     Ryd( 4p)     0.00000       7.06100
   182    H    4  pz     Ryd( 2p)     0.00008       1.71196
   183    H    4  pz     Ryd( 3p)     0.00007       4.19672
   184    H    4  pz     Ryd( 4p)     0.00000       7.41045
   185    H    4  dxy    Ryd( 3d)     0.00017       3.48555
   186    H    4  dxy    Ryd( 4d)     0.00000       8.38475
   187    H    4  dxz    Ryd( 3d)     0.00005       3.77172
   188    H    4  dxz    Ryd( 4d)     0.00000       8.57079
   189    H    4  dyz    Ryd( 3d)     0.00002       3.00222
   190    H    4  dyz    Ryd( 4d)     0.00000       7.54513
   191    H    4  dx2y2  Ryd( 3d)     0.00002       4.02099
   192    H    4  dx2y2  Ryd( 4d)     0.00001       8.54230
   193    H    4  dz2    Ryd( 3d)     0.00003       3.28349
   194    H    4  dz2    Ryd( 4d)     0.00000       7.95277
   195    H    4  f(0)   Ryd( 4f)     0.00000       6.33252
   196    H    4  f(C1)  Ryd( 4f)     0.00001       6.78801
   197    H    4  f(S1)  Ryd( 4f)     0.00000       6.05636
   198    H    4  f(C2)  Ryd( 4f)     0.00001       6.53013
   199    H    4  f(S2)  Ryd( 4f)     0.00000       6.59284
   200    H    4  f(C3)  Ryd( 4f)     0.00001       6.73460
   201    H    4  f(S3)  Ryd( 4f)     0.00000       6.77585
 
   202    H    5  S      Val( 1S)     0.40161      -0.00012
   203    H    5  S      Ryd( 3S)     0.00014       1.73262
   204    H    5  S      Ryd( 2S)     0.00006       1.10512
   205    H    5  S      Ryd( 4S)     0.00001       4.55641
   206    H    5  px     Ryd( 2p)     0.00003       2.34249
   207    H    5  px     Ryd( 3p)     0.00006       3.59730
   208    H    5  px     Ryd( 4p)     0.00001       7.70960
   209    H    5  py     Ryd( 2p)     0.00038       1.76567
   210    H    5  py     Ryd( 3p)     0.00002       3.19989
   211    H    5  py     Ryd( 4p)     0.00000       7.36692
   212    H    5  pz     Ryd( 2p)     0.00004       3.02160
   213    H    5  pz     Ryd( 3p)     0.00023       4.63148
   214    H    5  pz     Ryd( 4p)     0.00000       8.02736
   215    H    5  dxy    Ryd( 3d)     0.00001       2.96681
   216    H    5  dxy    Ryd( 4d)     0.00000       7.67863
   217    H    5  dxz    Ryd( 3d)     0.00004       3.64296
   218    H    5  dxz    Ryd( 4d)     0.00001       8.28052
   219    H    5  dyz    Ryd( 3d)     0.00012       3.37592
   220    H    5  dyz    Ryd( 4d)     0.00000       8.07154
   221    H    5  dx2y2  Ryd( 3d)     0.00004       3.15592
   222    H    5  dx2y2  Ryd( 4d)     0.00000       7.72066
   223    H    5  dz2    Ryd( 3d)     0.00005       3.77668
   224    H    5  dz2    Ryd( 4d)     0.00000       8.37193
   225    H    5  f(0)   Ryd( 4f)     0.00002       6.76324
   226    H    5  f(C1)  Ryd( 4f)     0.00001       6.68101
   227    H    5  f(S1)  Ryd( 4f)     0.00001       6.65812
   228    H    5  f(C2)  Ryd( 4f)     0.00001       6.50951
   229    H    5  f(S2)  Ryd( 4f)     0.00000       6.47114
   230    H    5  f(C3)  Ryd( 4f)     0.00000       6.14770
   231    H    5  f(S3)  Ryd( 4f)     0.00000       6.12579
 
   232    H    6  S      Val( 1S)     0.39528       0.01614
   233    H    6  S      Ryd( 2S)     0.00061       0.91268
   234    H    6  S      Ryd( 3S)     0.00006       1.26700
   235    H    6  S      Ryd( 4S)     0.00001       5.12442
   236    H    6  px     Ryd( 3p)     0.00010       3.95785
   237    H    6  px     Ryd( 2p)     0.00002       2.77904
   238    H    6  px     Ryd( 4p)     0.00001       7.43579
   239    H    6  py     Ryd( 3p)     0.00002       3.31191
   240    H    6  py     Ryd( 2p)     0.00007       2.04155
   241    H    6  py     Ryd( 4p)     0.00000       6.98613
   242    H    6  pz     Ryd( 3p)     0.00018       4.60139
   243    H    6  pz     Ryd( 2p)     0.00003       3.05253
   244    H    6  pz     Ryd( 4p)     0.00001       7.64082
   245    H    6  dxy    Ryd( 3d)     0.00006       2.99175
   246    H    6  dxy    Ryd( 4d)     0.00000       7.82225
   247    H    6  dxz    Ryd( 3d)     0.00002       3.64352
   248    H    6  dxz    Ryd( 4d)     0.00001       8.32463
   249    H    6  dyz    Ryd( 3d)     0.00011       3.24268
   250    H    6  dyz    Ryd( 4d)     0.00000       8.04719
   251    H    6  dx2y2  Ryd( 3d)     0.00003       3.20002
   252    H    6  dx2y2  Ryd( 4d)     0.00000       7.88550
   253    H    6  dz2    Ryd( 3d)     0.00007       3.57349
   254    H    6  dz2    Ryd( 4d)     0.00000       8.35342
   255    H    6  f(0)   Ryd( 4f)     0.00002       6.75584
   256    H    6  f(C1)  Ryd( 4f)     0.00001       6.63836
   257    H    6  f(S1)  Ryd( 4f)     0.00001       6.59924
   258    H    6  f(C2)  Ryd( 4f)     0.00001       6.46619
   259    H    6  f(S2)  Ryd( 4f)     0.00000       6.43777
   260    H    6  f(C3)  Ryd( 4f)     0.00000       6.27895
   261    H    6  f(S3)  Ryd( 4f)     0.00000       6.24672
 
   262    H    7  S      Val( 1S)     0.30853       0.01580
   263    H    7  S      Ryd( 3S)     0.00034       3.28938
   264    H    7  S      Ryd( 2S)     0.00005       1.28567
   265    H    7  S      Ryd( 4S)     0.00000       3.42742
   266    H    7  px     Ryd( 2p)     0.00034       1.02764
   267    H    7  px     Ryd( 3p)     0.00005       5.18074
   268    H    7  px     Ryd( 4p)     0.00001       7.47239
   269    H    7  py     Ryd( 2p)     0.00023       0.78760
   270    H    7  py     Ryd( 3p)     0.00008       4.62145
   271    H    7  py     Ryd( 4p)     0.00000       6.54159
   272    H    7  pz     Ryd( 2p)     0.00137       1.08293
   273    H    7  pz     Ryd( 3p)     0.00006       6.42144
   274    H    7  pz     Ryd( 4p)     0.00001       7.81482
   275    H    7  dxy    Ryd( 3d)     0.00002       3.96860
   276    H    7  dxy    Ryd( 4d)     0.00000       7.00284
   277    H    7  dxz    Ryd( 3d)     0.00002       4.73120
   278    H    7  dxz    Ryd( 4d)     0.00001       8.00793
   279    H    7  dyz    Ryd( 3d)     0.00002       4.48661
   280    H    7  dyz    Ryd( 4d)     0.00000       7.49448
   281    H    7  dx2y2  Ryd( 3d)     0.00001       4.34387
   282    H    7  dx2y2  Ryd( 4d)     0.00000       6.99178
   283    H    7  dz2    Ryd( 3d)     0.00002       4.94557
   284    H    7  dz2    Ryd( 4d)     0.00001       7.98459
   285    H    7  f(0)   Ryd( 4f)     0.00002       6.89779
   286    H    7  f(C1)  Ryd( 4f)     0.00002       6.92069
   287    H    7  f(S1)  Ryd( 4f)     0.00001       6.72199
   288    H    7  f(C2)  Ryd( 4f)     0.00001       6.52906
   289    H    7  f(S2)  Ryd( 4f)     0.00001       6.52471
   290    H    7  f(C3)  Ryd( 4f)     0.00000       6.21177
   291    H    7  f(S3)  Ryd( 4f)     0.00000       6.15235

 WARNING:  Population inversion found on atom  C    1
           Population inversion found on atom  N    3
           Population inversion found on atom  H    4
           Population inversion found on atom  H    5
           Population inversion found on atom  H    6
           Population inversion found on atom  H    7


 Summary of Natural Population Analysis:                  
                                                          
                                       Natural Population 
                Natural  -----------------------------------------------
    Atom  No    Charge         Core      Valence    Rydberg      Total
 -----------------------------------------------------------------------
      C    1   -0.14444      0.99973     2.12955    0.01516     3.14444
      N    2   -0.10758      0.99977     2.59534    0.01247     3.60758
      N    3   -0.29457      0.99982     2.77530    0.01946     3.79457
      H    4    0.15751      0.00000     0.34031    0.00218     0.34249
      H    5    0.09710      0.00000     0.40161    0.00129     0.40290
      H    6    0.10324      0.00000     0.39528    0.00148     0.39676
      H    7    0.18873      0.00000     0.30853    0.00273     0.31127
 =======================================================================
   * Total *    0.00000      2.99931     8.94592    0.05477    12.00000

                                 Natural Population      
 --------------------------------------------------------
   Core                       2.99931 ( 99.9770% of   3)
   Valence                    8.94592 ( 99.3991% of   9)
   Natural Minimal Basis     11.94523 ( 99.5436% of  12)
   Natural Rydberg Basis      0.05477 (  0.4564% of  12)
 --------------------------------------------------------

    Atom  No          Natural Electron Configuration
 ----------------------------------------------------------------------------
      C    1      [core]2S( 0.52)2p( 1.61)3p( 0.01)
      N    2      [core]2S( 0.61)2p( 1.99)
      N    3      [core]2S( 0.77)2p( 2.01)3p( 0.01)3d( 0.01)
      H    4            1S( 0.34)
      H    5            1S( 0.40)
      H    6            1S( 0.40)
      H    7            1S( 0.31)


 NBO analysis skipped by request.
 Leave Link  607 at Tue Jan  3 09:18:33 2023, MaxMem=   536870912 cpu:               3.8 elap:               1.9
 (Enter /opt/software/gaussian/g16.c01/l701.exe)
 ... and contract with generalized density number  0.
 Compute integral first derivatives.
 Leave Link  701 at Tue Jan  3 09:18:34 2023, MaxMem=   536870912 cpu:               0.4 elap:               0.2
 (Enter /opt/software/gaussian/g16.c01/l702.exe)
 L702 exits ... SP integral derivatives will be done elsewhere.
 Leave Link  702 at Tue Jan  3 09:18:34 2023, MaxMem=   536870912 cpu:               0.1 elap:               0.0
 (Enter /opt/software/gaussian/g16.c01/l703.exe)
 Integral derivatives from FoFJK, PRISM(SPDF).
 Compute integral first derivatives, UseDBF=F ICtDFT=           0.
 Calling FoFJK, ICntrl=      2127 FMM=F ISym2X=0 I1Cent= 0 IOpClX= 1 NMat=1 NMatS=1 NMatT=0.
 FoFJK:  IHMeth= 1 ICntrl=    2127 DoSepK=F KAlg= 0 I1Cent=           0 FoldK=F
 IRaf=         0 NMat=       1 IRICut=       1 DoRegI=T DoRafI=F ISym2E= 0 IDoP0=0 IntGTp=1.
 FoFCou: FMM=F IPFlag=           0 FMFlag=      100000 FMFlg1=         800
         NFxFlg=           0 DoJE=F BraDBF=F KetDBF=F FulRan=T
         wScrn=  0.000000 ICntrl=      2127 IOpCl=  1 I1Cent=           0 NGrid=           0
         NMat0=    1 NMatS0=      1 NMatT0=    0 NMatD0=    1 NMtDS0=    0 NMtDT0=    0
 Symmetry not used in FoFCou.
 Leave Link  703 at Tue Jan  3 09:20:11 2023, MaxMem=   536870912 cpu:             193.4 elap:              96.8
 (Enter /opt/software/gaussian/g16.c01/l716.exe)
 Dipole        = 1.19037197D-01 3.13928219D-01 1.16768386D+00
 -------------------------------------------------------------------
 Center     Atomic                   Forces (Hartrees/Bohr)
 Number     Number              X              Y              Z
 -------------------------------------------------------------------
      1        6          -0.007510379    0.000243710    0.001085961
      2        7          -0.000001176    0.001746724    0.006505066
      3        7           0.005466000   -0.001217212   -0.004656025
      4        1          -0.002370901   -0.000019388   -0.000020232
      5        1           0.002687142   -0.001808440   -0.006807352
      6        1           0.003423006    0.001700338    0.006259163
      7        1          -0.001693691   -0.000645732   -0.002366582
 -------------------------------------------------------------------
 Cartesian Forces:  Max     0.007510379 RMS     0.003659127
 Z-matrix is all fixed cartesians, so copy forces.
 Force constants in Cartesian coordinates: 
                1             2             3             4             5 
      1  0.979681D+00
      2 -0.379301D-03  0.213865D+00
      3 -0.190645D-01  0.142607D+00  0.707620D+00
      4 -0.643805D+00  0.579070D-02  0.334547D-01  0.112567D+01
      5  0.632347D-02 -0.106234D+00 -0.223587D-01 -0.331382D-01  0.255501D+00
      6  0.354270D-01 -0.223469D-01 -0.184344D+00 -0.143773D+00  0.210309D+00
      7  0.271848D-02  0.887848D-02  0.332925D-01 -0.285848D+00  0.632473D-01
      8  0.405863D-03  0.125485D-01  0.280651D-02  0.556667D-01 -0.952295D-01
      9  0.171151D-02  0.262289D-02  0.215325D-01  0.212339D+00 -0.116800D+00
     10  0.000000D+00 -0.399533D-04  0.107186D-04 -0.760156D-02 -0.133499D-02
     11 -0.399096D-04  0.681015D-02 -0.182702D-02  0.704590D-02  0.450257D-02
     12  0.107071D-04 -0.182705D-02  0.490159D-03  0.265068D-01  0.370720D-02
     13 -0.151899D+00  0.232181D-01  0.887550D-01  0.227506D-02  0.740187D-02
     14  0.222321D-01 -0.700228D-01 -0.649731D-01  0.189247D-03  0.144423D-01
     15  0.850866D-01 -0.649992D-01 -0.296927D+00  0.973426D-03 -0.504849D-03
     16 -0.184388D+00 -0.297881D-01 -0.108208D+00 -0.207961D-02 -0.693893D-02
     17 -0.287722D-01 -0.722180D-01 -0.562752D-01  0.243717D-03  0.170004D-01
     18 -0.104411D+00 -0.562483D-01 -0.264302D+00  0.132579D-02  0.166311D-04
     19 -0.230818D-02 -0.767988D-02 -0.282404D-01 -0.188615D+00 -0.355605D-01
     20  0.229955D-03  0.152509D-01  0.203553D-04 -0.357981D-01 -0.899827D-01
     21  0.124008D-02  0.191593D-03  0.159310D-01 -0.130826D+00 -0.743693D-01
                6             7             8             9            10 
      6  0.986309D+00
      7  0.240594D+00  0.668956D+00
      8 -0.116633D+00 -0.324380D-01  0.846813D-01
      9 -0.504269D+00 -0.134507D+00  0.140554D+00  0.574006D+00
     10 -0.473293D-02 -0.410677D+00 -0.278084D-01 -0.950666D-01  0.418278D+00
     11  0.352379D-02 -0.361895D-01 -0.231711D-01 -0.184397D-01  0.291372D-01
     12  0.167545D-01 -0.126306D+00 -0.186231D-01 -0.846654D-01  0.998012D-01
     13  0.278675D-01  0.000000D+00 -0.447309D-04  0.120004D-04  0.000000D+00
     14 -0.347895D-03 -0.447767D-04  0.764067D-02 -0.204983D-02  0.000000D+00
     15  0.126317D-01  0.120092D-04 -0.204924D-02  0.549768D-03  0.000000D+00
     16 -0.254401D-01  0.000000D+00  0.448748D-04 -0.120390D-04  0.000000D+00
     17 -0.139769D-03  0.448434D-04 -0.765204D-02  0.205288D-02  0.000000D+00
     18  0.170683D-01 -0.120329D-04  0.205329D-02 -0.550853D-03  0.000000D+00
     19 -0.129942D+00  0.248506D-01  0.417370D-02  0.155231D-01  0.000000D+00
     20 -0.743652D-01 -0.349835D-02  0.211822D-01 -0.794026D-02  0.462088D-04
     21 -0.344150D+00 -0.130734D-01 -0.810855D-02 -0.660326D-02 -0.123974D-04
               11            12            13            14            15 
     11  0.197348D-01
     12  0.146298D-01  0.679877D-01
     13  0.000000D+00  0.000000D+00  0.120347D+00
     14  0.000000D+00  0.000000D+00 -0.258292D-01  0.469624D-01
     15  0.000000D+00  0.000000D+00 -0.983283D-01  0.699484D-01  0.291298D+00
     16  0.000000D+00  0.000000D+00  0.292766D-01  0.340314D-02  0.122695D-01
     17  0.000000D+00  0.000000D+00 -0.479540D-02  0.941143D-02 -0.465711D-02
     18  0.000000D+00  0.000000D+00 -0.182930D-01 -0.484049D-02 -0.694563D-02
     19  0.463037D-04 -0.124225D-04  0.000000D+00  0.494397D-04 -0.132598D-04
     20 -0.787642D-02  0.211311D-02  0.493749D-04 -0.843392D-02  0.226199D-02
     21  0.211317D-02 -0.566929D-03 -0.132473D-04  0.226283D-02 -0.606894D-03
               16            17            18            19            20 
     16  0.157191D+00
     17  0.333285D-01  0.450118D-01
     18  0.121377D+00  0.612854D-01  0.254122D+00
     19  0.000000D+00 -0.495133D-04  0.132860D-04  0.166072D+00
     20 -0.495337D-04  0.844647D-02 -0.226646D-02  0.390205D-01  0.614135D-01
     21  0.132899D-04 -0.226619D-02  0.608092D-03  0.142672D+00  0.801764D-01
               21 
     21  0.335388D+00
 Leave Link  716 at Tue Jan  3 09:20:11 2023, MaxMem=   536870912 cpu:               0.1 elap:               0.0
 (Enter /opt/software/gaussian/g16.c01/l103.exe)

 GradGradGradGradGradGradGradGradGradGradGradGradGradGradGradGradGradGrad
 Berny optimization.
 Search for a local minimum.
 Step number   1 out of a maximum of    2
 All quantities printed in internal units (Hartrees-Bohrs-Radians)
 Second derivative matrix not updated -- first step.
 ITU=  0
     Eigenvalues ---    0.02409   0.03062   0.03370   0.05977   0.08903
     Eigenvalues ---    0.11483   0.14278   0.19866   0.30111   0.35087
     Eigenvalues ---    0.61127   0.81664   1.00827   1.49337   1.92763
 Angle between quadratic step and forces=  47.81 degrees.
 Linear search not attempted -- first point.
 B after Tr=     0.000588   -0.000407   -0.001508
         Rot=    1.000000   -0.000001    0.000022   -0.000006 Ang=  -0.00 deg.
 Variable       Old X    -DE/DX   Delta X   Delta X   Delta X     New X
                                 (Linear)    (Quad)   (Total)
    X1        2.02695  -0.00751   0.00000  -0.00391  -0.00331   2.02364
    Y1       -0.13266   0.00024   0.00000   0.00051   0.00013  -0.13253
    Z1       -0.28915   0.00109   0.00000   0.00202   0.00060  -0.28855
    X2        4.49366  -0.00000   0.00000  -0.00201  -0.00140   4.49227
    Y2       -0.16959   0.00175   0.00000  -0.00055  -0.00089  -0.17049
    Z2       -0.48072   0.00651   0.00000  -0.00198  -0.00328  -0.48400
    X3        5.82670   0.00547   0.00000   0.00809   0.00880   5.83550
    Y3       -0.69631  -0.00122   0.00000  -0.00142  -0.00175  -0.69805
    Z3       -2.47314  -0.00466   0.00000  -0.00547  -0.00672  -2.47985
    X4        7.67994  -0.00237   0.00000  -0.00198  -0.00129   7.67865
    Y4       -0.55307  -0.00002   0.00000   0.00297   0.00267  -0.55040
    Z4       -1.97975  -0.00002   0.00000   0.01110   0.00993  -1.96982
    X5        1.20935   0.00269   0.00000   0.00722   0.00774   1.21710
    Y5        0.34989  -0.00181   0.00000  -0.00415  -0.00454   0.34535
    Z5        1.52789  -0.00681   0.00000  -0.01573  -0.01718   1.51071
    X6        0.91282   0.00342   0.00000  -0.00239  -0.00170   0.91112
    Y6       -0.58578   0.00170   0.00000   0.00667   0.00628  -0.57950
    Z6       -1.95346   0.00626   0.00000   0.02492   0.02345  -1.93000
    X7        5.41879  -0.00169   0.00000  -0.00937  -0.00883   5.40995
    Y7        0.27567  -0.00065   0.00000  -0.00156  -0.00189   0.27378
    Z7        1.15865  -0.00237   0.00000  -0.00554  -0.00681   1.15185
         Item               Value     Threshold  Converged?
 Maximum Force            0.007510     0.000450     NO 
 RMS     Force            0.003659     0.000300     NO 
 Maximum Displacement     0.023453     0.001800     NO 
 RMS     Displacement     0.008029     0.001200     NO 
 Predicted change in Energy=-2.084105D-04
 GradGradGradGradGradGradGradGradGradGradGradGradGradGradGradGradGradGrad

 Leave Link  103 at Tue Jan  3 09:20:11 2023, MaxMem=   536870912 cpu:               0.1 elap:               0.1
 (Enter /opt/software/gaussian/g16.c01/l9999.exe)
 Unable to Open any file for archive entry.
 1\1\GINC-GRA704\Force\UB3LYP\Gen\C1H4N2\BHAVUK\03-Jan-2023\0\\#p ub3ly
 p/chkbasis force guess=read geom=check scf=(maxcycle=900,verytightline
 q,xqc) integral=grid=ultrafine symmetry=None density=current pop=(cm5,
 hlygat,mbs,npa) output=wfx\\0001_q000_m01_k00_opt_uwb97xd_def2svpd/000
 1_q000_m01_k00_force_ub3lyp_def2qzvp stable-force\\0,1\C,1.0726168695,
 -0.0701991232,-0.153012633\N,2.3779437514,-0.0897456927,-0.2543854931\
 N,3.0833554789,-0.3684697824,-1.3087287982\H,4.0640493508,-0.292669743
 4,-1.0476368317\H,0.6399628731,0.1851542916,0.8085260928\H,0.483043836
 4,-0.3099796861,-1.0337247999\H,2.8674978397,0.1458797364,0.6131324666
 \\Version=ES64L-G16RevC.01\HF=-150.0059376\S2=0.\S2-1=0.\S2A=0.\RMSD=9
 .025e-10\RMSF=3.659e-03\Dipole=0.1190372,0.3139282,1.1676839\Quadrupol
 e=3.9098735,-1.4494928,-2.4603806,1.7197078,6.3248192,-0.3397246\PG=Un
 known\\@
 The archive entry for this job was punched.

 Writing a WFNX file to "0001_q000_m01_k00_force_ub3lyp_def2qzvp.wfx"


 WOE UNTO THEM THAT CALL EVIL GOOD, AND GOOD EVIL      
 Job cpu time:       0 days  0 hours  4 minutes  9.6 seconds.
 Elapsed time:       0 days  0 hours  2 minutes  4.9 seconds.
 File lengths (MBytes):  RWF=     84 Int=      0 D2E=      0 Chk=     11 Scr=      1
 Normal termination of Gaussian 16 at Tue Jan  3 09:20:11 2023.
