 Entering Gaussian System, Link 0=g16
 Input=0001_q000_m01_k00_force_ub3lyp_def2tzvp.com
 Output=0001_q000_m01_k00_force_ub3lyp_def2tzvp.log
 Initial command:
 /opt/software/gaussian/g16.c01/l1.exe "/localscratch/bhavuk.2151335.0/Gau-16648.inp" -scrdir="/localscratch/bhavuk.2151335.0/"
 Entering Link 1 = /opt/software/gaussian/g16.c01/l1.exe PID=     16649.
  
 Copyright (c) 1988-2019, Gaussian, Inc.  All Rights Reserved.
  
 This is part of the Gaussian(R) 16 program.  It is based on
 the Gaussian(R) 09 system (copyright 2009, Gaussian, Inc.),
 the Gaussian(R) 03 system (copyright 2003, Gaussian, Inc.),
 the Gaussian(R) 98 system (copyright 1998, Gaussian, Inc.),
 the Gaussian(R) 94 system (copyright 1995, Gaussian, Inc.),
 the Gaussian 92(TM) system (copyright 1992, Gaussian, Inc.),
 the Gaussian 90(TM) system (copyright 1990, Gaussian, Inc.),
 the Gaussian 88(TM) system (copyright 1988, Gaussian, Inc.),
 the Gaussian 86(TM) system (copyright 1986, Carnegie Mellon
 University), and the Gaussian 82(TM) system (copyright 1983,
 Carnegie Mellon University). Gaussian is a federally registered
 trademark of Gaussian, Inc.
  
 This software contains proprietary and confidential information,
 including trade secrets, belonging to Gaussian, Inc.
  
 This software is provided under written license and may be
 used, copied, transmitted, or stored only in accord with that
 written license.
  
 The following legend is applicable only to US Government
 contracts under FAR:
  
                    RESTRICTED RIGHTS LEGEND
  
 Use, reproduction and disclosure by the US Government is
 subject to restrictions as set forth in subparagraphs (a)
 and (c) of the Commercial Computer Software - Restricted
 Rights clause in FAR 52.227-19.
  
 Gaussian, Inc.
 340 Quinnipiac St., Bldg. 40, Wallingford CT 06492
  
  
 ---------------------------------------------------------------
 Warning -- This program may not be used in any manner that
 competes with the business of Gaussian, Inc. or will provide
 assistance to any competitor of Gaussian, Inc.  The licensee
 of this program is prohibited from giving any competitor of
 Gaussian, Inc. access to this program.  By using this program,
 the user acknowledges that Gaussian, Inc. is engaged in the
 business of creating and licensing software in the field of
 computational chemistry and represents and warrants to the
 licensee that it is not a competitor of Gaussian, Inc. and that
 it will not use this program in any manner prohibited above.
 ---------------------------------------------------------------
  

 Cite this work as:
 Gaussian 16, Revision C.01,
 M. J. Frisch, G. W. Trucks, H. B. Schlegel, G. E. Scuseria, 
 M. A. Robb, J. R. Cheeseman, G. Scalmani, V. Barone, 
 G. A. Petersson, H. Nakatsuji, X. Li, M. Caricato, A. V. Marenich, 
 J. Bloino, B. G. Janesko, R. Gomperts, B. Mennucci, H. P. Hratchian, 
 J. V. Ortiz, A. F. Izmaylov, J. L. Sonnenberg, D. Williams-Young, 
 F. Ding, F. Lipparini, F. Egidi, J. Goings, B. Peng, A. Petrone, 
 T. Henderson, D. Ranasinghe, V. G. Zakrzewski, J. Gao, N. Rega, 
 G. Zheng, W. Liang, M. Hada, M. Ehara, K. Toyota, R. Fukuda, 
 J. Hasegawa, M. Ishida, T. Nakajima, Y. Honda, O. Kitao, H. Nakai, 
 T. Vreven, K. Throssell, J. A. Montgomery, Jr., J. E. Peralta, 
 F. Ogliaro, M. J. Bearpark, J. J. Heyd, E. N. Brothers, K. N. Kudin, 
 V. N. Staroverov, T. A. Keith, R. Kobayashi, J. Normand, 
 K. Raghavachari, A. P. Rendell, J. C. Burant, S. S. Iyengar, 
 J. Tomasi, M. Cossi, J. M. Millam, M. Klene, C. Adamo, R. Cammi, 
 J. W. Ochterski, R. L. Martin, K. Morokuma, O. Farkas, 
 J. B. Foresman, and D. J. Fox, Gaussian, Inc., Wallingford CT, 2019.
 
 ******************************************
 Gaussian 16:  ES64L-G16RevC.01  3-Jul-2019
                 3-Jan-2023 
 ******************************************
 %chk=0001_q000_m01_k00_force_ub3lyp_def2tzvp.chk
 %nprocshared=2
 Will use up to    2 processors via shared memory.
 %mem=4GB
 ----------------------------------------------------------------------
 #p ub3lyp/gen stable=opt scf=(maxcycle=900,verytightlineq,xqc) integra
 l=grid=ultrafine symmetry=None density=current iop(99/18=-1) output=wf
 n
 ----------------------------------------------------------------------
 1/38=1,172=1/1;
 2/12=2,15=3,17=6,18=5,40=1/2;
 3/5=7,11=2,25=1,30=1,74=-5,75=-5,116=2/1,2,3;
 4//1;
 5/5=2,7=900,8=3,13=1,17=3,38=5/2,8;
 6/7=2,8=2,9=2,10=2,22=-1,28=1/1;
 8/6=1,10=90,11=11/1;
 9/8=-3,42=1,46=1/14;
 5/5=2,7=900,8=3,17=43,38=5/8(-2);
 6/7=2,8=2,9=2,10=2,22=-1,28=1/1;
 99/5=1,6=100,9=1,18=-1/99;
 Leave Link    1 at Tue Jan  3 09:03:19 2023, MaxMem=   536870912 cpu:               0.1 elap:               0.1
 (Enter /opt/software/gaussian/g16.c01/l101.exe)
 ----------------------------------------------------------------------
 0001_q000_m01_k00_opt_uwb97xd_def2svpd/0001_q000_m01_k00_force_ub3lyp_
 def2tzvp stable-force
 ----------------------------------------------------------------------
 Symbolic Z-matrix:
 Charge =  0 Multiplicity = 1
 C                     1.07262  -0.0702   -0.15301 
 N                     2.37794  -0.08975  -0.25439 
 N                     3.08336  -0.36847  -1.30873 
 H                     4.06405  -0.29267  -1.04764 
 H                     0.63996   0.18515   0.80853 
 H                     0.48304  -0.30998  -1.03372 
 H                     2.8675    0.14588   0.61313 
 
 ITRead=  0  0  0  0  0  0  0
 MicOpt= -1 -1 -1 -1 -1 -1 -1
 NAtoms=      7 NQM=        7 NQMF=       0 NMMI=      0 NMMIF=      0
                NMic=       0 NMicF=      0.
                    Isotopes and Nuclear Properties:
 (Nuclear quadrupole moments (NQMom) in fm**2, nuclear magnetic moments (NMagM)
  in nuclear magnetons)

  Atom         1           2           3           4           5           6           7
 IAtWgt=          12          14          14           1           1           1           1
 AtmWgt=  12.0000000  14.0030740  14.0030740   1.0078250   1.0078250   1.0078250   1.0078250
 NucSpn=           0           2           2           1           1           1           1
 AtZEff=  -0.0000000  -0.0000000  -0.0000000  -0.0000000  -0.0000000  -0.0000000  -0.0000000
 NQMom=    0.0000000   2.0440000   2.0440000   0.0000000   0.0000000   0.0000000   0.0000000
 NMagM=    0.0000000   0.4037610   0.4037610   2.7928460   2.7928460   2.7928460   2.7928460
 AtZNuc=   6.0000000   7.0000000   7.0000000   1.0000000   1.0000000   1.0000000   1.0000000
 Leave Link  101 at Tue Jan  3 09:03:19 2023, MaxMem=   536870912 cpu:               0.5 elap:               0.3
 (Enter /opt/software/gaussian/g16.c01/l202.exe)
                          Input orientation:                          
 ---------------------------------------------------------------------
 Center     Atomic      Atomic             Coordinates (Angstroms)
 Number     Number       Type             X           Y           Z
 ---------------------------------------------------------------------
      1          6           0        1.072617   -0.070199   -0.153013
      2          7           0        2.377944   -0.089746   -0.254385
      3          7           0        3.083355   -0.368470   -1.308729
      4          1           0        4.064049   -0.292670   -1.047637
      5          1           0        0.639963    0.185154    0.808526
      6          1           0        0.483044   -0.309980   -1.033725
      7          1           0        2.867498    0.145880    0.613132
 ---------------------------------------------------------------------
                    Distance matrix (angstroms):
                    1          2          3          4          5
     1  C    0.000000
     2  N    1.309403   0.000000
     3  N    2.338315   1.298820   0.000000
     4  H    3.130258   1.874401   1.017681   0.000000
     5  H    1.084874   2.055706   3.280158   3.924032   0.000000
     6  H    1.086621   2.060708   2.615467   3.581074   1.914071
     7  H    1.963483   1.023606   2.001175   2.093374   2.236433
                    6          7
     6  H    0.000000
     7  H    2.933525   0.000000
 Symmetry turned off by external request.
 Stoichiometry    CH4N2
 Rotational constants (GHZ):          71.2642239          11.2793619           9.7380671
 Leave Link  202 at Tue Jan  3 09:03:19 2023, MaxMem=   536870912 cpu:               0.0 elap:               0.0
 (Enter /opt/software/gaussian/g16.c01/l301.exe)
 General basis read from cards:  (5D, 7F)
 Centers:       4      5      6      7
 S 3 1.00
     Exponent=  3.4061341000D+01 Coefficients=  6.0251978000D-03
     Exponent=  5.1235746000D+00 Coefficients=  4.5021094000D-02
     Exponent=  1.1646626000D+00 Coefficients=  2.0189726000D-01
 S 1 1.00
     Exponent=  3.2723041000D-01 Coefficients=  1.0000000000D+00
 S 1 1.00
     Exponent=  1.0307241000D-01 Coefficients=  1.0000000000D+00
 P 1 1.00
     Exponent=  8.0000000000D-01 Coefficients=  1.0000000000D+00
 ****
 Centers:       1
 S 6 1.00
     Exponent=  1.3575349682D+04 Coefficients=  2.2245814352D-04
     Exponent=  2.0352333680D+03 Coefficients=  1.7232738252D-03
     Exponent=  4.6322562359D+02 Coefficients=  8.9255715314D-03
     Exponent=  1.3120019598D+02 Coefficients=  3.5727984502D-02
     Exponent=  4.2853015891D+01 Coefficients=  1.1076259931D-01
     Exponent=  1.5584185766D+01 Coefficients=  2.4295627626D-01
 S 2 1.00
     Exponent=  6.2067138508D+00 Coefficients=  4.1440263448D-01
     Exponent=  2.5764896527D+00 Coefficients=  2.3744968655D-01
 S 1 1.00
     Exponent=  5.7696339419D-01 Coefficients=  1.0000000000D+00
 S 1 1.00
     Exponent=  2.2972831358D-01 Coefficients=  1.0000000000D+00
 S 1 1.00
     Exponent=  9.5164440028D-02 Coefficients=  1.0000000000D+00
 P 4 1.00
     Exponent=  3.4697232244D+01 Coefficients=  5.3333657805D-03
     Exponent=  7.9582622826D+00 Coefficients=  3.5864109092D-02
     Exponent=  2.3780826883D+00 Coefficients=  1.4215873329D-01
     Exponent=  8.1433208183D-01 Coefficients=  3.4270471845D-01
 P 1 1.00
     Exponent=  2.8887547253D-01 Coefficients=  4.6445822433D-01
 P 1 1.00
     Exponent=  1.0056823671D-01 Coefficients=  2.4955789874D-01
 D 1 1.00
     Exponent=  1.0970000000D+00 Coefficients=  1.0000000000D+00
 D 1 1.00
     Exponent=  3.1800000000D-01 Coefficients=  1.0000000000D+00
 F 1 1.00
     Exponent=  7.6100000000D-01 Coefficients=  1.0000000000D+00
 ****
 Centers:       2      3
 S 6 1.00
     Exponent=  1.9730800647D+04 Coefficients=  2.1887984991D-04
     Exponent=  2.9578958745D+03 Coefficients=  1.6960708803D-03
     Exponent=  6.7322133595D+02 Coefficients=  8.7954603538D-03
     Exponent=  1.9068249494D+02 Coefficients=  3.5359382605D-02
     Exponent=  6.2295441898D+01 Coefficients=  1.1095789217D-01
     Exponent=  2.2654161182D+01 Coefficients=  2.4982972552D-01
 S 2 1.00
     Exponent=  8.9791477428D+00 Coefficients=  4.0623896148D-01
     Exponent=  3.6863002370D+00 Coefficients=  2.4338217176D-01
 S 1 1.00
     Exponent=  8.4660076805D-01 Coefficients=  1.0000000000D+00
 S 1 1.00
     Exponent=  3.3647133771D-01 Coefficients=  1.0000000000D+00
 S 1 1.00
     Exponent=  1.3647653675D-01 Coefficients=  1.0000000000D+00
 P 4 1.00
     Exponent=  4.9200380510D+01 Coefficients=  5.5552416751D-03
     Exponent=  1.1346790537D+01 Coefficients=  3.8052379723D-02
     Exponent=  3.4273972411D+00 Coefficients=  1.4953671029D-01
     Exponent=  1.1785525134D+00 Coefficients=  3.4949305230D-01
 P 1 1.00
     Exponent=  4.1642204972D-01 Coefficients=  4.5843153697D-01
 P 1 1.00
     Exponent=  1.4260826011D-01 Coefficients=  2.4428771672D-01
 D 1 1.00
     Exponent=  1.6540000000D+00 Coefficients=  1.0000000000D+00
 D 1 1.00
     Exponent=  4.6900000000D-01 Coefficients=  1.0000000000D+00
 F 1 1.00
     Exponent=  1.0930000000D+00 Coefficients=  1.0000000000D+00
 ****
 Ernie: Thresh=  0.10000D-02 Tol=  0.10000D-05 Strict=F.
   117 basis functions,   185 primitive gaussians,   132 cartesian basis functions
    12 alpha electrons       12 beta electrons
       nuclear repulsion energy        73.3825490640 Hartrees.
 IExCor=  402 DFT=T Ex+Corr=B3LYP ExCW=0 ScaHFX=  0.200000
 ScaDFX=  0.800000  0.720000  1.000000  0.810000 ScalE2=  1.000000  1.000000
 IRadAn=      5 IRanWt=     -1 IRanGd=            0 ICorTp=0 IEmpDi=  4
 NAtoms=    7 NActive=    7 NUniq=    7 SFac= 1.00D+00 NAtFMM=   60 NAOKFM=F Big=F
 Integral buffers will be    131072 words long.
 Raffenetti 2 integral format.
 Two-electron integral symmetry is turned off.
 Leave Link  301 at Tue Jan  3 09:03:19 2023, MaxMem=   536870912 cpu:               0.2 elap:               0.1
 (Enter /opt/software/gaussian/g16.c01/l302.exe)
 NPDir=0 NMtPBC=     1 NCelOv=     1 NCel=       1 NClECP=     1 NCelD=      1
         NCelK=      1 NCelE2=     1 NClLst=     1 CellRange=     0.0.
 One-electron integrals computed using PRISM.
 NBasis=   117 RedAO= T EigKep=  5.86D-04  NBF=   117
 NBsUse=   117 1.00D-06 EigRej= -1.00D+00 NBFU=   117
 Precomputing XC quadrature grid using
 IXCGrd= 4 IRadAn=           5 IRanWt=          -1 IRanGd=           0 AccXCQ= 0.00D+00.
 Generated NRdTot=       0 NPtTot=           0 NUsed=           0 NTot=          32
 NSgBfM=   132   132   132   132   132 MxSgAt=     7 MxSgA2=     7.
 Leave Link  302 at Tue Jan  3 09:03:20 2023, MaxMem=   536870912 cpu:               0.4 elap:               0.2
 (Enter /opt/software/gaussian/g16.c01/l303.exe)
 DipDrv:  MaxL=1.
 Leave Link  303 at Tue Jan  3 09:03:20 2023, MaxMem=   536870912 cpu:               0.1 elap:               0.0
 (Enter /opt/software/gaussian/g16.c01/l401.exe)
 ExpMin= 9.52D-02 ExpMax= 1.97D+04 ExpMxC= 6.73D+02 IAcc=3 IRadAn=         5 AccDes= 0.00D+00
 Harris functional with IExCor=  402 and IRadAn=       5 diagonalized for initial guess.
 HarFok:  IExCor=  402 AccDes= 0.00D+00 IRadAn=         5 IDoV= 1 UseB2=F ITyADJ=14
 ICtDFT=  3500011 ScaDFX=  1.000000  1.000000  1.000000  1.000000
 FoFCou: FMM=F IPFlag=           0 FMFlag=      100000 FMFlg1=           0
         NFxFlg=           0 DoJE=T BraDBF=F KetDBF=T FulRan=T
         wScrn=  0.000000 ICntrl=       500 IOpCl=  0 I1Cent=   200000004 NGrid=           0
         NMat0=    1 NMatS0=      1 NMatT0=    0 NMatD0=    1 NMtDS0=    0 NMtDT0=    0
 Symmetry not used in FoFCou.
 Harris En= -150.006128485650    
 JPrj=0 DoOrth=F DoCkMO=F.
 Initial guess <Sx>= 0.0000 <Sy>= 0.0000 <Sz>= 0.0000 <S**2>=-0.0000 S=-0.0000
 Leave Link  401 at Tue Jan  3 09:03:21 2023, MaxMem=   536870912 cpu:               1.5 elap:               0.8
 (Enter /opt/software/gaussian/g16.c01/l502.exe)
 Keep R1 and R2 ints in memory in canonical form, NReq=49665217.
 FoFCou: FMM=F IPFlag=           0 FMFlag=           0 FMFlg1=           0
         NFxFlg=           0 DoJE=F BraDBF=F KetDBF=F FulRan=T
         wScrn=  0.000000 ICntrl=       600 IOpCl=  0 I1Cent=           0 NGrid=           0
         NMat0=    1 NMatS0=   6903 NMatT0=    0 NMatD0=    1 NMtDS0=    0 NMtDT0=    0
 Symmetry not used in FoFCou.
 Two-electron integral symmetry not used.
 UHF open shell SCF:
 Using DIIS extrapolation, IDIIS=  1040.
 NGot=   536870912 LenX=   489175770 LenY=   489157905
 Requested convergence on RMS density matrix=1.00D-08 within 128 cycles.
 Requested convergence on MAX density matrix=1.00D-06.
 Requested convergence on             energy=1.00D-06.
 No special actions if energy rises.
 Integral accuracy reduced to 1.0D-05 until final iterations.

 Cycle   1  Pass 0  IDiag  1:
 E= -149.893288681326    
 DIIS: error= 3.77D-02 at cycle   1 NSaved=   1.
 NSaved= 1 IEnMin= 1 EnMin= -149.893288681326     IErMin= 1 ErrMin= 3.77D-02
 ErrMax= 3.77D-02  0.00D+00 EMaxC= 1.00D-01 BMatC= 4.61D-01 BMatP= 4.61D-01
 IDIUse=3 WtCom= 6.23D-01 WtEn= 3.77D-01
 Coeff-Com:  0.100D+01
 Coeff-En:   0.100D+01
 Coeff:      0.100D+01
 Gap=     0.131 Goal=   None    Shift=    0.000
 Gap=     0.131 Goal=   None    Shift=    0.000
 GapD=    0.131 DampG=1.000 DampE=0.500 DampFc=0.5000 IDamp=-1.
 Damping current iteration by 5.00D-01
 RMSDP=6.13D-03 MaxDP=2.19D-01              OVMax= 2.08D-01

 Cycle   2  Pass 0  IDiag  1:
 E= -149.927406046822     Delta-E=       -0.034117365496 Rises=F Damp=T
 DIIS: error= 7.21D-03 at cycle   2 NSaved=   2.
 NSaved= 2 IEnMin= 2 EnMin= -149.927406046822     IErMin= 2 ErrMin= 7.21D-03
 ErrMax= 7.21D-03  0.00D+00 EMaxC= 1.00D-01 BMatC= 5.03D-02 BMatP= 4.61D-01
 IDIUse=3 WtCom= 9.28D-01 WtEn= 7.21D-02
 Coeff-Com:  0.157D+00 0.843D+00
 Coeff-En:   0.277D+00 0.723D+00
 Coeff:      0.166D+00 0.834D+00
 Gap=     0.199 Goal=   None    Shift=    0.000
 Gap=     0.199 Goal=   None    Shift=    0.000
 RMSDP=1.72D-03 MaxDP=5.70D-02 DE=-3.41D-02 OVMax= 1.89D-01

 Cycle   3  Pass 0  IDiag  1:
 E= -149.973903302690     Delta-E=       -0.046497255869 Rises=F Damp=F
 DIIS: error= 1.40D-02 at cycle   3 NSaved=   3.
 NSaved= 3 IEnMin= 3 EnMin= -149.973903302690     IErMin= 2 ErrMin= 7.21D-03
 ErrMax= 1.40D-02  0.00D+00 EMaxC= 1.00D-01 BMatC= 7.41D-02 BMatP= 5.03D-02
 IDIUse=2 WtCom= 0.00D+00 WtEn= 1.00D+00
 Coeff-En:   0.000D+00 0.000D+00 0.100D+01
 Coeff:      0.000D+00 0.000D+00 0.100D+01
 Gap=     0.147 Goal=   None    Shift=    0.000
 Gap=     0.147 Goal=   None    Shift=    0.000
 RMSDP=3.45D-03 MaxDP=7.95D-02 DE=-4.65D-02 OVMax= 3.48D-01

 Cycle   4  Pass 0  IDiag  1:
 E= -149.821880971924     Delta-E=        0.152022330766 Rises=F Damp=F
 DIIS: error= 5.12D-02 at cycle   4 NSaved=   4.
 NSaved= 4 IEnMin= 3 EnMin= -149.973903302690     IErMin= 2 ErrMin= 7.21D-03
 ErrMax= 5.12D-02  0.00D+00 EMaxC= 1.00D-01 BMatC= 6.67D-01 BMatP= 5.03D-02
 IDIUse=2 WtCom= 0.00D+00 WtEn= 1.00D+00
 Coeff-En:   0.000D+00 0.000D+00 0.838D+00 0.162D+00
 Coeff:      0.000D+00 0.000D+00 0.838D+00 0.162D+00
 Gap=     0.162 Goal=   None    Shift=    0.000
 Gap=     0.162 Goal=   None    Shift=    0.000
 RMSDP=1.86D-03 MaxDP=4.80D-02 DE= 1.52D-01 OVMax= 1.79D-01

 Cycle   5  Pass 0  IDiag  1:
 E= -149.974265074394     Delta-E=       -0.152384102470 Rises=F Damp=F
 DIIS: error= 1.63D-02 at cycle   5 NSaved=   5.
 NSaved= 5 IEnMin= 5 EnMin= -149.974265074394     IErMin= 2 ErrMin= 7.21D-03
 ErrMax= 1.63D-02  0.00D+00 EMaxC= 1.00D-01 BMatC= 7.26D-02 BMatP= 5.03D-02
 IDIUse=2 WtCom= 0.00D+00 WtEn= 1.00D+00
 Coeff-En:   0.000D+00 0.000D+00 0.497D+00 0.000D+00 0.503D+00
 Coeff:      0.000D+00 0.000D+00 0.497D+00 0.000D+00 0.503D+00
 Gap=     0.173 Goal=   None    Shift=    0.000
 Gap=     0.173 Goal=   None    Shift=    0.000
 RMSDP=8.80D-04 MaxDP=1.97D-02 DE=-1.52D-01 OVMax= 9.16D-02

 Cycle   6  Pass 0  IDiag  1:
 E= -149.992433961579     Delta-E=       -0.018168887185 Rises=F Damp=F
 DIIS: error= 9.32D-04 at cycle   6 NSaved=   6.
 NSaved= 6 IEnMin= 6 EnMin= -149.992433961579     IErMin= 6 ErrMin= 9.32D-04
 ErrMax= 9.32D-04  0.00D+00 EMaxC= 1.00D-01 BMatC= 3.71D-04 BMatP= 5.03D-02
 IDIUse=3 WtCom= 9.91D-01 WtEn= 9.32D-03
 Coeff-Com: -0.215D-02 0.106D-01 0.185D+00-0.695D-01 0.403D+00 0.473D+00
 Coeff-En:   0.000D+00 0.000D+00 0.000D+00 0.000D+00 0.000D+00 0.100D+01
 Coeff:     -0.213D-02 0.105D-01 0.184D+00-0.688D-01 0.399D+00 0.478D+00
 Gap=     0.176 Goal=   None    Shift=    0.000
 Gap=     0.176 Goal=   None    Shift=    0.000
 RMSDP=7.72D-05 MaxDP=1.91D-03 DE=-1.82D-02 OVMax= 6.52D-03

 Cycle   7  Pass 0  IDiag  1:
 E= -149.992506326638     Delta-E=       -0.000072365059 Rises=F Damp=F
 DIIS: error= 4.36D-04 at cycle   7 NSaved=   7.
 NSaved= 7 IEnMin= 7 EnMin= -149.992506326638     IErMin= 7 ErrMin= 4.36D-04
 ErrMax= 4.36D-04  0.00D+00 EMaxC= 1.00D-01 BMatC= 4.07D-05 BMatP= 3.71D-04
 IDIUse=3 WtCom= 9.96D-01 WtEn= 4.36D-03
 Coeff-Com: -0.595D-03-0.624D-03 0.319D-01-0.969D-02 0.545D-01 0.219D+00
 Coeff-Com:  0.706D+00
 Coeff-En:   0.000D+00 0.000D+00 0.000D+00 0.000D+00 0.000D+00 0.134D+00
 Coeff-En:   0.866D+00
 Coeff:     -0.592D-03-0.622D-03 0.317D-01-0.964D-02 0.543D-01 0.219D+00
 Coeff:      0.706D+00
 Gap=     0.176 Goal=   None    Shift=    0.000
 Gap=     0.176 Goal=   None    Shift=    0.000
 RMSDP=2.04D-05 MaxDP=3.84D-04 DE=-7.24D-05 OVMax= 2.02D-03

 Cycle   8  Pass 0  IDiag  1:
 E= -149.992516956455     Delta-E=       -0.000010629817 Rises=F Damp=F
 DIIS: error= 3.01D-05 at cycle   8 NSaved=   8.
 NSaved= 8 IEnMin= 8 EnMin= -149.992516956455     IErMin= 8 ErrMin= 3.01D-05
 ErrMax= 3.01D-05  0.00D+00 EMaxC= 1.00D-01 BMatC= 2.91D-07 BMatP= 4.07D-05
 IDIUse=1 WtCom= 1.00D+00 WtEn= 0.00D+00
 Coeff-Com: -0.347D-04-0.141D-03-0.816D-03 0.443D-03-0.548D-02 0.307D-01
 Coeff-Com:  0.165D+00 0.810D+00
 Coeff:     -0.347D-04-0.141D-03-0.816D-03 0.443D-03-0.548D-02 0.307D-01
 Coeff:      0.165D+00 0.810D+00
 Gap=     0.176 Goal=   None    Shift=    0.000
 Gap=     0.176 Goal=   None    Shift=    0.000
 RMSDP=2.32D-06 MaxDP=5.00D-05 DE=-1.06D-05 OVMax= 2.28D-04

 Initial convergence to 1.0D-05 achieved.  Increase integral accuracy.
 Cycle   9  Pass 1  IDiag  1:
 E= -149.992521254814     Delta-E=       -0.000004298359 Rises=F Damp=F
 DIIS: error= 1.06D-05 at cycle   1 NSaved=   1.
 NSaved= 1 IEnMin= 1 EnMin= -149.992521254814     IErMin= 1 ErrMin= 1.06D-05
 ErrMax= 1.06D-05  0.00D+00 EMaxC= 1.00D-01 BMatC= 2.88D-08 BMatP= 2.88D-08
 IDIUse=1 WtCom= 1.00D+00 WtEn= 0.00D+00
 Coeff-Com:  0.100D+01
 Coeff:      0.100D+01
 Gap=     0.176 Goal=   None    Shift=    0.000
 Gap=     0.176 Goal=   None    Shift=    0.000
 RMSDP=2.32D-06 MaxDP=5.00D-05 DE=-4.30D-06 OVMax= 2.05D-04

 Cycle  10  Pass 1  IDiag  1:
 E= -149.992521209835     Delta-E=        0.000000044979 Rises=F Damp=F
 DIIS: error= 2.83D-05 at cycle   2 NSaved=   2.
 NSaved= 2 IEnMin= 1 EnMin= -149.992521254814     IErMin= 1 ErrMin= 1.06D-05
 ErrMax= 2.83D-05  0.00D+00 EMaxC= 1.00D-01 BMatC= 2.07D-07 BMatP= 2.88D-08
 IDIUse=1 WtCom= 1.00D+00 WtEn= 0.00D+00
 Coeff-Com:  0.737D+00 0.263D+00
 Coeff:      0.737D+00 0.263D+00
 Gap=     0.176 Goal=   None    Shift=    0.000
 Gap=     0.176 Goal=   None    Shift=    0.000
 RMSDP=1.54D-06 MaxDP=3.48D-05 DE= 4.50D-08 OVMax= 1.57D-04

 Cycle  11  Pass 1  IDiag  1:
 E= -149.992521263042     Delta-E=       -0.000000053206 Rises=F Damp=F
 DIIS: error= 1.24D-06 at cycle   3 NSaved=   3.
 NSaved= 3 IEnMin= 3 EnMin= -149.992521263042     IErMin= 3 ErrMin= 1.24D-06
 ErrMax= 1.24D-06  0.00D+00 EMaxC= 1.00D-01 BMatC= 9.21D-10 BMatP= 2.88D-08
 IDIUse=1 WtCom= 1.00D+00 WtEn= 0.00D+00
 Coeff-Com:  0.195D+00 0.949D-01 0.710D+00
 Coeff:      0.195D+00 0.949D-01 0.710D+00
 Gap=     0.176 Goal=   None    Shift=    0.000
 Gap=     0.176 Goal=   None    Shift=    0.000
 RMSDP=1.27D-07 MaxDP=2.47D-06 DE=-5.32D-08 OVMax= 4.11D-06

 Cycle  12  Pass 1  IDiag  1:
 E= -149.992521263221     Delta-E=       -0.000000000179 Rises=F Damp=F
 DIIS: error= 5.22D-07 at cycle   4 NSaved=   4.
 NSaved= 4 IEnMin= 4 EnMin= -149.992521263221     IErMin= 4 ErrMin= 5.22D-07
 ErrMax= 5.22D-07  0.00D+00 EMaxC= 1.00D-01 BMatC= 1.20D-10 BMatP= 9.21D-10
 IDIUse=1 WtCom= 1.00D+00 WtEn= 0.00D+00
 Coeff-Com:  0.149D-01 0.230D-01 0.267D+00 0.695D+00
 Coeff:      0.149D-01 0.230D-01 0.267D+00 0.695D+00
 Gap=     0.176 Goal=   None    Shift=    0.000
 Gap=     0.176 Goal=   None    Shift=    0.000
 RMSDP=4.66D-08 MaxDP=9.67D-07 DE=-1.79D-10 OVMax= 2.31D-06

 Cycle  13  Pass 1  IDiag  1:
 E= -149.992521263233     Delta-E=       -0.000000000013 Rises=F Damp=F
 DIIS: error= 3.80D-07 at cycle   5 NSaved=   5.
 NSaved= 5 IEnMin= 5 EnMin= -149.992521263233     IErMin= 5 ErrMin= 3.80D-07
 ErrMax= 3.80D-07  0.00D+00 EMaxC= 1.00D-01 BMatC= 5.12D-11 BMatP= 1.20D-10
 IDIUse=1 WtCom= 1.00D+00 WtEn= 0.00D+00
 Coeff-Com: -0.114D-01 0.684D-02 0.790D-01 0.445D+00 0.481D+00
 Coeff:     -0.114D-01 0.684D-02 0.790D-01 0.445D+00 0.481D+00
 Gap=     0.176 Goal=   None    Shift=    0.000
 Gap=     0.176 Goal=   None    Shift=    0.000
 RMSDP=1.86D-08 MaxDP=4.84D-07 DE=-1.26D-11 OVMax= 1.28D-06

 Cycle  14  Pass 1  IDiag  1:
 E= -149.992521263245     Delta-E=       -0.000000000012 Rises=F Damp=F
 DIIS: error= 4.39D-08 at cycle   6 NSaved=   6.
 NSaved= 6 IEnMin= 6 EnMin= -149.992521263245     IErMin= 6 ErrMin= 4.39D-08
 ErrMax= 4.39D-08  0.00D+00 EMaxC= 1.00D-01 BMatC= 9.46D-13 BMatP= 5.12D-11
 IDIUse=1 WtCom= 1.00D+00 WtEn= 0.00D+00
 Coeff-Com: -0.397D-02 0.254D-02 0.140D-01 0.108D+00 0.145D+00 0.735D+00
 Coeff:     -0.397D-02 0.254D-02 0.140D-01 0.108D+00 0.145D+00 0.735D+00
 Gap=     0.176 Goal=   None    Shift=    0.000
 Gap=     0.176 Goal=   None    Shift=    0.000
 RMSDP=4.29D-09 MaxDP=1.56D-07 DE=-1.18D-11 OVMax= 1.70D-07

 SCF Done:  E(UB3LYP) =  -149.992521263     A.U. after   14 cycles
            NFock= 14  Conv=0.43D-08     -V/T= 2.0048
 <Sx>= 0.0000 <Sy>= 0.0000 <Sz>= 0.0000 <S**2>=-0.0000 S=-0.0000
 <L.S>=  0.00000000000    
 KE= 1.492792194306D+02 PE=-4.963364204843D+02 EE= 1.236821307264D+02
 Annihilation of the first spin contaminant:
 S**2 before annihilation    -0.0000,   after     0.0000
 Leave Link  502 at Tue Jan  3 09:03:31 2023, MaxMem=   536870912 cpu:              20.5 elap:              10.7
 (Enter /opt/software/gaussian/g16.c01/l508.exe)
 QCSCF skips out because SCF is already converged.
 Leave Link  508 at Tue Jan  3 09:03:31 2023, MaxMem=   536870912 cpu:               0.0 elap:               0.0
 (Enter /opt/software/gaussian/g16.c01/l601.exe)
 Copying SCF densities to generalized density rwf, IOpCl= 1 IROHF=0.

 **********************************************************************

            Population analysis using the SCF Density.

 **********************************************************************

 Alpha  occ. eigenvalues --  -14.43707 -14.29983 -10.19608  -1.04107  -0.80995
 Alpha  occ. eigenvalues --   -0.64689  -0.56792  -0.48631  -0.43206  -0.42086
 Alpha  occ. eigenvalues --   -0.28417  -0.20163
 Alpha virt. eigenvalues --   -0.02526   0.00242   0.07530   0.08666   0.11496
 Alpha virt. eigenvalues --    0.15704   0.19794   0.22843   0.26583   0.27555
 Alpha virt. eigenvalues --    0.33998   0.35966   0.37955   0.40775   0.41386
 Alpha virt. eigenvalues --    0.43185   0.45127   0.48211   0.50088   0.52293
 Alpha virt. eigenvalues --    0.56373   0.60180   0.60702   0.71542   0.74689
 Alpha virt. eigenvalues --    0.89553   0.96019   1.00339   1.03721   1.06457
 Alpha virt. eigenvalues --    1.19736   1.24574   1.30975   1.34617   1.43386
 Alpha virt. eigenvalues --    1.45814   1.46664   1.51014   1.56477   1.62740
 Alpha virt. eigenvalues --    1.64368   1.70725   1.76165   1.77152   1.81917
 Alpha virt. eigenvalues --    1.92002   1.95190   2.00687   2.05143   2.07388
 Alpha virt. eigenvalues --    2.09016   2.13318   2.15233   2.28339   2.33201
 Alpha virt. eigenvalues --    2.33280   2.48335   2.56571   2.61785   2.68279
 Alpha virt. eigenvalues --    2.75010   2.78334   2.81484   2.88907   2.93245
 Alpha virt. eigenvalues --    3.03025   3.13476   3.15880   3.20593   3.21468
 Alpha virt. eigenvalues --    3.26624   3.43709   3.49216   3.61191   3.68743
 Alpha virt. eigenvalues --    3.72920   3.73054   3.94364   3.95638   4.08169
 Alpha virt. eigenvalues --    4.15513   4.26327   4.45394   4.51396   4.59803
 Alpha virt. eigenvalues --    4.62323   4.66606   4.69825   4.71950   4.75750
 Alpha virt. eigenvalues --    4.87321   4.94358   5.01976   5.15021   5.15187
 Alpha virt. eigenvalues --    5.23017   5.56067   5.56794   5.71548   5.92763
 Alpha virt. eigenvalues --    6.09722   6.85475  22.36598  31.64924  32.12748
  Beta  occ. eigenvalues --  -14.43707 -14.29983 -10.19608  -1.04107  -0.80995
  Beta  occ. eigenvalues --   -0.64689  -0.56792  -0.48631  -0.43206  -0.42086
  Beta  occ. eigenvalues --   -0.28417  -0.20163
  Beta virt. eigenvalues --   -0.02526   0.00242   0.07530   0.08666   0.11496
  Beta virt. eigenvalues --    0.15704   0.19794   0.22843   0.26583   0.27555
  Beta virt. eigenvalues --    0.33998   0.35966   0.37955   0.40775   0.41386
  Beta virt. eigenvalues --    0.43185   0.45127   0.48211   0.50088   0.52293
  Beta virt. eigenvalues --    0.56373   0.60180   0.60702   0.71542   0.74689
  Beta virt. eigenvalues --    0.89553   0.96019   1.00339   1.03721   1.06457
  Beta virt. eigenvalues --    1.19736   1.24574   1.30975   1.34617   1.43386
  Beta virt. eigenvalues --    1.45814   1.46664   1.51014   1.56477   1.62740
  Beta virt. eigenvalues --    1.64368   1.70725   1.76165   1.77152   1.81917
  Beta virt. eigenvalues --    1.92002   1.95190   2.00687   2.05143   2.07388
  Beta virt. eigenvalues --    2.09016   2.13318   2.15233   2.28339   2.33201
  Beta virt. eigenvalues --    2.33280   2.48335   2.56571   2.61785   2.68279
  Beta virt. eigenvalues --    2.75010   2.78334   2.81484   2.88907   2.93245
  Beta virt. eigenvalues --    3.03025   3.13476   3.15880   3.20593   3.21468
  Beta virt. eigenvalues --    3.26624   3.43709   3.49216   3.61191   3.68743
  Beta virt. eigenvalues --    3.72920   3.73054   3.94364   3.95638   4.08169
  Beta virt. eigenvalues --    4.15513   4.26327   4.45394   4.51396   4.59803
  Beta virt. eigenvalues --    4.62323   4.66606   4.69825   4.71950   4.75750
  Beta virt. eigenvalues --    4.87321   4.94358   5.01976   5.15021   5.15187
  Beta virt. eigenvalues --    5.23017   5.56067   5.56794   5.71548   5.92763
  Beta virt. eigenvalues --    6.09722   6.85475  22.36598  31.64924  32.12748
          Condensed to atoms (all electrons):
               1          2          3          4          5          6
     1  C    5.154202   0.474193  -0.142418   0.011424   0.398193   0.410145
     2  N    0.474193   5.996329   0.232897  -0.003244  -0.030146  -0.033859
     3  N   -0.142418   0.232897   7.097288   0.252167   0.008614   0.004629
     4  H    0.011424  -0.003244   0.252167   0.597201  -0.001236  -0.001155
     5  H    0.398193  -0.030146   0.008614  -0.001236   0.530810  -0.025618
     6  H    0.410145  -0.033859   0.004629  -0.001155  -0.025618   0.504628
     7  H   -0.068803   0.345305  -0.022292  -0.033322  -0.004673   0.009472
               7
     1  C   -0.068803
     2  N    0.345305
     3  N   -0.022292
     4  H   -0.033322
     5  H   -0.004673
     6  H    0.009472
     7  H    0.558997
          Atomic-Atomic Spin Densities.
               1          2          3          4          5          6
     1  C    0.000000  -0.000000   0.000000   0.000000   0.000000  -0.000000
     2  N   -0.000000   0.000000  -0.000000   0.000000  -0.000000  -0.000000
     3  N    0.000000  -0.000000   0.000000   0.000000   0.000000  -0.000000
     4  H    0.000000   0.000000   0.000000  -0.000000  -0.000000   0.000000
     5  H    0.000000  -0.000000   0.000000  -0.000000   0.000000   0.000000
     6  H   -0.000000  -0.000000  -0.000000   0.000000   0.000000  -0.000000
     7  H   -0.000000   0.000000  -0.000000   0.000000  -0.000000  -0.000000
               7
     1  C   -0.000000
     2  N    0.000000
     3  N   -0.000000
     4  H    0.000000
     5  H   -0.000000
     6  H   -0.000000
     7  H    0.000000
 Mulliken charges and spin densities:
               1          2
     1  C   -0.236935   0.000000
     2  N    0.018526  -0.000000
     3  N   -0.430885  -0.000000
     4  H    0.178165   0.000000
     5  H    0.124056   0.000000
     6  H    0.131758  -0.000000
     7  H    0.215315   0.000000
 Sum of Mulliken charges =  -0.00000   0.00000
 Mulliken charges and spin densities with hydrogens summed into heavy atoms:
               1          2
     1  C    0.018879   0.000000
     2  N    0.233841  -0.000000
     3  N   -0.252720   0.000000
 Electronic spatial extent (au):  <R**2>=            598.2334
 Charge=             -0.0000 electrons
 Dipole moment (field-independent basis, Debye):
    X=              0.4039    Y=              0.8107    Z=              3.0135  Tot=              3.1467
 Quadrupole moment (field-independent basis, Debye-Ang):
   XX=            -13.6679   YY=            -21.4438   ZZ=            -22.7827
   XY=              2.3258   XZ=              8.5556   YZ=             -0.4525
 Traceless Quadrupole moment (field-independent basis, Debye-Ang):
   XX=              5.6303   YY=             -2.1456   ZZ=             -3.4846
   XY=              2.3258   XZ=              8.5556   YZ=             -0.4525
 Octapole moment (field-independent basis, Debye-Ang**2):
  XXX=            -88.8274  YYY=             10.9112  ZZZ=             41.3996  XYY=            -45.5975
  XXY=              8.9911  XXZ=             31.6858  XZZ=            -53.1307  YZZ=              5.3998
  YYZ=             12.0469  XYZ=             -2.3920
 Hexadecapole moment (field-independent basis, Debye-Ang**3):
 XXXX=           -476.5481 YYYY=            -30.3300 ZZZZ=           -116.0040 XXXY=             38.2648
 XXXZ=            133.2803 YYYX=             29.9467 YYYZ=            -12.2930 ZZZX=            118.4381
 ZZZY=            -14.1413 XXYY=           -125.2893 XXZZ=           -156.5462 YYZZ=            -23.7855
 XXYZ=             -9.8851 YYXZ=             34.7202 ZZXY=             15.0096
 N-N= 7.338254906404D+01 E-N=-4.963364174579D+02  KE= 1.492792194306D+02
                          Isotropic Fermi Contact Couplings
        Atom                 a.u.       MegaHertz       Gauss      10(-4) cm-1
     1  C(13)              0.00000       0.00000       0.00000       0.00000
     2  N(14)             -0.00000      -0.00000      -0.00000      -0.00000
     3  N(14)             -0.00000      -0.00000      -0.00000      -0.00000
     4  H(1)               0.00000       0.00000       0.00000       0.00000
     5  H(1)               0.00000       0.00000       0.00000       0.00000
     6  H(1)               0.00000       0.00000       0.00000       0.00000
     7  H(1)               0.00000       0.00000       0.00000       0.00000
 --------------------------------------------------------
       Center         ----  Spin Dipole Couplings  ----
                      3XX-RR        3YY-RR        3ZZ-RR
 --------------------------------------------------------
     1   Atom        0.000000      0.000000      0.000000
     2   Atom        0.000000      0.000000      0.000000
     3   Atom        0.000000      0.000000      0.000000
     4   Atom        0.000000      0.000000      0.000000
     5   Atom        0.000000      0.000000      0.000000
     6   Atom        0.000000      0.000000      0.000000
     7   Atom        0.000000      0.000000      0.000000
 --------------------------------------------------------
                        XY            XZ            YZ
 --------------------------------------------------------
     1   Atom        0.000000      0.000000      0.000000
     2   Atom        0.000000      0.000000      0.000000
     3   Atom        0.000000      0.000000      0.000000
     4   Atom        0.000000      0.000000      0.000000
     5   Atom        0.000000      0.000000      0.000000
     6   Atom        0.000000      0.000000      0.000000
     7   Atom        0.000000      0.000000      0.000000
 --------------------------------------------------------


 ---------------------------------------------------------------------------------
              Anisotropic Spin Dipole Couplings in Principal Axis System
 ---------------------------------------------------------------------------------

       Atom             a.u.   MegaHertz   Gauss  10(-4) cm-1        Axes

              Baa     0.0000     0.000     0.000     0.000  1.0000  0.0000  0.0000
     1 C(13)  Bbb     0.0000     0.000     0.000     0.000 -0.0000  1.0000  0.0000
              Bcc     0.0000     0.000     0.000     0.000  0.0000  0.0000  1.0000
 
              Baa     0.0000     0.000     0.000     0.000  1.0000  0.0000  0.0000
     2 N(14)  Bbb     0.0000     0.000     0.000     0.000 -0.0000  1.0000  0.0000
              Bcc     0.0000     0.000     0.000     0.000  0.0000  0.0000  1.0000
 
              Baa     0.0000     0.000     0.000     0.000  1.0000  0.0000  0.0000
     3 N(14)  Bbb     0.0000     0.000     0.000     0.000 -0.0000  1.0000  0.0000
              Bcc     0.0000     0.000     0.000     0.000  0.0000  0.0000  1.0000
 
              Baa     0.0000     0.000     0.000     0.000  1.0000  0.0000  0.0000
     4 H(1)   Bbb     0.0000     0.000     0.000     0.000 -0.0000  1.0000  0.0000
              Bcc     0.0000     0.000     0.000     0.000  0.0000  0.0000  1.0000
 
              Baa     0.0000     0.000     0.000     0.000  1.0000  0.0000  0.0000
     5 H(1)   Bbb     0.0000     0.000     0.000     0.000 -0.0000  1.0000  0.0000
              Bcc     0.0000     0.000     0.000     0.000  0.0000  0.0000  1.0000
 
              Baa     0.0000     0.000     0.000     0.000  1.0000  0.0000  0.0000
     6 H(1)   Bbb     0.0000     0.000     0.000     0.000 -0.0000  1.0000  0.0000
              Bcc     0.0000     0.000     0.000     0.000  0.0000  0.0000  1.0000
 
              Baa     0.0000     0.000     0.000     0.000  1.0000  0.0000  0.0000
     7 H(1)   Bbb     0.0000     0.000     0.000     0.000 -0.0000  1.0000  0.0000
              Bcc     0.0000     0.000     0.000     0.000  0.0000  0.0000  1.0000
 

 ---------------------------------------------------------------------------------

 No NMR shielding tensors so no spin-rotation constants.
 Leave Link  601 at Tue Jan  3 09:03:31 2023, MaxMem=   536870912 cpu:               0.3 elap:               0.2
 (Enter /opt/software/gaussian/g16.c01/l801.exe)
 DoSCS=F DFT=T ScalE2(SS,OS)=  1.000000  1.000000
 Range of M.O.s used for correlation:     1   117
 NBasis=   117 NAE=    12 NBE=    12 NFC=     0 NFV=     0
 NROrb=    117 NOA=    12 NOB=    12 NVA=   105 NVB=   105

 **** Warning!!: The largest alpha MO coefficient is  0.14112066D+02


 **** Warning!!: The largest beta MO coefficient is  0.14112066D+02

 Leave Link  801 at Tue Jan  3 09:03:32 2023, MaxMem=   536870912 cpu:               0.1 elap:               0.0
 (Enter /opt/software/gaussian/g16.c01/l914.exe)
 UHF ground state
 Doing stability rather than CIS.
 Keep R1 and R2 ints in memory in canonical form, NReq=52119664.
 FoFCou: FMM=F IPFlag=           0 FMFlag=           0 FMFlg1=           0
         NFxFlg=           0 DoJE=F BraDBF=F KetDBF=F FulRan=T
         wScrn=  0.000000 ICntrl=       600 IOpCl=  0 I1Cent=           0 NGrid=           0
         NMat0=    1 NMatS0=   6903 NMatT0=    0 NMatD0=    1 NMtDS0=    0 NMtDT0=    0
 Symmetry not used in FoFCou.
 Two-electron integral symmetry not used.
 MDV=   536870912 DFT=T DoStab=T Mixed=T DoRPA=F DoScal=F NonHer=F
 Making orbital integer symmetry assigments:
    12 initial guesses have been made.
 Convergence on wavefunction:    0.001000000000000
 Davidson Disk Diagonalization:  ConvIn= 1.00D-03 SkipCon=T Conv= 1.00D-03.
 Max sub-space:  2000 roots to seek:    12 dimension of matrix:         2520
 Iteration     1 Dimension    12 NMult     0 NNew     12
 CISAX will form    12 AO SS matrices at one time.
 NMat=    12 NSing=    12 JSym2X= 0.
 Excitation Energies [eV] at current iteration:
 Root      1 :     1.229769824744202
 Root      2 :     4.251198757522761
 Root      3 :     4.411249636651926
 Root      4 :     4.749829533465795
 Root      5 :     6.091637222213570
 Root      6 :     6.134595692463985
 Root      7 :     6.266562241743725
 Root      8 :     6.423759174112242
 Root      9 :     6.569548824680675
 Root     10 :     6.945872678300511
 Root     11 :     7.082512436689088
 Root     12 :    12.898626744848835
 Iteration     2 Dimension    24 NMult    12 NNew     12
 CISAX will form    12 AO SS matrices at one time.
 NMat=    12 NSing=    12 JSym2X= 0.
 Root      1 not converged, maximum delta is    0.093965530216599
 Excitation Energies [eV] at current iteration:
 Root      1 :     0.834350217262937   Change is   -0.395419607481265
 Root      2 :     4.165879118182994   Change is   -0.085319639339766
 Root      3 :     4.392325902860281   Change is   -0.018923733791645
 Root      4 :     4.553017960590777   Change is   -0.196811572875018
 Root      5 :     5.874978059307792   Change is   -0.216659162905778
 Root      6 :     5.969230071223964   Change is   -0.165365621240021
 Root      7 :     5.982510235954170   Change is   -0.284052005789554
 Root      8 :     6.243495648538602   Change is   -0.180263525573640
 Root      9 :     6.494199054503336   Change is   -0.075349770177339
 Root     10 :     6.700606212709753   Change is   -0.245266465590758
 Root     11 :     6.918616202913374   Change is   -0.163896233775713
 Root     12 :     9.764699575440583   Change is   -3.133927169408253
 Iteration     3 Dimension    27 NMult    24 NNew      3
 CISAX will form     3 AO SS matrices at one time.
 NMat=     3 NSing=     3 JSym2X= 0.
 Root      1 not converged, maximum delta is    0.004920072525394
 Excitation Energies [eV] at current iteration:
 Root      1 :     0.828722373622665   Change is   -0.005627843640272
 Root      2 :     4.164421672485457   Change is   -0.001457445697537
 Root      3 :     4.392036361780424   Change is   -0.000289541079857
 Iteration     4 Dimension    30 NMult    27 NNew      3
 CISAX will form     3 AO SS matrices at one time.
 NMat=     3 NSing=     3 JSym2X= 0.
 Root      1 not converged, maximum delta is    0.001789042490558
 Excitation Energies [eV] at current iteration:
 Root      1 :     0.828524269200202   Change is   -0.000198104422463
 Root      2 :     4.164375008689378   Change is   -0.000046663796079
 Root      3 :     4.392026629420155   Change is   -0.000009732360270
 Iteration     5 Dimension    33 NMult    30 NNew      3
 CISAX will form     3 AO SS matrices at one time.
 NMat=     3 NSing=     3 JSym2X= 0.
 Root      1 has converged.
 Excitation Energies [eV] at current iteration:
 Root      1 :     0.828517793352832   Change is   -0.000006475847370
 Root      2 :     4.164373413843377   Change is   -0.000001594846001
 Root      3 :     4.392026214267361   Change is   -0.000000415152793
 Convergence achieved on expansion vectors.
 ***********************************************************************
 Stability analysis using <AA,BB:AA,BB> singles matrix:
 ***********************************************************************
 1PDM for each excited state written to RWF  633
 Ground to excited state transition densities written to RWF  633

 Eigenvectors of the stability matrix:
 
 Excited state symmetry could not be determined.
 Eigenvector   1:  3.000-?Sym  Eigenvalue= 0.0304475  <S**2>=2.000
     12A -> 13A       -0.69527
     12B -> 13B        0.69527
 The wavefunction is stable under the perturbations considered.
 Leave Link  914 at Tue Jan  3 09:04:38 2023, MaxMem=   536870912 cpu:             132.4 elap:              66.2
 (Enter /opt/software/gaussian/g16.c01/l508.exe)
 The wavefunction is already stable.
 Leave Link  508 at Tue Jan  3 09:04:38 2023, MaxMem=   536870912 cpu:               0.0 elap:               0.0
 (Enter /opt/software/gaussian/g16.c01/l601.exe)
 Copying SCF densities to generalized density rwf, IOpCl= 1 IROHF=0.

 **********************************************************************

            Population analysis using the SCF Density.

 **********************************************************************

 Alpha  occ. eigenvalues --  -14.43707 -14.29983 -10.19608  -1.04107  -0.80995
 Alpha  occ. eigenvalues --   -0.64689  -0.56792  -0.48631  -0.43206  -0.42086
 Alpha  occ. eigenvalues --   -0.28417  -0.20163
 Alpha virt. eigenvalues --   -0.02526   0.00242   0.07530   0.08666   0.11496
 Alpha virt. eigenvalues --    0.15704   0.19794   0.22843   0.26583   0.27555
 Alpha virt. eigenvalues --    0.33998   0.35966   0.37955   0.40775   0.41386
 Alpha virt. eigenvalues --    0.43185   0.45127   0.48211   0.50088   0.52293
 Alpha virt. eigenvalues --    0.56373   0.60180   0.60702   0.71542   0.74689
 Alpha virt. eigenvalues --    0.89553   0.96019   1.00339   1.03721   1.06457
 Alpha virt. eigenvalues --    1.19736   1.24574   1.30975   1.34617   1.43386
 Alpha virt. eigenvalues --    1.45814   1.46664   1.51014   1.56477   1.62740
 Alpha virt. eigenvalues --    1.64368   1.70725   1.76165   1.77152   1.81917
 Alpha virt. eigenvalues --    1.92002   1.95190   2.00687   2.05143   2.07388
 Alpha virt. eigenvalues --    2.09016   2.13318   2.15233   2.28339   2.33201
 Alpha virt. eigenvalues --    2.33280   2.48335   2.56571   2.61785   2.68279
 Alpha virt. eigenvalues --    2.75010   2.78334   2.81484   2.88907   2.93245
 Alpha virt. eigenvalues --    3.03025   3.13476   3.15880   3.20593   3.21468
 Alpha virt. eigenvalues --    3.26624   3.43709   3.49216   3.61191   3.68743
 Alpha virt. eigenvalues --    3.72920   3.73054   3.94364   3.95638   4.08169
 Alpha virt. eigenvalues --    4.15513   4.26327   4.45394   4.51396   4.59803
 Alpha virt. eigenvalues --    4.62323   4.66606   4.69825   4.71950   4.75750
 Alpha virt. eigenvalues --    4.87321   4.94358   5.01976   5.15021   5.15187
 Alpha virt. eigenvalues --    5.23017   5.56067   5.56794   5.71548   5.92763
 Alpha virt. eigenvalues --    6.09722   6.85475  22.36598  31.64924  32.12748
  Beta  occ. eigenvalues --  -14.43707 -14.29983 -10.19608  -1.04107  -0.80995
  Beta  occ. eigenvalues --   -0.64689  -0.56792  -0.48631  -0.43206  -0.42086
  Beta  occ. eigenvalues --   -0.28417  -0.20163
  Beta virt. eigenvalues --   -0.02526   0.00242   0.07530   0.08666   0.11496
  Beta virt. eigenvalues --    0.15704   0.19794   0.22843   0.26583   0.27555
  Beta virt. eigenvalues --    0.33998   0.35966   0.37955   0.40775   0.41386
  Beta virt. eigenvalues --    0.43185   0.45127   0.48211   0.50088   0.52293
  Beta virt. eigenvalues --    0.56373   0.60180   0.60702   0.71542   0.74689
  Beta virt. eigenvalues --    0.89553   0.96019   1.00339   1.03721   1.06457
  Beta virt. eigenvalues --    1.19736   1.24574   1.30975   1.34617   1.43386
  Beta virt. eigenvalues --    1.45814   1.46664   1.51014   1.56477   1.62740
  Beta virt. eigenvalues --    1.64368   1.70725   1.76165   1.77152   1.81917
  Beta virt. eigenvalues --    1.92002   1.95190   2.00687   2.05143   2.07388
  Beta virt. eigenvalues --    2.09016   2.13318   2.15233   2.28339   2.33201
  Beta virt. eigenvalues --    2.33280   2.48335   2.56571   2.61785   2.68279
  Beta virt. eigenvalues --    2.75010   2.78334   2.81484   2.88907   2.93245
  Beta virt. eigenvalues --    3.03025   3.13476   3.15880   3.20593   3.21468
  Beta virt. eigenvalues --    3.26624   3.43709   3.49216   3.61191   3.68743
  Beta virt. eigenvalues --    3.72920   3.73054   3.94364   3.95638   4.08169
  Beta virt. eigenvalues --    4.15513   4.26327   4.45394   4.51396   4.59803
  Beta virt. eigenvalues --    4.62323   4.66606   4.69825   4.71950   4.75750
  Beta virt. eigenvalues --    4.87321   4.94358   5.01976   5.15021   5.15187
  Beta virt. eigenvalues --    5.23017   5.56067   5.56794   5.71548   5.92763
  Beta virt. eigenvalues --    6.09722   6.85475  22.36598  31.64924  32.12748
          Condensed to atoms (all electrons):
               1          2          3          4          5          6
     1  C    5.154202   0.474193  -0.142418   0.011424   0.398193   0.410145
     2  N    0.474193   5.996329   0.232897  -0.003244  -0.030146  -0.033859
     3  N   -0.142418   0.232897   7.097288   0.252167   0.008614   0.004629
     4  H    0.011424  -0.003244   0.252167   0.597201  -0.001236  -0.001155
     5  H    0.398193  -0.030146   0.008614  -0.001236   0.530810  -0.025618
     6  H    0.410145  -0.033859   0.004629  -0.001155  -0.025618   0.504628
     7  H   -0.068803   0.345305  -0.022292  -0.033322  -0.004673   0.009472
               7
     1  C   -0.068803
     2  N    0.345305
     3  N   -0.022292
     4  H   -0.033322
     5  H   -0.004673
     6  H    0.009472
     7  H    0.558997
          Atomic-Atomic Spin Densities.
               1          2          3          4          5          6
     1  C    0.000000  -0.000000   0.000000   0.000000   0.000000  -0.000000
     2  N   -0.000000   0.000000  -0.000000   0.000000  -0.000000  -0.000000
     3  N    0.000000  -0.000000   0.000000   0.000000   0.000000  -0.000000
     4  H    0.000000   0.000000   0.000000  -0.000000  -0.000000   0.000000
     5  H    0.000000  -0.000000   0.000000  -0.000000   0.000000   0.000000
     6  H   -0.000000  -0.000000  -0.000000   0.000000   0.000000  -0.000000
     7  H   -0.000000   0.000000  -0.000000   0.000000  -0.000000  -0.000000
               7
     1  C   -0.000000
     2  N    0.000000
     3  N   -0.000000
     4  H    0.000000
     5  H   -0.000000
     6  H   -0.000000
     7  H    0.000000
 Mulliken charges and spin densities:
               1          2
     1  C   -0.236935   0.000000
     2  N    0.018526  -0.000000
     3  N   -0.430885  -0.000000
     4  H    0.178165   0.000000
     5  H    0.124056   0.000000
     6  H    0.131758  -0.000000
     7  H    0.215315   0.000000
 Sum of Mulliken charges =  -0.00000   0.00000
 Mulliken charges and spin densities with hydrogens summed into heavy atoms:
               1          2
     1  C    0.018879   0.000000
     2  N    0.233841  -0.000000
     3  N   -0.252720   0.000000
 Electronic spatial extent (au):  <R**2>=            598.2334
 Charge=             -0.0000 electrons
 Dipole moment (field-independent basis, Debye):
    X=              0.4039    Y=              0.8107    Z=              3.0135  Tot=              3.1467
 Quadrupole moment (field-independent basis, Debye-Ang):
   XX=            -13.6679   YY=            -21.4438   ZZ=            -22.7827
   XY=              2.3258   XZ=              8.5556   YZ=             -0.4525
 Traceless Quadrupole moment (field-independent basis, Debye-Ang):
   XX=              5.6303   YY=             -2.1456   ZZ=             -3.4846
   XY=              2.3258   XZ=              8.5556   YZ=             -0.4525
 Octapole moment (field-independent basis, Debye-Ang**2):
  XXX=            -88.8274  YYY=             10.9112  ZZZ=             41.3996  XYY=            -45.5975
  XXY=              8.9911  XXZ=             31.6858  XZZ=            -53.1307  YZZ=              5.3998
  YYZ=             12.0469  XYZ=             -2.3920
 Hexadecapole moment (field-independent basis, Debye-Ang**3):
 XXXX=           -476.5481 YYYY=            -30.3300 ZZZZ=           -116.0040 XXXY=             38.2648
 XXXZ=            133.2803 YYYX=             29.9467 YYYZ=            -12.2930 ZZZX=            118.4381
 ZZZY=            -14.1413 XXYY=           -125.2893 XXZZ=           -156.5462 YYZZ=            -23.7855
 XXYZ=             -9.8851 YYXZ=             34.7202 ZZXY=             15.0096
 N-N= 7.338254906404D+01 E-N=-4.963364174579D+02  KE= 1.492792194306D+02
                          Isotropic Fermi Contact Couplings
        Atom                 a.u.       MegaHertz       Gauss      10(-4) cm-1
     1  C(13)              0.00000       0.00000       0.00000       0.00000
     2  N(14)             -0.00000      -0.00000      -0.00000      -0.00000
     3  N(14)             -0.00000      -0.00000      -0.00000      -0.00000
     4  H(1)               0.00000       0.00000       0.00000       0.00000
     5  H(1)               0.00000       0.00000       0.00000       0.00000
     6  H(1)               0.00000       0.00000       0.00000       0.00000
     7  H(1)               0.00000       0.00000       0.00000       0.00000
 --------------------------------------------------------
       Center         ----  Spin Dipole Couplings  ----
                      3XX-RR        3YY-RR        3ZZ-RR
 --------------------------------------------------------
     1   Atom        0.000000      0.000000      0.000000
     2   Atom        0.000000      0.000000      0.000000
     3   Atom        0.000000      0.000000      0.000000
     4   Atom        0.000000      0.000000      0.000000
     5   Atom        0.000000      0.000000      0.000000
     6   Atom        0.000000      0.000000      0.000000
     7   Atom        0.000000      0.000000      0.000000
 --------------------------------------------------------
                        XY            XZ            YZ
 --------------------------------------------------------
     1   Atom        0.000000      0.000000      0.000000
     2   Atom        0.000000      0.000000      0.000000
     3   Atom        0.000000      0.000000      0.000000
     4   Atom        0.000000      0.000000      0.000000
     5   Atom        0.000000      0.000000      0.000000
     6   Atom        0.000000      0.000000      0.000000
     7   Atom        0.000000      0.000000      0.000000
 --------------------------------------------------------


 ---------------------------------------------------------------------------------
              Anisotropic Spin Dipole Couplings in Principal Axis System
 ---------------------------------------------------------------------------------

       Atom             a.u.   MegaHertz   Gauss  10(-4) cm-1        Axes

              Baa     0.0000     0.000     0.000     0.000  1.0000  0.0000  0.0000
     1 C(13)  Bbb     0.0000     0.000     0.000     0.000 -0.0000  1.0000  0.0000
              Bcc     0.0000     0.000     0.000     0.000  0.0000  0.0000  1.0000
 
              Baa     0.0000     0.000     0.000     0.000  1.0000  0.0000  0.0000
     2 N(14)  Bbb     0.0000     0.000     0.000     0.000 -0.0000  1.0000  0.0000
              Bcc     0.0000     0.000     0.000     0.000  0.0000  0.0000  1.0000
 
              Baa     0.0000     0.000     0.000     0.000  1.0000  0.0000  0.0000
     3 N(14)  Bbb     0.0000     0.000     0.000     0.000 -0.0000  1.0000  0.0000
              Bcc     0.0000     0.000     0.000     0.000  0.0000  0.0000  1.0000
 
              Baa     0.0000     0.000     0.000     0.000  1.0000  0.0000  0.0000
     4 H(1)   Bbb     0.0000     0.000     0.000     0.000 -0.0000  1.0000  0.0000
              Bcc     0.0000     0.000     0.000     0.000  0.0000  0.0000  1.0000
 
              Baa     0.0000     0.000     0.000     0.000  1.0000  0.0000  0.0000
     5 H(1)   Bbb     0.0000     0.000     0.000     0.000 -0.0000  1.0000  0.0000
              Bcc     0.0000     0.000     0.000     0.000  0.0000  0.0000  1.0000
 
              Baa     0.0000     0.000     0.000     0.000  1.0000  0.0000  0.0000
     6 H(1)   Bbb     0.0000     0.000     0.000     0.000 -0.0000  1.0000  0.0000
              Bcc     0.0000     0.000     0.000     0.000  0.0000  0.0000  1.0000
 
              Baa     0.0000     0.000     0.000     0.000  1.0000  0.0000  0.0000
     7 H(1)   Bbb     0.0000     0.000     0.000     0.000 -0.0000  1.0000  0.0000
              Bcc     0.0000     0.000     0.000     0.000  0.0000  0.0000  1.0000
 

 ---------------------------------------------------------------------------------

 No NMR shielding tensors so no spin-rotation constants.
 Leave Link  601 at Tue Jan  3 09:04:38 2023, MaxMem=   536870912 cpu:               0.3 elap:               0.2
 (Enter /opt/software/gaussian/g16.c01/l9999.exe)

 Test job not archived.
 1\1\GINC-GRA704\Stability\UB3LYP\Gen\C1H4N2\BHAVUK\03-Jan-2023\0\\#p u
 b3lyp/gen stable=opt scf=(maxcycle=900,verytightlineq,xqc) integral=gr
 id=ultrafine symmetry=None density=current iop(99/18=-1) output=wfn\\0
 001_q000_m01_k00_opt_uwb97xd_def2svpd/0001_q000_m01_k00_force_ub3lyp_d
 ef2tzvp stable-force\\0,1\C,0,1.0726168695,-0.0701991232,-0.153012633\
 N,0,2.3779437514,-0.0897456927,-0.2543854931\N,0,3.0833554789,-0.36846
 97824,-1.3087287982\H,0,4.0640493508,-0.2926697434,-1.0476368317\H,0,0
 .6399628731,0.1851542916,0.8085260928\H,0,0.4830438364,-0.3099796861,-
 1.0337247999\H,0,2.8674978397,0.1458797364,0.6131324666\\Version=ES64L
 -G16RevC.01\HF=-149.9925213\S2=0.\S2-1=0.\S2A=0.\RMSD=4.290e-09\Dipole
 =0.158913,0.3189723,1.1856107\Quadrupole=4.185956,-1.5952327,-2.590723
 4,1.7291932,6.3608925,-0.3364204\PG=Unknown\\@

 Writing a WFN file to "0001_q000_m01_k00_force_ub3lyp_def2tzvp.wfn"


 ERWIN WITH HIS PSI CAN DO
 CALCULATIONS QUITE A FEW.
 BUT ONE THING HAS NOT BEEN SEEN
 JUST WHAT DOES PSI REALLY MEAN.
 -- WALTER HUCKEL, TRANS. BY FELIX BLOCH
 Job cpu time:       0 days  0 hours  2 minutes 37.0 seconds.
 Elapsed time:       0 days  0 hours  1 minutes 18.9 seconds.
 File lengths (MBytes):  RWF=     83 Int=      0 D2E=      0 Chk=      3 Scr=      1
 Normal termination of Gaussian 16 at Tue Jan  3 09:04:38 2023.
 Initial command:
 /opt/software/gaussian/g16.c01/l1.exe "/localscratch/bhavuk.2151335.0/Gau-16648.inp" -scrdir="/localscratch/bhavuk.2151335.0/"
 Entering Link 1 = /opt/software/gaussian/g16.c01/l1.exe PID=     18631.
  
 Copyright (c) 1988-2019, Gaussian, Inc.  All Rights Reserved.
  
 This is part of the Gaussian(R) 16 program.  It is based on
 the Gaussian(R) 09 system (copyright 2009, Gaussian, Inc.),
 the Gaussian(R) 03 system (copyright 2003, Gaussian, Inc.),
 the Gaussian(R) 98 system (copyright 1998, Gaussian, Inc.),
 the Gaussian(R) 94 system (copyright 1995, Gaussian, Inc.),
 the Gaussian 92(TM) system (copyright 1992, Gaussian, Inc.),
 the Gaussian 90(TM) system (copyright 1990, Gaussian, Inc.),
 the Gaussian 88(TM) system (copyright 1988, Gaussian, Inc.),
 the Gaussian 86(TM) system (copyright 1986, Carnegie Mellon
 University), and the Gaussian 82(TM) system (copyright 1983,
 Carnegie Mellon University). Gaussian is a federally registered
 trademark of Gaussian, Inc.
  
 This software contains proprietary and confidential information,
 including trade secrets, belonging to Gaussian, Inc.
  
 This software is provided under written license and may be
 used, copied, transmitted, or stored only in accord with that
 written license.
  
 The following legend is applicable only to US Government
 contracts under FAR:
  
                    RESTRICTED RIGHTS LEGEND
  
 Use, reproduction and disclosure by the US Government is
 subject to restrictions as set forth in subparagraphs (a)
 and (c) of the Commercial Computer Software - Restricted
 Rights clause in FAR 52.227-19.
  
 Gaussian, Inc.
 340 Quinnipiac St., Bldg. 40, Wallingford CT 06492
  
  
 ---------------------------------------------------------------
 Warning -- This program may not be used in any manner that
 competes with the business of Gaussian, Inc. or will provide
 assistance to any competitor of Gaussian, Inc.  The licensee
 of this program is prohibited from giving any competitor of
 Gaussian, Inc. access to this program.  By using this program,
 the user acknowledges that Gaussian, Inc. is engaged in the
 business of creating and licensing software in the field of
 computational chemistry and represents and warrants to the
 licensee that it is not a competitor of Gaussian, Inc. and that
 it will not use this program in any manner prohibited above.
 ---------------------------------------------------------------
  

 Cite this work as:
 Gaussian 16, Revision C.01,
 M. J. Frisch, G. W. Trucks, H. B. Schlegel, G. E. Scuseria, 
 M. A. Robb, J. R. Cheeseman, G. Scalmani, V. Barone, 
 G. A. Petersson, H. Nakatsuji, X. Li, M. Caricato, A. V. Marenich, 
 J. Bloino, B. G. Janesko, R. Gomperts, B. Mennucci, H. P. Hratchian, 
 J. V. Ortiz, A. F. Izmaylov, J. L. Sonnenberg, D. Williams-Young, 
 F. Ding, F. Lipparini, F. Egidi, J. Goings, B. Peng, A. Petrone, 
 T. Henderson, D. Ranasinghe, V. G. Zakrzewski, J. Gao, N. Rega, 
 G. Zheng, W. Liang, M. Hada, M. Ehara, K. Toyota, R. Fukuda, 
 J. Hasegawa, M. Ishida, T. Nakajima, Y. Honda, O. Kitao, H. Nakai, 
 T. Vreven, K. Throssell, J. A. Montgomery, Jr., J. E. Peralta, 
 F. Ogliaro, M. J. Bearpark, J. J. Heyd, E. N. Brothers, K. N. Kudin, 
 V. N. Staroverov, T. A. Keith, R. Kobayashi, J. Normand, 
 K. Raghavachari, A. P. Rendell, J. C. Burant, S. S. Iyengar, 
 J. Tomasi, M. Cossi, J. M. Millam, M. Klene, C. Adamo, R. Cammi, 
 J. W. Ochterski, R. L. Martin, K. Morokuma, O. Farkas, 
 J. B. Foresman, and D. J. Fox, Gaussian, Inc., Wallingford CT, 2019.
 
 ******************************************
 Gaussian 16:  ES64L-G16RevC.01  3-Jul-2019
                 3-Jan-2023 
 ******************************************
 %chk=0001_q000_m01_k00_force_ub3lyp_def2tzvp.chk
 %nprocshared=2
 Will use up to    2 processors via shared memory.
 %mem=4GB
 ----------------------------------------------------------------------
 #p ub3lyp/chkbasis force guess=read geom=check scf=(maxcycle=900,veryt
 ightlineq,xqc) integral=grid=ultrafine symmetry=None density=current p
 op=(cm5,hlygat,mbs,npa) output=wfx
 ----------------------------------------------------------------------
 1/10=7,29=2,30=1,38=1/1,3;
 2/12=2,15=3,40=1/2;
 3/5=7,6=2,11=2,14=-4,25=1,30=1,67=1,71=1,74=-5,75=-5,116=2/1,2,3;
 4/5=1/1;
 5/5=2,7=900,8=3,13=1,17=3,38=6/2,8;
 6/7=2,8=2,9=2,10=2,15=8,20=15,22=-1,27=100,28=1,40=-1,79=1/1,2,7;
 7/29=1,30=1/1,2,3,16;
 1/10=7,30=1/3;
 99/6=200/99;
 Leave Link    1 at Tue Jan  3 09:04:38 2023, MaxMem=   536870912 cpu:               0.2 elap:               0.1
 (Enter /opt/software/gaussian/g16.c01/l101.exe)
 ----------------------------------------------------------------------
 0001_q000_m01_k00_opt_uwb97xd_def2svpd/0001_q000_m01_k00_force_ub3lyp_
 def2tzvp stable-force
 ----------------------------------------------------------------------
 Structure from the checkpoint file:  "0001_q000_m01_k00_force_ub3lyp_def2tzvp.chk"
 Charge =  0 Multiplicity = 1
 Z-Matrix found in chk file.
 C,0,1.0726168695,-0.0701991232,-0.153012633
 N,0,2.3779437514,-0.0897456927,-0.2543854931
 N,0,3.0833554789,-0.3684697824,-1.3087287982
 H,0,4.0640493508,-0.2926697434,-1.0476368317
 H,0,0.6399628731,0.1851542916,0.8085260928
 H,0,0.4830438364,-0.3099796861,-1.0337247999
 H,0,2.8674978397,0.1458797364,0.6131324666
 Recover connectivity data from disk.
 ITRead=  0  0  0  0  0  0  0
 MicOpt= -1 -1 -1 -1 -1 -1 -1
 NAtoms=      7 NQM=        7 NQMF=       0 NMMI=      0 NMMIF=      0
                NMic=       0 NMicF=      0.
                    Isotopes and Nuclear Properties:
 (Nuclear quadrupole moments (NQMom) in fm**2, nuclear magnetic moments (NMagM)
  in nuclear magnetons)

  Atom         1           2           3           4           5           6           7
 IAtWgt=          12          14          14           1           1           1           1
 AtmWgt=  12.0000000  14.0030740  14.0030740   1.0078250   1.0078250   1.0078250   1.0078250
 NucSpn=           0           2           2           1           1           1           1
 AtZEff=   3.6000000   4.5500000   4.5500000   1.0000000   1.0000000   1.0000000   1.0000000
 NQMom=    0.0000000   2.0440000   2.0440000   0.0000000   0.0000000   0.0000000   0.0000000
 NMagM=    0.0000000   0.4037610   0.4037610   2.7928460   2.7928460   2.7928460   2.7928460
 AtZNuc=   6.0000000   7.0000000   7.0000000   1.0000000   1.0000000   1.0000000   1.0000000
 Leave Link  101 at Tue Jan  3 09:04:39 2023, MaxMem=   536870912 cpu:               0.4 elap:               0.2
 (Enter /opt/software/gaussian/g16.c01/l103.exe)

 GradGradGradGradGradGradGradGradGradGradGradGradGradGradGradGradGradGrad
 Berny optimization.
 Initialization pass.
 Trust Radius=3.00D-01 FncErr=1.00D-07 GrdErr=1.00D-07 EigMax=2.50D+02 EigMin=1.00D-04
 Number of steps in this run=      2 maximum allowed number of steps=      2.
 GradGradGradGradGradGradGradGradGradGradGradGradGradGradGradGradGradGrad

 Leave Link  103 at Tue Jan  3 09:04:39 2023, MaxMem=   536870912 cpu:               0.1 elap:               0.0
 (Enter /opt/software/gaussian/g16.c01/l202.exe)
                          Input orientation:                          
 ---------------------------------------------------------------------
 Center     Atomic      Atomic             Coordinates (Angstroms)
 Number     Number       Type             X           Y           Z
 ---------------------------------------------------------------------
      1          6           0        1.072617   -0.070199   -0.153013
      2          7           0        2.377944   -0.089746   -0.254385
      3          7           0        3.083355   -0.368470   -1.308729
      4          1           0        4.064049   -0.292670   -1.047637
      5          1           0        0.639963    0.185154    0.808526
      6          1           0        0.483044   -0.309980   -1.033725
      7          1           0        2.867498    0.145880    0.613132
 ---------------------------------------------------------------------
                    Distance matrix (angstroms):
                    1          2          3          4          5
     1  C    0.000000
     2  N    1.309403   0.000000
     3  N    2.338315   1.298820   0.000000
     4  H    3.130258   1.874401   1.017681   0.000000
     5  H    1.084874   2.055706   3.280158   3.924032   0.000000
     6  H    1.086621   2.060708   2.615467   3.581074   1.914071
     7  H    1.963483   1.023606   2.001175   2.093374   2.236433
                    6          7
     6  H    0.000000
     7  H    2.933525   0.000000
 Symmetry turned off by external request.
 Stoichiometry    CH4N2
 Rotational constants (GHZ):          71.2642239          11.2793619           9.7380671
 Leave Link  202 at Tue Jan  3 09:04:39 2023, MaxMem=   536870912 cpu:               0.0 elap:               0.0
 (Enter /opt/software/gaussian/g16.c01/l301.exe)
 Basis read from chk: "0001_q000_m01_k00_force_ub3lyp_def2tzvp.chk" (5D, 7F)
 No pseudopotential information found on chk file.
   117 basis functions,   185 primitive gaussians,   132 cartesian basis functions
    12 alpha electrons       12 beta electrons
       nuclear repulsion energy        73.3825490640 Hartrees.
 IExCor=  402 DFT=T Ex+Corr=B3LYP ExCW=0 ScaHFX=  0.200000
 ScaDFX=  0.800000  0.720000  1.000000  0.810000 ScalE2=  1.000000  1.000000
 IRadAn=      5 IRanWt=     -1 IRanGd=            0 ICorTp=0 IEmpDi=  4
 NAtoms=    7 NActive=    7 NUniq=    7 SFac= 1.00D+00 NAtFMM=   60 NAOKFM=F Big=F
 Integral buffers will be    131072 words long.
 Raffenetti 2 integral format.
 Two-electron integral symmetry is turned off.
 No density basis found on file  20724.
 Leave Link  301 at Tue Jan  3 09:04:39 2023, MaxMem=   536870912 cpu:               0.1 elap:               0.1
 (Enter /opt/software/gaussian/g16.c01/l302.exe)
 NPDir=0 NMtPBC=     1 NCelOv=     1 NCel=       1 NClECP=     1 NCelD=      1
         NCelK=      1 NCelE2=     1 NClLst=     1 CellRange=     0.0.
 One-electron integrals computed using PRISM.
 NBasis=   117 RedAO= T EigKep=  5.86D-04  NBF=   117
 NBsUse=   117 1.00D-06 EigRej= -1.00D+00 NBFU=   117
 Precomputing XC quadrature grid using
 IXCGrd= 4 IRadAn=           5 IRanWt=          -1 IRanGd=           0 AccXCQ= 0.00D+00.
 Generated NRdTot=       0 NPtTot=           0 NUsed=           0 NTot=          32
 NSgBfM=   132   132   132   132   132 MxSgAt=     7 MxSgA2=     7.
 Leave Link  302 at Tue Jan  3 09:04:39 2023, MaxMem=   536870912 cpu:               0.4 elap:               0.2
 (Enter /opt/software/gaussian/g16.c01/l303.exe)
 DipDrv:  MaxL=1.
 Leave Link  303 at Tue Jan  3 09:04:39 2023, MaxMem=   536870912 cpu:               0.1 elap:               0.0
 (Enter /opt/software/gaussian/g16.c01/l401.exe)
 Initial guess from the checkpoint file:  "0001_q000_m01_k00_force_ub3lyp_def2tzvp.chk"
 B after Tr=     0.000000    0.000000    0.000000
         Rot=    1.000000    0.000000    0.000000    0.000000 Ang=   0.00 deg.
 Guess basis will be translated and rotated to current coordinates.
 JPrj=2 DoOrth=T DoCkMO=T.
 Initial guess <Sx>= 0.0000 <Sy>= 0.0000 <Sz>= 0.0000 <S**2>=-0.0000 S=-0.0000
 Leave Link  401 at Tue Jan  3 09:04:39 2023, MaxMem=   536870912 cpu:               0.2 elap:               0.1
 (Enter /opt/software/gaussian/g16.c01/l502.exe)
 Keep R1 and R2 ints in memory in canonical form, NReq=49665217.
 FoFCou: FMM=F IPFlag=           0 FMFlag=           0 FMFlg1=           0
         NFxFlg=           0 DoJE=F BraDBF=F KetDBF=F FulRan=T
         wScrn=  0.000000 ICntrl=       600 IOpCl=  0 I1Cent=           0 NGrid=           0
         NMat0=    1 NMatS0=   6903 NMatT0=    0 NMatD0=    1 NMtDS0=    0 NMtDT0=    0
 Symmetry not used in FoFCou.
 Two-electron integral symmetry not used.
 UHF open shell SCF:
 Using DIIS extrapolation, IDIIS=  1040.
 NGot=   536870912 LenX=   489175770 LenY=   489157905
 Requested convergence on RMS density matrix=1.00D-08 within 128 cycles.
 Requested convergence on MAX density matrix=1.00D-06.
 Requested convergence on             energy=1.00D-06.
 No special actions if energy rises.

 Cycle   1  Pass 1  IDiag  1:
 E= -149.992521263245    
 DIIS: error= 1.48D-08 at cycle   1 NSaved=   1.
 NSaved= 1 IEnMin= 1 EnMin= -149.992521263245     IErMin= 1 ErrMin= 1.48D-08
 ErrMax= 1.48D-08  0.00D+00 EMaxC= 1.00D-01 BMatC= 9.51D-14 BMatP= 9.51D-14
 IDIUse=1 WtCom= 1.00D+00 WtEn= 0.00D+00
 Coeff-Com:  0.100D+01
 Coeff:      0.100D+01
 Gap=     0.176 Goal=   None    Shift=    0.000
 Gap=     0.176 Goal=   None    Shift=    0.000
 RMSDP=2.84D-09 MaxDP=7.15D-08              OVMax= 2.62D-07

 SCF Done:  E(UB3LYP) =  -149.992521263     A.U. after    1 cycles
            NFock=  1  Conv=0.28D-08     -V/T= 2.0048
 <Sx>= 0.0000 <Sy>= 0.0000 <Sz>= 0.0000 <S**2>=-0.0000 S=-0.0000
 <L.S>=  0.00000000000    
 KE= 1.492792203968D+02 PE=-4.963364184241D+02 EE= 1.236821277000D+02
 Annihilation of the first spin contaminant:
 S**2 before annihilation    -0.0000,   after    -0.0000
 Leave Link  502 at Tue Jan  3 09:04:41 2023, MaxMem=   536870912 cpu:               4.4 elap:               2.2
 (Enter /opt/software/gaussian/g16.c01/l508.exe)
 QCSCF skips out because SCF is already converged.
 Leave Link  508 at Tue Jan  3 09:04:41 2023, MaxMem=   536870912 cpu:               0.0 elap:               0.0
 (Enter /opt/software/gaussian/g16.c01/l601.exe)
 Copying SCF densities to generalized density rwf, IOpCl= 1 IROHF=0.

 **********************************************************************

            Population analysis using the SCF Density.

 **********************************************************************

 Alpha  occ. eigenvalues --  -14.43707 -14.29983 -10.19608  -1.04107  -0.80995
 Alpha  occ. eigenvalues --   -0.64689  -0.56792  -0.48631  -0.43206  -0.42086
 Alpha  occ. eigenvalues --   -0.28417  -0.20163
 Alpha virt. eigenvalues --   -0.02526   0.00242   0.07530   0.08666   0.11496
 Alpha virt. eigenvalues --    0.15704   0.19794   0.22843   0.26583   0.27555
 Alpha virt. eigenvalues --    0.33998   0.35966   0.37955   0.40775   0.41386
 Alpha virt. eigenvalues --    0.43185   0.45127   0.48211   0.50088   0.52293
 Alpha virt. eigenvalues --    0.56373   0.60180   0.60702   0.71542   0.74689
 Alpha virt. eigenvalues --    0.89553   0.96019   1.00339   1.03721   1.06457
 Alpha virt. eigenvalues --    1.19736   1.24574   1.30975   1.34617   1.43386
 Alpha virt. eigenvalues --    1.45814   1.46664   1.51014   1.56477   1.62740
 Alpha virt. eigenvalues --    1.64368   1.70725   1.76165   1.77152   1.81917
 Alpha virt. eigenvalues --    1.92002   1.95190   2.00687   2.05143   2.07388
 Alpha virt. eigenvalues --    2.09016   2.13318   2.15233   2.28339   2.33201
 Alpha virt. eigenvalues --    2.33280   2.48335   2.56571   2.61785   2.68279
 Alpha virt. eigenvalues --    2.75010   2.78334   2.81484   2.88906   2.93245
 Alpha virt. eigenvalues --    3.03025   3.13476   3.15880   3.20593   3.21468
 Alpha virt. eigenvalues --    3.26624   3.43709   3.49216   3.61191   3.68743
 Alpha virt. eigenvalues --    3.72920   3.73054   3.94364   3.95638   4.08169
 Alpha virt. eigenvalues --    4.15513   4.26327   4.45394   4.51396   4.59803
 Alpha virt. eigenvalues --    4.62323   4.66606   4.69825   4.71950   4.75750
 Alpha virt. eigenvalues --    4.87321   4.94358   5.01976   5.15021   5.15187
 Alpha virt. eigenvalues --    5.23017   5.56067   5.56794   5.71548   5.92763
 Alpha virt. eigenvalues --    6.09722   6.85475  22.36598  31.64924  32.12748
  Beta  occ. eigenvalues --  -14.43707 -14.29983 -10.19608  -1.04107  -0.80995
  Beta  occ. eigenvalues --   -0.64689  -0.56792  -0.48631  -0.43206  -0.42086
  Beta  occ. eigenvalues --   -0.28417  -0.20163
  Beta virt. eigenvalues --   -0.02526   0.00242   0.07530   0.08666   0.11496
  Beta virt. eigenvalues --    0.15704   0.19794   0.22843   0.26583   0.27555
  Beta virt. eigenvalues --    0.33998   0.35966   0.37955   0.40775   0.41386
  Beta virt. eigenvalues --    0.43185   0.45127   0.48211   0.50088   0.52293
  Beta virt. eigenvalues --    0.56373   0.60180   0.60702   0.71542   0.74689
  Beta virt. eigenvalues --    0.89553   0.96019   1.00339   1.03721   1.06457
  Beta virt. eigenvalues --    1.19736   1.24574   1.30975   1.34617   1.43386
  Beta virt. eigenvalues --    1.45814   1.46664   1.51014   1.56477   1.62740
  Beta virt. eigenvalues --    1.64368   1.70725   1.76165   1.77152   1.81917
  Beta virt. eigenvalues --    1.92002   1.95190   2.00687   2.05143   2.07388
  Beta virt. eigenvalues --    2.09016   2.13318   2.15233   2.28339   2.33201
  Beta virt. eigenvalues --    2.33280   2.48335   2.56571   2.61785   2.68279
  Beta virt. eigenvalues --    2.75010   2.78334   2.81484   2.88906   2.93245
  Beta virt. eigenvalues --    3.03025   3.13476   3.15880   3.20593   3.21468
  Beta virt. eigenvalues --    3.26624   3.43709   3.49216   3.61191   3.68743
  Beta virt. eigenvalues --    3.72920   3.73054   3.94364   3.95638   4.08169
  Beta virt. eigenvalues --    4.15513   4.26327   4.45394   4.51396   4.59803
  Beta virt. eigenvalues --    4.62323   4.66606   4.69825   4.71950   4.75750
  Beta virt. eigenvalues --    4.87321   4.94358   5.01976   5.15021   5.15187
  Beta virt. eigenvalues --    5.23017   5.56067   5.56794   5.71548   5.92763
  Beta virt. eigenvalues --    6.09722   6.85475  22.36598  31.64924  32.12748
          Condensed to atoms (all electrons):
               1          2          3          4          5          6
     1  C    5.154203   0.474193  -0.142418   0.011424   0.398193   0.410145
     2  N    0.474193   5.996329   0.232897  -0.003244  -0.030146  -0.033859
     3  N   -0.142418   0.232897   7.097288   0.252167   0.008614   0.004629
     4  H    0.011424  -0.003244   0.252167   0.597201  -0.001236  -0.001155
     5  H    0.398193  -0.030146   0.008614  -0.001236   0.530810  -0.025618
     6  H    0.410145  -0.033859   0.004629  -0.001155  -0.025618   0.504628
     7  H   -0.068803   0.345305  -0.022292  -0.033322  -0.004673   0.009472
               7
     1  C   -0.068803
     2  N    0.345305
     3  N   -0.022292
     4  H   -0.033322
     5  H   -0.004673
     6  H    0.009472
     7  H    0.558997
          Atomic-Atomic Spin Densities.
               1          2          3          4          5          6
     1  C    0.000000  -0.000000  -0.000000  -0.000000  -0.000000   0.000000
     2  N   -0.000000   0.000000  -0.000000  -0.000000  -0.000000   0.000000
     3  N   -0.000000  -0.000000   0.000000   0.000000  -0.000000  -0.000000
     4  H   -0.000000  -0.000000   0.000000  -0.000000   0.000000   0.000000
     5  H   -0.000000  -0.000000  -0.000000   0.000000  -0.000000   0.000000
     6  H    0.000000   0.000000  -0.000000   0.000000   0.000000  -0.000000
     7  H   -0.000000   0.000000   0.000000  -0.000000   0.000000  -0.000000
               7
     1  C   -0.000000
     2  N    0.000000
     3  N    0.000000
     4  H   -0.000000
     5  H    0.000000
     6  H   -0.000000
     7  H   -0.000000
 Mulliken charges and spin densities:
               1          2
     1  C   -0.236936   0.000000
     2  N    0.018526  -0.000000
     3  N   -0.430884   0.000000
     4  H    0.178165  -0.000000
     5  H    0.124056  -0.000000
     6  H    0.131758   0.000000
     7  H    0.215315  -0.000000
 Sum of Mulliken charges =  -0.00000   0.00000
 Mulliken charges and spin densities with hydrogens summed into heavy atoms:
               1          2
     1  C    0.018878   0.000000
     2  N    0.233841  -0.000000
     3  N   -0.252719   0.000000
 Electronic spatial extent (au):  <R**2>=            598.2334
 Charge=             -0.0000 electrons
 Dipole moment (field-independent basis, Debye):
    X=              0.4039    Y=              0.8107    Z=              3.0135  Tot=              3.1467
 Quadrupole moment (field-independent basis, Debye-Ang):
   XX=            -13.6678   YY=            -21.4438   ZZ=            -22.7827
   XY=              2.3258   XZ=              8.5556   YZ=             -0.4525
 Traceless Quadrupole moment (field-independent basis, Debye-Ang):
   XX=              5.6303   YY=             -2.1457   ZZ=             -3.4846
   XY=              2.3258   XZ=              8.5556   YZ=             -0.4525
 Octapole moment (field-independent basis, Debye-Ang**2):
  XXX=            -88.8273  YYY=             10.9112  ZZZ=             41.3996  XYY=            -45.5975
  XXY=              8.9911  XXZ=             31.6857  XZZ=            -53.1307  YZZ=              5.3998
  YYZ=             12.0469  XYZ=             -2.3920
 Hexadecapole moment (field-independent basis, Debye-Ang**3):
 XXXX=           -476.5478 YYYY=            -30.3300 ZZZZ=           -116.0040 XXXY=             38.2648
 XXXZ=            133.2802 YYYX=             29.9467 YYYZ=            -12.2930 ZZZX=            118.4381
 ZZZY=            -14.1413 XXYY=           -125.2893 XXZZ=           -156.5461 YYZZ=            -23.7855
 XXYZ=             -9.8851 YYXZ=             34.7202 ZZXY=             15.0096
 N-N= 7.338254906404D+01 E-N=-4.963364199664D+02  KE= 1.492792203968D+02
 There are a total of      155656 grid points.
 ElSum from          density=       24.0000006219
 ElSum from atomic densities=       23.9999991513

 Hirshfeld populations at iteration   1 (CX, CA, CB, DipXYZ):
               1          2          3          4          5          6
     1  C    0.000000   3.040721   3.040721  -0.000188  -0.003472  -0.012891
     2  N    0.000000   3.474092   3.474092   0.059532   0.006730   0.023781
     3  N    0.000000   3.635722   3.635722   0.063737   0.079206   0.293839
     4  H    0.000000   0.462904   0.462904   0.186762   0.015184   0.052519
     5  H    0.000000   0.481551   0.481551  -0.071003   0.037943   0.143034
     6  H    0.000000   0.476548   0.476548  -0.099801  -0.034268  -0.125519
     7  H    0.000000   0.428461   0.428461   0.101214   0.042781   0.157240
       Tot   0.000000  12.000000  12.000000   0.240252   0.144104   0.532003

 Dip from Atomic Chgs             -0.081340   0.174869   0.653607
         Total Dipole              0.158912   0.318974   1.185610

 Hirshfeld charges, spin densities, dipoles, and CM5 charges using IRadAn=      5:
              Q-H        S-H        Dx         Dy         Dz        Q-CM5   
     1  C   -0.081441  -0.000000  -0.000188  -0.003472  -0.012891  -0.096785
     2  N    0.051815   0.000000   0.059532   0.006730   0.023781  -0.255453
     3  N   -0.271445   0.000000   0.063737   0.079206   0.293839  -0.477812
     4  H    0.074191  -0.000000   0.186762   0.015184   0.052519   0.276233
     5  H    0.036898   0.000000  -0.071003   0.037943   0.143034   0.099763
     6  H    0.046905  -0.000000  -0.099801  -0.034268  -0.125519   0.112181
     7  H    0.143077  -0.000000   0.101214   0.042781   0.157240   0.341873
       Tot  -0.000001  -0.000000   0.240252   0.144104   0.532003  -0.000001
 Hirshfeld charges and spin densities with hydrogens summed into heavy atoms:
              Q-H        S-H       Q-CM5   
     1  C    0.002361  -0.000000   0.115159
     2  N    0.194892   0.000000   0.086419
     3  N   -0.197254   0.000000  -0.201579
 
 EQQ=-0.266759498885E-29 EQD= 0.277839984531E-16 EDD= 0.710355720432E-02
 EQQ+QD+DD= 0.710355720432E-02
 
          MBS Condensed to atoms (all electrons):
               1          2          3          4          5          6
     1  C    5.021141   0.467261  -0.049054   0.003508   0.393577   0.386151
     2  N    0.467261   6.000250   0.362730  -0.035717  -0.022959  -0.023645
     3  N   -0.049054   0.362730   6.898576   0.313291   0.001387  -0.000118
     4  H    0.003508  -0.035717   0.313291   0.506704  -0.000147  -0.000033
     5  H    0.393577  -0.022959   0.001387  -0.000147   0.535110  -0.019850
     6  H    0.386151  -0.023645  -0.000118  -0.000033  -0.019850   0.518864
[...]
     2    C    1  S      Val( 2S)     0.52094      -0.26929
     3    C    1  S      Ryd( 3S)     0.00150       0.77260
     4    C    1  S      Ryd( 4S)     0.00002       1.71531
     5    C    1  S      Ryd( 5S)     0.00000      20.97673
     6    C    1  px     Val( 2p)     0.43931      -0.06128
     7    C    1  px     Ryd( 3p)     0.00354       0.62756
     8    C    1  px     Ryd( 4p)     0.00018       1.31721
     9    C    1  py     Val( 2p)     0.58489      -0.14092
    10    C    1  py     Ryd( 3p)     0.00494       0.48747
    11    C    1  py     Ryd( 4p)     0.00012       1.28080
    12    C    1  pz     Val( 2p)     0.58887      -0.08623
    13    C    1  pz     Ryd( 3p)     0.00154       1.05179
    14    C    1  pz     Ryd( 4p)     0.00025       1.53253
    15    C    1  dxy    Ryd( 4d)     0.00027       3.14915
    16    C    1  dxy    Ryd( 3d)     0.00002       1.76706
    17    C    1  dxz    Ryd( 4d)     0.00028       3.55015
    18    C    1  dxz    Ryd( 3d)     0.00003       2.13767
    19    C    1  dyz    Ryd( 4d)     0.00008       2.83000
    20    C    1  dyz    Ryd( 3d)     0.00012       1.39764
    21    C    1  dx2y2  Ryd( 4d)     0.00024       3.62265
    22    C    1  dx2y2  Ryd( 3d)     0.00005       1.96377
    23    C    1  dz2    Ryd( 4d)     0.00038       3.17473
    24    C    1  dz2    Ryd( 3d)     0.00008       1.82783
    25    C    1  f(0)   Ryd( 4f)     0.00003       3.28612
    26    C    1  f(C1)  Ryd( 4f)     0.00007       3.92623
    27    C    1  f(S1)  Ryd( 4f)     0.00005       3.06952
    28    C    1  f(C2)  Ryd( 4f)     0.00008       3.42659
    29    C    1  f(S2)  Ryd( 4f)     0.00002       3.27489
    30    C    1  f(C3)  Ryd( 4f)     0.00004       3.36625
    31    C    1  f(S3)  Ryd( 4f)     0.00009       3.32880
 
    32    N    2  S      Cor( 1S)     0.99975     -14.25255
    33    N    2  S      Val( 2S)     0.61172      -0.59599
    34    N    2  S      Ryd( 3S)     0.00275       1.63473
    35    N    2  S      Ryd( 4S)     0.00002       1.78201
    36    N    2  S      Ryd( 5S)     0.00000      30.52395
    37    N    2  px     Val( 2p)     0.65700      -0.28882
    38    N    2  px     Ryd( 3p)     0.00127       0.78569
    39    N    2  px     Ryd( 4p)     0.00017       2.87257
    40    N    2  py     Val( 2p)     0.67856      -0.28504
    41    N    2  py     Ryd( 3p)     0.00042       0.56888
    42    N    2  py     Ryd( 4p)     0.00012       2.05865
    43    N    2  pz     Val( 2p)     0.63897      -0.26907
    44    N    2  pz     Ryd( 3p)     0.00183       0.98765
    45    N    2  pz     Ryd( 4p)     0.00013       2.70737
    46    N    2  dxy    Ryd( 3d)     0.00061       1.65310
    47    N    2  dxy    Ryd( 4d)     0.00004       4.10316
    48    N    2  dxz    Ryd( 3d)     0.00077       1.98950
    49    N    2  dxz    Ryd( 4d)     0.00018       4.66582
    50    N    2  dyz    Ryd( 3d)     0.00058       1.71869
    51    N    2  dyz    Ryd( 4d)     0.00002       4.10035
    52    N    2  dx2y2  Ryd( 3d)     0.00129       2.05387
    53    N    2  dx2y2  Ryd( 4d)     0.00005       4.50821
    54    N    2  dz2    Ryd( 3d)     0.00121       1.91041
    55    N    2  dz2    Ryd( 4d)     0.00004       4.41515
    56    N    2  f(0)   Ryd( 4f)     0.00002       4.66221
    57    N    2  f(C1)  Ryd( 4f)     0.00012       5.23762
    58    N    2  f(S1)  Ryd( 4f)     0.00005       4.45798
    59    N    2  f(C2)  Ryd( 4f)     0.00009       4.67431
    60    N    2  f(S2)  Ryd( 4f)     0.00004       4.54529
    61    N    2  f(C3)  Ryd( 4f)     0.00009       4.58100
    62    N    2  f(S3)  Ryd( 4f)     0.00013       4.42294
 
    63    N    3  S      Cor( 1S)     0.99982     -14.14107
    64    N    3  S      Val( 2S)     0.77075      -0.56756
    65    N    3  S      Ryd( 3S)     0.00285       1.49014
    66    N    3  S      Ryd( 4S)     0.00003       3.90707
    67    N    3  S      Ryd( 5S)     0.00000      29.29008
    68    N    3  px     Val( 2p)     0.59796      -0.12929
    69    N    3  px     Ryd( 3p)     0.00265       0.87446
    70    N    3  px     Ryd( 4p)     0.00007       2.79862
    71    N    3  py     Val( 2p)     0.71747      -0.18267
    72    N    3  py     Ryd( 3p)     0.00279       0.55910
    73    N    3  py     Ryd( 4p)     0.00002       2.08603
    74    N    3  pz     Val( 2p)     0.67790      -0.15904
    75    N    3  pz     Ryd( 3p)     0.00162       0.76546
    76    N    3  pz     Ryd( 4p)     0.00006       2.56911
    77    N    3  dxy    Ryd( 3d)     0.00052       1.29964
    78    N    3  dxy    Ryd( 4d)     0.00005       4.45359
    79    N    3  dxz    Ryd( 3d)     0.00269       1.72880
    80    N    3  dxz    Ryd( 4d)     0.00007       4.88362
    81    N    3  dyz    Ryd( 3d)     0.00213       1.46127
    82    N    3  dyz    Ryd( 4d)     0.00005       4.56928
    83    N    3  dx2y2  Ryd( 3d)     0.00109       1.59084
    84    N    3  dx2y2  Ryd( 4d)     0.00003       4.65692
    85    N    3  dz2    Ryd( 3d)     0.00201       1.59409
    86    N    3  dz2    Ryd( 4d)     0.00007       4.72761
    87    N    3  f(0)   Ryd( 4f)     0.00002       4.74106
    88    N    3  f(C1)  Ryd( 4f)     0.00006       4.76026
    89    N    3  f(S1)  Ryd( 4f)     0.00003       4.40353
    90    N    3  f(C2)  Ryd( 4f)     0.00005       4.67666
    91    N    3  f(S2)  Ryd( 4f)     0.00002       4.47208
    92    N    3  f(C3)  Ryd( 4f)     0.00008       4.54300
    93    N    3  f(S3)  Ryd( 4f)     0.00005       4.25932
 
    94    H    4  S      Val( 1S)     0.34716       0.04591
    95    H    4  S      Ryd( 2S)     0.00062       0.36997
    96    H    4  S      Ryd( 3S)     0.00016       2.09556
    97    H    4  px     Ryd( 2p)     0.00009       2.98705
    98    H    4  py     Ryd( 2p)     0.00019       2.11889
    99    H    4  pz     Ryd( 2p)     0.00010       2.34594
 
   100    H    5  S      Val( 1S)     0.40472      -0.01336
   101    H    5  S      Ryd( 2S)     0.00015       1.06733
   102    H    5  S      Ryd( 3S)     0.00007       1.27020
   103    H    5  px     Ryd( 2p)     0.00012       2.34057
   104    H    5  py     Ryd( 2p)     0.00015       1.98323
   105    H    5  pz     Ryd( 2p)     0.00026       2.69190
 
   106    H    6  S      Val( 1S)     0.39826       0.00402
   107    H    6  S      Ryd( 2S)     0.00061       0.84108
   108    H    6  S      Ryd( 3S)     0.00005       1.51042
   109    H    6  px     Ryd( 2p)     0.00014       2.43968
   110    H    6  py     Ryd( 2p)     0.00007       1.98444
   111    H    6  pz     Ryd( 2p)     0.00024       2.55978
 
   112    H    7  S      Val( 1S)     0.31680      -0.00303
   113    H    7  S      Ryd( 2S)     0.00073       0.72105
   114    H    7  S      Ryd( 3S)     0.00010       1.94941
   115    H    7  px     Ryd( 2p)     0.00012       2.66190
   116    H    7  py     Ryd( 2p)     0.00014       2.11808
   117    H    7  pz     Ryd( 2p)     0.00010       2.88317

 WARNING:  Population inversion found on atom  C    1


 Summary of Natural Population Analysis:                  
                                                          
                                       Natural Population 
                Natural  -----------------------------------------------
    Atom  No    Charge         Core      Valence    Rydberg      Total
 -----------------------------------------------------------------------
      C    1   -0.14777      0.99972     2.13401    0.01404     3.14777
      N    2   -0.09805      0.99975     2.58625    0.01205     3.59805
      N    3   -0.28302      0.99982     2.76408    0.01913     3.78302
      H    4    0.15167      0.00000     0.34716    0.00117     0.34833
      H    5    0.09453      0.00000     0.40472    0.00074     0.40547
      H    6    0.10064      0.00000     0.39826    0.00110     0.39936
      H    7    0.18201      0.00000     0.31680    0.00120     0.31799
 =======================================================================
   * Total *   -0.00000      2.99928     8.95129    0.04943    12.00000

                                 Natural Population      
 --------------------------------------------------------
   Core                       2.99928 ( 99.9762% of   3)
   Valence                    8.95129 ( 99.4588% of   9)
   Natural Minimal Basis     11.95057 ( 99.5881% of  12)
   Natural Rydberg Basis      0.04943 (  0.4119% of  12)
 --------------------------------------------------------

    Atom  No          Natural Electron Configuration
 ----------------------------------------------------------------------------
      C    1      [core]2S( 0.52)2p( 1.61)3p( 0.01)
      N    2      [core]2S( 0.61)2p( 1.97)
      N    3      [core]2S( 0.77)2p( 1.99)3p( 0.01)3d( 0.01)
      H    4            1S( 0.35)
      H    5            1S( 0.40)
      H    6            1S( 0.40)
      H    7            1S( 0.32)


 NBO analysis skipped by request.
 Leave Link  607 at Tue Jan  3 09:04:44 2023, MaxMem=   536870912 cpu:               3.5 elap:               1.8
 (Enter /opt/software/gaussian/g16.c01/l701.exe)
 ... and contract with generalized density number  0.
 Compute integral first derivatives.
 Leave Link  701 at Tue Jan  3 09:04:44 2023, MaxMem=   536870912 cpu:               0.3 elap:               0.2
 (Enter /opt/software/gaussian/g16.c01/l702.exe)
 L702 exits ... SP integral derivatives will be done elsewhere.
 Leave Link  702 at Tue Jan  3 09:04:45 2023, MaxMem=   536870912 cpu:               0.1 elap:               0.0
 (Enter /opt/software/gaussian/g16.c01/l703.exe)
 Integral derivatives from FoFJK, PRISM(SPDF).
 Compute integral first derivatives, UseDBF=F ICtDFT=           0.
 Calling FoFJK, ICntrl=      2127 FMM=F ISym2X=0 I1Cent= 0 IOpClX= 1 NMat=1 NMatS=1 NMatT=0.
 FoFJK:  IHMeth= 1 ICntrl=    2127 DoSepK=F KAlg= 0 I1Cent=           0 FoldK=F
 IRaf=         0 NMat=       1 IRICut=       1 DoRegI=T DoRafI=F ISym2E= 0 IDoP0=0 IntGTp=1.
 FoFCou: FMM=F IPFlag=           0 FMFlag=      100000 FMFlg1=         800
         NFxFlg=           0 DoJE=F BraDBF=F KetDBF=F FulRan=T
         wScrn=  0.000000 ICntrl=      2127 IOpCl=  1 I1Cent=           0 NGrid=           0
         NMat0=    1 NMatS0=      1 NMatT0=    0 NMatD0=    1 NMtDS0=    0 NMtDT0=    0
 Symmetry not used in FoFCou.
 Leave Link  703 at Tue Jan  3 09:04:49 2023, MaxMem=   536870912 cpu:               9.4 elap:               4.7
 (Enter /opt/software/gaussian/g16.c01/l716.exe)
 Dipole        = 1.58915041D-01 3.18972126D-01 1.18560992D+00
 -------------------------------------------------------------------
 Center     Atomic                   Forces (Hartrees/Bohr)
 Number     Number              X              Y              Z
 -------------------------------------------------------------------
      1        6          -0.007771346    0.000327372    0.001404161
      2        7           0.001376697    0.001189474    0.004399455
      3        7           0.003591492   -0.001332265   -0.005047595
      4        1          -0.001039353    0.000157734    0.000610470
      5        1           0.002158792   -0.001581865   -0.005950378
      6        1           0.002975193    0.001494145    0.005500773
      7        1          -0.001291475   -0.000254595   -0.000916885
 -------------------------------------------------------------------
 Cartesian Forces:  Max     0.007771346 RMS     0.003186681
 Z-matrix is all fixed cartesians, so copy forces.
 Force constants in Cartesian coordinates: 
                1             2             3             4             5 
      1  0.979681D+00
      2 -0.379301D-03  0.213865D+00
      3 -0.190645D-01  0.142607D+00  0.707620D+00
      4 -0.643805D+00  0.579070D-02  0.334547D-01  0.112567D+01
      5  0.632347D-02 -0.106234D+00 -0.223587D-01 -0.331382D-01  0.255501D+00
      6  0.354270D-01 -0.223469D-01 -0.184344D+00 -0.143773D+00  0.210309D+00
      7  0.271848D-02  0.887848D-02  0.332925D-01 -0.285848D+00  0.632473D-01
      8  0.405863D-03  0.125485D-01  0.280651D-02  0.556667D-01 -0.952295D-01
      9  0.171151D-02  0.262289D-02  0.215325D-01  0.212339D+00 -0.116800D+00
     10  0.000000D+00 -0.399533D-04  0.107186D-04 -0.760156D-02 -0.133499D-02
     11 -0.399096D-04  0.681015D-02 -0.182702D-02  0.704590D-02  0.450257D-02
     12  0.107071D-04 -0.182705D-02  0.490159D-03  0.265068D-01  0.370720D-02
     13 -0.151899D+00  0.232181D-01  0.887550D-01  0.227506D-02  0.740187D-02
     14  0.222321D-01 -0.700228D-01 -0.649731D-01  0.189247D-03  0.144423D-01
     15  0.850866D-01 -0.649992D-01 -0.296927D+00  0.973426D-03 -0.504849D-03
     16 -0.184388D+00 -0.297881D-01 -0.108208D+00 -0.207961D-02 -0.693893D-02
     17 -0.287722D-01 -0.722180D-01 -0.562752D-01  0.243717D-03  0.170004D-01
     18 -0.104411D+00 -0.562483D-01 -0.264302D+00  0.132579D-02  0.166311D-04
     19 -0.230818D-02 -0.767988D-02 -0.282404D-01 -0.188615D+00 -0.355605D-01
     20  0.229955D-03  0.152509D-01  0.203553D-04 -0.357981D-01 -0.899827D-01
     21  0.124008D-02  0.191593D-03  0.159310D-01 -0.130826D+00 -0.743693D-01
                6             7             8             9            10 
      6  0.986309D+00
      7  0.240594D+00  0.668956D+00
      8 -0.116633D+00 -0.324380D-01  0.846813D-01
      9 -0.504269D+00 -0.134507D+00  0.140554D+00  0.574006D+00
     10 -0.473293D-02 -0.410677D+00 -0.278084D-01 -0.950666D-01  0.418278D+00
     11  0.352379D-02 -0.361895D-01 -0.231711D-01 -0.184397D-01  0.291372D-01
     12  0.167545D-01 -0.126306D+00 -0.186231D-01 -0.846654D-01  0.998012D-01
     13  0.278675D-01  0.000000D+00 -0.447309D-04  0.120004D-04  0.000000D+00
     14 -0.347895D-03 -0.447767D-04  0.764067D-02 -0.204983D-02  0.000000D+00
     15  0.126317D-01  0.120092D-04 -0.204924D-02  0.549768D-03  0.000000D+00
     16 -0.254401D-01  0.000000D+00  0.448748D-04 -0.120390D-04  0.000000D+00
     17 -0.139769D-03  0.448434D-04 -0.765204D-02  0.205288D-02  0.000000D+00
     18  0.170683D-01 -0.120329D-04  0.205329D-02 -0.550853D-03  0.000000D+00
     19 -0.129942D+00  0.248506D-01  0.417370D-02  0.155231D-01  0.000000D+00
     20 -0.743652D-01 -0.349835D-02  0.211822D-01 -0.794026D-02  0.462088D-04
     21 -0.344150D+00 -0.130734D-01 -0.810855D-02 -0.660326D-02 -0.123974D-04
               11            12            13            14            15 
     11  0.197348D-01
     12  0.146298D-01  0.679877D-01
     13  0.000000D+00  0.000000D+00  0.120347D+00
     14  0.000000D+00  0.000000D+00 -0.258292D-01  0.469624D-01
     15  0.000000D+00  0.000000D+00 -0.983283D-01  0.699484D-01  0.291298D+00
     16  0.000000D+00  0.000000D+00  0.292766D-01  0.340314D-02  0.122695D-01
     17  0.000000D+00  0.000000D+00 -0.479540D-02  0.941143D-02 -0.465711D-02
     18  0.000000D+00  0.000000D+00 -0.182930D-01 -0.484049D-02 -0.694563D-02
     19  0.463037D-04 -0.124225D-04  0.000000D+00  0.494397D-04 -0.132598D-04
     20 -0.787642D-02  0.211311D-02  0.493749D-04 -0.843392D-02  0.226199D-02
     21  0.211317D-02 -0.566929D-03 -0.132473D-04  0.226283D-02 -0.606894D-03
               16            17            18            19            20 
     16  0.157191D+00
     17  0.333285D-01  0.450118D-01
     18  0.121377D+00  0.612854D-01  0.254122D+00
     19  0.000000D+00 -0.495133D-04  0.132860D-04  0.166072D+00
     20 -0.495337D-04  0.844647D-02 -0.226646D-02  0.390205D-01  0.614135D-01
     21  0.132899D-04 -0.226619D-02  0.608092D-03  0.142672D+00  0.801764D-01
               21 
     21  0.335388D+00
 Leave Link  716 at Tue Jan  3 09:04:49 2023, MaxMem=   536870912 cpu:               0.1 elap:               0.0
 (Enter /opt/software/gaussian/g16.c01/l103.exe)

 GradGradGradGradGradGradGradGradGradGradGradGradGradGradGradGradGradGrad
 Berny optimization.
 Search for a local minimum.
 Step number   1 out of a maximum of    2
 All quantities printed in internal units (Hartrees-Bohrs-Radians)
 Second derivative matrix not updated -- first step.
 ITU=  0
     Eigenvalues ---    0.02409   0.03062   0.03370   0.05977   0.08903
     Eigenvalues ---    0.11483   0.14278   0.19866   0.30111   0.35087
     Eigenvalues ---    0.61127   0.81664   1.00827   1.49337   1.92763
 Angle between quadratic step and forces=  50.96 degrees.
 Linear search not attempted -- first point.
 B after Tr=     0.000890   -0.000392   -0.001458
         Rot=    1.000000   -0.000000   -0.000072    0.000019 Ang=  -0.01 deg.
 Variable       Old X    -DE/DX   Delta X   Delta X   Delta X     New X
                                 (Linear)    (Quad)   (Total)
    X1        2.02695  -0.00777   0.00000  -0.00429  -0.00344   2.02351
    Y1       -0.13266   0.00033   0.00000   0.00070   0.00023  -0.13243
    Z1       -0.28915   0.00140   0.00000   0.00273   0.00098  -0.28817
    X2        4.49366   0.00138   0.00000  -0.00061   0.00021   4.49387
    Y2       -0.16959   0.00119   0.00000  -0.00099  -0.00155  -0.17114
    Z2       -0.48072   0.00440   0.00000  -0.00365  -0.00576  -0.48648
    X3        5.82670   0.00359   0.00000   0.00774   0.00825   5.83494
    Y3       -0.69631  -0.00133   0.00000  -0.00193  -0.00254  -0.69884
    Z3       -2.47314  -0.00505   0.00000  -0.00738  -0.00968  -2.48282
    X4        7.67994  -0.00104   0.00000  -0.00055   0.00003   7.67997
    Y4       -0.55307   0.00016   0.00000   0.00397   0.00329  -0.54978
    Z4       -1.97975   0.00061   0.00000   0.01479   0.01222  -1.96752
    X5        1.20935   0.00216   0.00000   0.00495   0.00607   1.21543
    Y5        0.34989  -0.00158   0.00000  -0.00336  -0.00380   0.34609
    Z5        1.52789  -0.00595   0.00000  -0.01277  -0.01440   1.51349
    X6        0.91282   0.00298   0.00000  -0.00406  -0.00347   0.90935
    Y6       -0.58578   0.00149   0.00000   0.00627   0.00585  -0.57993
    Z6       -1.95346   0.00550   0.00000   0.02349   0.02190  -1.93155
    X7        5.41879  -0.00129   0.00000  -0.00871  -0.00765   5.41114
    Y7        0.27567  -0.00025   0.00000  -0.00088  -0.00148   0.27420
    Z7        1.15865  -0.00092   0.00000  -0.00302  -0.00526   1.15339
         Item               Value     Threshold  Converged?
 Maximum Force            0.007771     0.000450     NO 
 RMS     Force            0.003187     0.000300     NO 
 Maximum Displacement     0.021904     0.001800     NO 
 RMS     Displacement     0.007715     0.001200     NO 
 Predicted change in Energy=-1.649546D-04
 GradGradGradGradGradGradGradGradGradGradGradGradGradGradGradGradGradGrad

 Leave Link  103 at Tue Jan  3 09:04:49 2023, MaxMem=   536870912 cpu:               0.0 elap:               0.0
 (Enter /opt/software/gaussian/g16.c01/l9999.exe)
 Unable to Open any file for archive entry.
 1\1\GINC-GRA704\Force\UB3LYP\Gen\C1H4N2\BHAVUK\03-Jan-2023\0\\#p ub3ly
 p/chkbasis force guess=read geom=check scf=(maxcycle=900,verytightline
 q,xqc) integral=grid=ultrafine symmetry=None density=current pop=(cm5,
 hlygat,mbs,npa) output=wfx\\0001_q000_m01_k00_opt_uwb97xd_def2svpd/000
 1_q000_m01_k00_force_ub3lyp_def2tzvp stable-force\\0,1\C,1.0726168695,
 -0.0701991232,-0.153012633\N,2.3779437514,-0.0897456927,-0.2543854931\
 N,3.0833554789,-0.3684697824,-1.3087287982\H,4.0640493508,-0.292669743
 4,-1.0476368317\H,0.6399628731,0.1851542916,0.8085260928\H,0.483043836
 4,-0.3099796861,-1.0337247999\H,2.8674978397,0.1458797364,0.6131324666
 \\Version=ES64L-G16RevC.01\HF=-149.9925213\S2=0.\S2-1=0.\S2A=0.\RMSD=2
 .844e-09\RMSF=3.187e-03\Dipole=0.158915,0.3189721,1.1856099\Quadrupole
 =4.1859665,-1.5952396,-2.5907269,1.7291915,6.3608864,-0.3364194\PG=Unk
 nown\\@
 The archive entry for this job was punched.

 Writing a WFNX file to "0001_q000_m01_k00_force_ub3lyp_def2tzvp.wfx"


 COMMON SENSE IS NOT SO COMMON.   -- VOLTAIRE
 Job cpu time:       0 days  0 hours  0 minutes 21.6 seconds.
 Elapsed time:       0 days  0 hours  0 minutes 10.6 seconds.
 File lengths (MBytes):  RWF=     15 Int=      0 D2E=      0 Chk=      3 Scr=      1
 Normal termination of Gaussian 16 at Tue Jan  3 09:04:49 2023.
