 Entering Gaussian System, Link 0=g16
 Input=0001_q000_m01_k00_force_uwb97xd_def2svp.com
 Output=0001_q000_m01_k00_force_uwb97xd_def2svp.log
 Initial command:
 /opt/software/gaussian/g16.c01/l1.exe "/localscratch/bhavuk.2151347.0/Gau-16559.inp" -scrdir="/localscratch/bhavuk.2151347.0/"
 Entering Link 1 = /opt/software/gaussian/g16.c01/l1.exe PID=     16561.
  
 Copyright (c) 1988-2019, Gaussian, Inc.  All Rights Reserved.
  
 This is part of the Gaussian(R) 16 program.  It is based on
 the Gaussian(R) 09 system (copyright 2009, Gaussian, Inc.),
 the Gaussian(R) 03 system (copyright 2003, Gaussian, Inc.),
 the Gaussian(R) 98 system (copyright 1998, Gaussian, Inc.),
 the Gaussian(R) 94 system (copyright 1995, Gaussian, Inc.),
 the Gaussian 92(TM) system (copyright 1992, Gaussian, Inc.),
 the Gaussian 90(TM) system (copyright 1990, Gaussian, Inc.),
 the Gaussian 88(TM) system (copyright 1988, Gaussian, Inc.),
 the Gaussian 86(TM) system (copyright 1986, Carnegie Mellon
 University), and the Gaussian 82(TM) system (copyright 1983,
 Carnegie Mellon University). Gaussian is a federally registered
 trademark of Gaussian, Inc.
  
 This software contains proprietary and confidential information,
 including trade secrets, belonging to Gaussian, Inc.
  
 This software is provided under written license and may be
 used, copied, transmitted, or stored only in accord with that
 written license.
  
 The following legend is applicable only to US Government
 contracts under FAR:
  
                    RESTRICTED RIGHTS LEGEND
  
 Use, reproduction and disclosure by the US Government is
 subject to restrictions as set forth in subparagraphs (a)
 and (c) of the Commercial Computer Software - Restricted
 Rights clause in FAR 52.227-19.
  
 Gaussian, Inc.
 340 Quinnipiac St., Bldg. 40, Wallingford CT 06492
  
  
 ---------------------------------------------------------------
 Warning -- This program may not be used in any manner that
 competes with the business of Gaussian, Inc. or will provide
 assistance to any competitor of Gaussian, Inc.  The licensee
 of this program is prohibited from giving any competitor of
 Gaussian, Inc. access to this program.  By using this program,
 the user acknowledges that Gaussian, Inc. is engaged in the
 business of creating and licensing software in the field of
 computational chemistry and represents and warrants to the
 licensee that it is not a competitor of Gaussian, Inc. and that
 it will not use this program in any manner prohibited above.
 ---------------------------------------------------------------
  

 Cite this work as:
 Gaussian 16, Revision C.01,
 M. J. Frisch, G. W. Trucks, H. B. Schlegel, G. E. Scuseria, 
 M. A. Robb, J. R. Cheeseman, G. Scalmani, V. Barone, 
 G. A. Petersson, H. Nakatsuji, X. Li, M. Caricato, A. V. Marenich, 
 J. Bloino, B. G. Janesko, R. Gomperts, B. Mennucci, H. P. Hratchian, 
 J. V. Ortiz, A. F. Izmaylov, J. L. Sonnenberg, D. Williams-Young, 
 F. Ding, F. Lipparini, F. Egidi, J. Goings, B. Peng, A. Petrone, 
 T. Henderson, D. Ranasinghe, V. G. Zakrzewski, J. Gao, N. Rega, 
 G. Zheng, W. Liang, M. Hada, M. Ehara, K. Toyota, R. Fukuda, 
 J. Hasegawa, M. Ishida, T. Nakajima, Y. Honda, O. Kitao, H. Nakai, 
 T. Vreven, K. Throssell, J. A. Montgomery, Jr., J. E. Peralta, 
 F. Ogliaro, M. J. Bearpark, J. J. Heyd, E. N. Brothers, K. N. Kudin, 
 V. N. Staroverov, T. A. Keith, R. Kobayashi, J. Normand, 
 K. Raghavachari, A. P. Rendell, J. C. Burant, S. S. Iyengar, 
 J. Tomasi, M. Cossi, J. M. Millam, M. Klene, C. Adamo, R. Cammi, 
 J. W. Ochterski, R. L. Martin, K. Morokuma, O. Farkas, 
 J. B. Foresman, and D. J. Fox, Gaussian, Inc., Wallingford CT, 2019.
 
 ******************************************
 Gaussian 16:  ES64L-G16RevC.01  3-Jul-2019
                 3-Jan-2023 
 ******************************************
 %chk=0001_q000_m01_k00_force_uwb97xd_def2svp.chk
 %nprocshared=2
 Will use up to    2 processors via shared memory.
 %mem=4GB
 ----------------------------------------------------------------------
 #p uwb97xd/gen stable=opt scf=(maxcycle=900,verytightlineq,xqc) integr
 al=grid=ultrafine symmetry=None density=current iop(99/18=-1) output=w
 fn
 ----------------------------------------------------------------------
 1/38=1,172=1/1;
 2/12=2,15=3,17=6,18=5,40=1/2;
 3/5=7,11=2,25=1,30=1,74=-58,75=-5,116=2/1,2,3;
 4//1;
 5/5=2,7=900,8=3,13=1,17=3,38=5/2,8;
 6/7=2,8=2,9=2,10=2,22=-1,28=1/1;
 8/6=1,10=90,11=11/1;
 9/8=-3,42=1,46=1/14;
 5/5=2,7=900,8=3,17=43,38=5/8(-2);
 6/7=2,8=2,9=2,10=2,22=-1,28=1/1;
 99/5=1,6=100,9=1,18=-1/99;
 Leave Link    1 at Tue Jan  3 09:03:53 2023, MaxMem=   536870912 cpu:               0.1 elap:               0.1
 (Enter /opt/software/gaussian/g16.c01/l101.exe)
 ----------------------------------------------------------------------
 0001_q000_m01_k00_opt_uwb97xd_def2svpd/0001_q000_m01_k00_force_uwb97xd
 _def2svp stable-force
 ----------------------------------------------------------------------
 Symbolic Z-matrix:
 Charge =  0 Multiplicity = 1
 C                     1.07262  -0.0702   -0.15301 
 N                     2.37794  -0.08975  -0.25439 
 N                     3.08336  -0.36847  -1.30873 
 H                     4.06405  -0.29267  -1.04764 
 H                     0.63996   0.18515   0.80853 
 H                     0.48304  -0.30998  -1.03372 
 H                     2.8675    0.14588   0.61313 
 
 ITRead=  0  0  0  0  0  0  0
 MicOpt= -1 -1 -1 -1 -1 -1 -1
 NAtoms=      7 NQM=        7 NQMF=       0 NMMI=      0 NMMIF=      0
                NMic=       0 NMicF=      0.
                    Isotopes and Nuclear Properties:
 (Nuclear quadrupole moments (NQMom) in fm**2, nuclear magnetic moments (NMagM)
  in nuclear magnetons)

  Atom         1           2           3           4           5           6           7
 IAtWgt=          12          14          14           1           1           1           1
 AtmWgt=  12.0000000  14.0030740  14.0030740   1.0078250   1.0078250   1.0078250   1.0078250
 NucSpn=           0           2           2           1           1           1           1
 AtZEff=  -0.0000000  -0.0000000  -0.0000000  -0.0000000  -0.0000000  -0.0000000  -0.0000000
 NQMom=    0.0000000   2.0440000   2.0440000   0.0000000   0.0000000   0.0000000   0.0000000
 NMagM=    0.0000000   0.4037610   0.4037610   2.7928460   2.7928460   2.7928460   2.7928460
 AtZNuc=   6.0000000   7.0000000   7.0000000   1.0000000   1.0000000   1.0000000   1.0000000
 Leave Link  101 at Tue Jan  3 09:03:53 2023, MaxMem=   536870912 cpu:               0.5 elap:               0.3
 (Enter /opt/software/gaussian/g16.c01/l202.exe)
                          Input orientation:                          
 ---------------------------------------------------------------------
 Center     Atomic      Atomic             Coordinates (Angstroms)
 Number     Number       Type             X           Y           Z
 ---------------------------------------------------------------------
      1          6           0        1.072617   -0.070199   -0.153013
      2          7           0        2.377944   -0.089746   -0.254385
      3          7           0        3.083355   -0.368470   -1.308729
      4          1           0        4.064049   -0.292670   -1.047637
      5          1           0        0.639963    0.185154    0.808526
      6          1           0        0.483044   -0.309980   -1.033725
      7          1           0        2.867498    0.145880    0.613132
 ---------------------------------------------------------------------
                    Distance matrix (angstroms):
                    1          2          3          4          5
     1  C    0.000000
     2  N    1.309403   0.000000
     3  N    2.338315   1.298820   0.000000
     4  H    3.130258   1.874401   1.017681   0.000000
     5  H    1.084874   2.055706   3.280158   3.924032   0.000000
     6  H    1.086621   2.060708   2.615467   3.581074   1.914071
     7  H    1.963483   1.023606   2.001175   2.093374   2.236433
                    6          7
     6  H    0.000000
     7  H    2.933525   0.000000
 Symmetry turned off by external request.
 Stoichiometry    CH4N2
 Rotational constants (GHZ):          71.2642239          11.2793619           9.7380671
 Leave Link  202 at Tue Jan  3 09:03:53 2023, MaxMem=   536870912 cpu:               0.0 elap:               0.0
 (Enter /opt/software/gaussian/g16.c01/l301.exe)
 General basis read from cards:  (5D, 7F)
 Centers:       4      5      6      7
 S 3 1.00
     Exponent=  1.3010701000D+01 Coefficients=  1.9682158000D-02
     Exponent=  1.9622572000D+00 Coefficients=  1.3796524000D-01
     Exponent=  4.4453796000D-01 Coefficients=  4.7831935000D-01
 S 1 1.00
     Exponent=  1.2194962000D-01 Coefficients=  1.0000000000D+00
 P 1 1.00
     Exponent=  8.0000000000D-01 Coefficients=  1.0000000000D+00
 ****
 Centers:       1
 S 5 1.00
     Exponent=  1.2384016938D+03 Coefficients=  5.4568832082D-03
     Exponent=  1.8629004992D+02 Coefficients=  4.0638409211D-02
     Exponent=  4.2251176346D+01 Coefficients=  1.8025593888D-01
     Exponent=  1.1676557932D+01 Coefficients=  4.6315121755D-01
     Exponent=  3.5930506482D+00 Coefficients=  4.4087173314D-01
 S 1 1.00
     Exponent=  4.0245147363D-01 Coefficients=  1.0000000000D+00
 S 1 1.00
     Exponent=  1.3090182668D-01 Coefficients=  1.0000000000D+00
 P 3 1.00
     Exponent=  9.4680970621D+00 Coefficients=  3.8387871728D-02
     Exponent=  2.0103545142D+00 Coefficients=  2.1117025112D-01
     Exponent=  5.4771004707D-01 Coefficients=  5.1328172114D-01
 P 1 1.00
     Exponent=  1.5268613795D-01 Coefficients=  1.0000000000D+00
 D 1 1.00
     Exponent=  8.0000000000D-01 Coefficients=  1.0000000000D+00
 ****
 Centers:       2      3
 S 5 1.00
     Exponent=  1.7128415853D+03 Coefficients= -5.3934125305D-03
     Exponent=  2.5764812677D+02 Coefficients= -4.0221581118D-02
     Exponent=  5.8458245853D+01 Coefficients= -1.7931144990D-01
     Exponent=  1.6198367905D+01 Coefficients= -4.6376317823D-01
     Exponent=  5.0052600809D+00 Coefficients= -4.4171422662D-01
 S 1 1.00
     Exponent=  5.8731856571D-01 Coefficients=  1.0000000000D+00
 S 1 1.00
     Exponent=  1.8764592253D-01 Coefficients=  1.0000000000D+00
 P 3 1.00
     Exponent=  1.3571470233D+01 Coefficients= -4.0072398852D-02
     Exponent=  2.9257372874D+00 Coefficients= -2.1807045028D-01
     Exponent=  7.9927750754D-01 Coefficients= -5.1294466049D-01
 P 1 1.00
     Exponent=  2.1954348034D-01 Coefficients=  1.0000000000D+00
 D 1 1.00
     Exponent=  1.0000000000D+00 Coefficients=  1.0000000000D+00
 ****
 Ernie: Thresh=  0.10000D-02 Tol=  0.10000D-05 Strict=F.
    62 basis functions,   103 primitive gaussians,    65 cartesian basis functions
    12 alpha electrons       12 beta electrons
       nuclear repulsion energy        73.3825490640 Hartrees.
 IExCor= 4639 DFT=T Ex+Corr=wB97XD ExCW=0 ScaHFX=  1.000000
 ScaDFX=  1.000000  1.000000  1.000000  1.000000 ScalE2=  1.000000  1.000000
 IRadAn=      5 IRanWt=     -1 IRanGd=            0 ICorTp=0 IEmpDi=121
 HFx  wShort=  0.000000 wLong=  0.200000 cFull=  0.222036 cShort=  0.000000 cLong=  0.777964
 DFx  wShort=  0.000000 wLong=  0.200000 cFull=  0.000000 cShort=  0.000000 cLong=  1.000000
 NAtoms=    7 NActive=    7 NUniq=    7 SFac= 1.00D+00 NAtFMM=   60 NAOKFM=F Big=F
 Integral buffers will be    131072 words long.
 Raffenetti 2 integral format.
 Two-electron integral symmetry is turned off.
 R6Disp:  Grimme-D2 Dispersion energy=       -0.0012232174 Hartrees.
 Nuclear repulsion after empirical dispersion term =       73.3813258467 Hartrees.
 Leave Link  301 at Tue Jan  3 09:03:53 2023, MaxMem=   536870912 cpu:               0.2 elap:               0.1
 (Enter /opt/software/gaussian/g16.c01/l302.exe)
 NPDir=0 NMtPBC=     1 NCelOv=     1 NCel=       1 NClECP=     1 NCelD=      1
         NCelK=      1 NCelE2=     1 NClLst=     1 CellRange=     0.0.
 One-electron integrals computed using PRISM.
 NBasis=    62 RedAO= T EigKep=  5.91D-03  NBF=    62
 NBsUse=    62 1.00D-06 EigRej= -1.00D+00 NBFU=    62
 Precomputing XC quadrature grid using
 IXCGrd= 4 IRadAn=           5 IRanWt=          -1 IRanGd=           0 AccXCQ= 0.00D+00.
 Generated NRdTot=       0 NPtTot=           0 NUsed=           0 NTot=          32
 NSgBfM=    65    65    65    65    65 MxSgAt=     7 MxSgA2=     7.
 Leave Link  302 at Tue Jan  3 09:03:53 2023, MaxMem=   536870912 cpu:               0.4 elap:               0.2
 (Enter /opt/software/gaussian/g16.c01/l303.exe)
 DipDrv:  MaxL=1.
 Leave Link  303 at Tue Jan  3 09:03:53 2023, MaxMem=   536870912 cpu:               0.1 elap:               0.0
 (Enter /opt/software/gaussian/g16.c01/l401.exe)
 ExpMin= 1.22D-01 ExpMax= 1.71D+03 ExpMxC= 2.58D+02 IAcc=3 IRadAn=         5 AccDes= 0.00D+00
 Harris functional with IExCor= 4639 and IRadAn=       5 diagonalized for initial guess.
 HarFok:  IExCor= 4639 AccDes= 0.00D+00 IRadAn=         5 IDoV= 1 UseB2=F ITyADJ=14
 ICtDFT=  3500011 ScaDFX=  1.000000  1.000000  1.000000  1.000000
 FoFCou: FMM=F IPFlag=           0 FMFlag=      100000 FMFlg1=           0
         NFxFlg=           0 DoJE=T BraDBF=F KetDBF=T FulRan=T
         wScrn=  0.000000 ICntrl=       500 IOpCl=  0 I1Cent=   200000004 NGrid=           0
         NMat0=    1 NMatS0=      1 NMatT0=    0 NMatD0=    1 NMtDS0=    0 NMtDT0=    0
 Symmetry not used in FoFCou.
 Harris En= -143.419170102274    
 JPrj=0 DoOrth=F DoCkMO=F.
 Initial guess <Sx>= 0.0000 <Sy>= 0.0000 <Sz>= 0.0000 <S**2>= 0.0000 S= 0.0000
 Leave Link  401 at Tue Jan  3 09:03:54 2023, MaxMem=   536870912 cpu:               1.2 elap:               0.6
 (Enter /opt/software/gaussian/g16.c01/l502.exe)
 Keep R1 and R2 ints in memory in canonical form, NReq=9536613.
 FoFCou: FMM=F IPFlag=           0 FMFlag=           0 FMFlg1=           0
         NFxFlg=           0 DoJE=F BraDBF=F KetDBF=F FulRan=T
         wScrn=  0.000000 ICntrl=       600 IOpCl=  0 I1Cent=           0 NGrid=           0
         NMat0=    1 NMatS0=   1953 NMatT0=    0 NMatD0=    1 NMtDS0=    0 NMtDT0=    0
 Symmetry not used in FoFCou.
 Two-electron integral symmetry not used.
 UHF open shell SCF:
 Using DIIS extrapolation, IDIIS=  1040.
 NGot=   536870912 LenX=   529228893 LenY=   529224227
 Requested convergence on RMS density matrix=1.00D-08 within 128 cycles.
 Requested convergence on MAX density matrix=1.00D-06.
 Requested convergence on             energy=1.00D-06.
 No special actions if energy rises.
 Integral accuracy reduced to 1.0D-05 until final iterations.

 Cycle   1  Pass 0  IDiag  1:
 E= -149.681933513514    
 DIIS: error= 3.58D-02 at cycle   1 NSaved=   1.
 NSaved= 1 IEnMin= 1 EnMin= -149.681933513514     IErMin= 1 ErrMin= 3.58D-02
 ErrMax= 3.58D-02  0.00D+00 EMaxC= 1.00D-01 BMatC= 4.88D-01 BMatP= 4.88D-01
 IDIUse=3 WtCom= 6.42D-01 WtEn= 3.58D-01
 Coeff-Com:  0.100D+01
 Coeff-En:   0.100D+01
 Coeff:      0.100D+01
 Gap=     0.269 Goal=   None    Shift=    0.000
 Gap=     0.269 Goal=   None    Shift=    0.000
 GapD=    0.269 DampG=1.000 DampE=0.500 DampFc=0.5000 IDamp=-1.
 Damping current iteration by 5.00D-01
 RMSDP=6.96D-03 MaxDP=1.40D-01              OVMax= 1.83D-01

 Cycle   2  Pass 0  IDiag  1:
 E= -149.715683563691     Delta-E=       -0.033750050177 Rises=F Damp=T
 DIIS: error= 1.47D-02 at cycle   2 NSaved=   2.
 NSaved= 2 IEnMin= 2 EnMin= -149.715683563691     IErMin= 2 ErrMin= 1.47D-02
 ErrMax= 1.47D-02  0.00D+00 EMaxC= 1.00D-01 BMatC= 5.46D-02 BMatP= 4.88D-01
 IDIUse=3 WtCom= 8.53D-01 WtEn= 1.47D-01
 Coeff-Com: -0.424D-01 0.104D+01
 Coeff-En:   0.748D-01 0.925D+00
 Coeff:     -0.252D-01 0.103D+01
 Gap=     0.316 Goal=   None    Shift=    0.000
 Gap=     0.316 Goal=   None    Shift=    0.000
 RMSDP=1.95D-03 MaxDP=2.35D-02 DE=-3.38D-02 OVMax= 1.08D-01

 Cycle   3  Pass 0  IDiag  1:
 E= -149.755217742975     Delta-E=       -0.039534179284 Rises=F Damp=F
 DIIS: error= 6.15D-03 at cycle   3 NSaved=   3.
 NSaved= 3 IEnMin= 3 EnMin= -149.755217742975     IErMin= 3 ErrMin= 6.15D-03
 ErrMax= 6.15D-03  0.00D+00 EMaxC= 1.00D-01 BMatC= 1.16D-02 BMatP= 5.46D-02
 IDIUse=3 WtCom= 9.38D-01 WtEn= 6.15D-02
 Coeff-Com: -0.114D+00 0.291D+00 0.823D+00
 Coeff-En:   0.000D+00 0.000D+00 0.100D+01
 Coeff:     -0.107D+00 0.273D+00 0.834D+00
 Gap=     0.329 Goal=   None    Shift=    0.000
 Gap=     0.329 Goal=   None    Shift=    0.000
 RMSDP=1.11D-03 MaxDP=1.99D-02 DE=-3.95D-02 OVMax= 4.14D-02

 Cycle   4  Pass 0  IDiag  1:
 E= -149.756883043485     Delta-E=       -0.001665300510 Rises=F Damp=F
 DIIS: error= 3.89D-03 at cycle   4 NSaved=   4.
 NSaved= 4 IEnMin= 4 EnMin= -149.756883043485     IErMin= 4 ErrMin= 3.89D-03
 ErrMax= 3.89D-03  0.00D+00 EMaxC= 1.00D-01 BMatC= 4.74D-03 BMatP= 1.16D-02
 IDIUse=3 WtCom= 9.61D-01 WtEn= 3.89D-02
 Coeff-Com: -0.635D-01 0.127D+00 0.502D+00 0.435D+00
 Coeff-En:   0.000D+00 0.000D+00 0.271D+00 0.729D+00
 Coeff:     -0.610D-01 0.122D+00 0.493D+00 0.447D+00
 Gap=     0.326 Goal=   None    Shift=    0.000
 Gap=     0.326 Goal=   None    Shift=    0.000
 RMSDP=4.92D-04 MaxDP=9.33D-03 DE=-1.67D-03 OVMax= 1.69D-02

 Cycle   5  Pass 0  IDiag  1:
 E= -149.757963048453     Delta-E=       -0.001080004969 Rises=F Damp=F
 DIIS: error= 2.75D-04 at cycle   5 NSaved=   5.
 NSaved= 5 IEnMin= 5 EnMin= -149.757963048453     IErMin= 5 ErrMin= 2.75D-04
 ErrMax= 2.75D-04  0.00D+00 EMaxC= 1.00D-01 BMatC= 3.31D-05 BMatP= 4.74D-03
 IDIUse=3 WtCom= 9.97D-01 WtEn= 2.75D-03
 Coeff-Com: -0.405D-02 0.447D-02 0.537D-01 0.101D+00 0.845D+00
 Coeff-En:   0.000D+00 0.000D+00 0.000D+00 0.000D+00 0.100D+01
 Coeff:     -0.404D-02 0.446D-02 0.536D-01 0.100D+00 0.846D+00
 Gap=     0.327 Goal=   None    Shift=    0.000
 Gap=     0.327 Goal=   None    Shift=    0.000
 RMSDP=5.12D-05 MaxDP=8.62D-04 DE=-1.08D-03 OVMax= 1.13D-03

 Cycle   6  Pass 0  IDiag  1:
 E= -149.757970794162     Delta-E=       -0.000007745709 Rises=F Damp=F
 DIIS: error= 4.79D-05 at cycle   6 NSaved=   6.
 NSaved= 6 IEnMin= 6 EnMin= -149.757970794162     IErMin= 6 ErrMin= 4.79D-05
 ErrMax= 4.79D-05  0.00D+00 EMaxC= 1.00D-01 BMatC= 9.11D-07 BMatP= 3.31D-05
 IDIUse=1 WtCom= 1.00D+00 WtEn= 0.00D+00
 Coeff-Com:  0.402D-02-0.782D-02-0.242D-01-0.226D-01 0.282D-02 0.105D+01
 Coeff:      0.402D-02-0.782D-02-0.242D-01-0.226D-01 0.282D-02 0.105D+01
 Gap=     0.327 Goal=   None    Shift=    0.000
 Gap=     0.327 Goal=   None    Shift=    0.000
 RMSDP=2.14D-05 MaxDP=4.66D-04 DE=-7.75D-06 OVMax= 3.70D-04

 Cycle   7  Pass 0  IDiag  1:
 E= -149.757971179808     Delta-E=       -0.000000385646 Rises=F Damp=F
 DIIS: error= 1.53D-05 at cycle   7 NSaved=   7.
 NSaved= 7 IEnMin= 7 EnMin= -149.757971179808     IErMin= 7 ErrMin= 1.53D-05
 ErrMax= 1.53D-05  0.00D+00 EMaxC= 1.00D-01 BMatC= 1.03D-07 BMatP= 9.11D-07
 IDIUse=1 WtCom= 1.00D+00 WtEn= 0.00D+00
 Coeff-Com:  0.139D-02-0.271D-02-0.826D-02-0.102D-01-0.267D-01 0.280D+00
 Coeff-Com:  0.767D+00
 Coeff:      0.139D-02-0.271D-02-0.826D-02-0.102D-01-0.267D-01 0.280D+00
 Coeff:      0.767D+00
 Gap=     0.327 Goal=   None    Shift=    0.000
 Gap=     0.327 Goal=   None    Shift=    0.000
 RMSDP=4.13D-06 MaxDP=6.86D-05 DE=-3.86D-07 OVMax= 7.34D-05

 Initial convergence to 1.0D-05 achieved.  Increase integral accuracy.
 Cycle   8  Pass 1  IDiag  1:
 E= -149.757974638646     Delta-E=       -0.000003458838 Rises=F Damp=F
 DIIS: error= 1.84D-05 at cycle   1 NSaved=   1.
 NSaved= 1 IEnMin= 1 EnMin= -149.757974638646     IErMin= 1 ErrMin= 1.84D-05
 ErrMax= 1.84D-05  0.00D+00 EMaxC= 1.00D-01 BMatC= 1.17D-07 BMatP= 1.17D-07
 IDIUse=1 WtCom= 1.00D+00 WtEn= 0.00D+00
 Coeff-Com:  0.100D+01
 Coeff:      0.100D+01
 Gap=     0.327 Goal=   None    Shift=    0.000
 Gap=     0.327 Goal=   None    Shift=    0.000
 RMSDP=4.13D-06 MaxDP=6.86D-05 DE=-3.46D-06 OVMax= 4.55D-05

 Cycle   9  Pass 1  IDiag  1:
 E= -149.757974667942     Delta-E=       -0.000000029296 Rises=F Damp=F
 DIIS: error= 5.11D-06 at cycle   2 NSaved=   2.
 NSaved= 2 IEnMin= 2 EnMin= -149.757974667942     IErMin= 2 ErrMin= 5.11D-06
 ErrMax= 5.11D-06  0.00D+00 EMaxC= 1.00D-01 BMatC= 7.36D-09 BMatP= 1.17D-07
 IDIUse=1 WtCom= 1.00D+00 WtEn= 0.00D+00
 Coeff-Com:  0.198D-01 0.980D+00
 Coeff:      0.198D-01 0.980D+00
 Gap=     0.327 Goal=   None    Shift=    0.000
 Gap=     0.327 Goal=   None    Shift=    0.000
 RMSDP=1.18D-06 MaxDP=2.39D-05 DE=-2.93D-08 OVMax= 4.02D-05

 Cycle  10  Pass 1  IDiag  1:
 E= -149.757974668372     Delta-E=       -0.000000000430 Rises=F Damp=F
 DIIS: error= 5.13D-06 at cycle   3 NSaved=   3.
 NSaved= 3 IEnMin= 3 EnMin= -149.757974668372     IErMin= 2 ErrMin= 5.11D-06
 ErrMax= 5.13D-06  0.00D+00 EMaxC= 1.00D-01 BMatC= 8.36D-09 BMatP= 7.36D-09
 IDIUse=1 WtCom= 1.00D+00 WtEn= 0.00D+00
 Coeff-Com: -0.526D-01 0.540D+00 0.513D+00
 Coeff:     -0.526D-01 0.540D+00 0.513D+00
 Gap=     0.327 Goal=   None    Shift=    0.000
 Gap=     0.327 Goal=   None    Shift=    0.000
 RMSDP=7.92D-07 MaxDP=1.62D-05 DE=-4.30D-10 OVMax= 2.40D-05

 Cycle  11  Pass 1  IDiag  1:
 E= -149.757974670199     Delta-E=       -0.000000001827 Rises=F Damp=F
 DIIS: error= 1.28D-06 at cycle   4 NSaved=   4.
 NSaved= 4 IEnMin= 4 EnMin= -149.757974670199     IErMin= 4 ErrMin= 1.28D-06
 ErrMax= 1.28D-06  0.00D+00 EMaxC= 1.00D-01 BMatC= 3.77D-10 BMatP= 7.36D-09
 IDIUse=1 WtCom= 1.00D+00 WtEn= 0.00D+00
 Coeff-Com: -0.207D-01 0.985D-01 0.202D+00 0.721D+00
 Coeff:     -0.207D-01 0.985D-01 0.202D+00 0.721D+00
 Gap=     0.327 Goal=   None    Shift=    0.000
 Gap=     0.327 Goal=   None    Shift=    0.000
 RMSDP=2.07D-07 MaxDP=3.64D-06 DE=-1.83D-09 OVMax= 7.16D-06

 Cycle  12  Pass 1  IDiag  1:
 E= -149.757974670313     Delta-E=       -0.000000000113 Rises=F Damp=F
 DIIS: error= 3.14D-07 at cycle   5 NSaved=   5.
 NSaved= 5 IEnMin= 5 EnMin= -149.757974670313     IErMin= 5 ErrMin= 3.14D-07
 ErrMax= 3.14D-07  0.00D+00 EMaxC= 1.00D-01 BMatC= 3.67D-11 BMatP= 3.77D-10
 IDIUse=1 WtCom= 1.00D+00 WtEn= 0.00D+00
 Coeff-Com:  0.104D-02-0.409D-01-0.200D-01 0.213D+00 0.847D+00
 Coeff:      0.104D-02-0.409D-01-0.200D-01 0.213D+00 0.847D+00
 Gap=     0.327 Goal=   None    Shift=    0.000
 Gap=     0.327 Goal=   None    Shift=    0.000
 RMSDP=1.04D-07 MaxDP=2.07D-06 DE=-1.13D-10 OVMax= 1.67D-06

 Cycle  13  Pass 1  IDiag  1:
 E= -149.757974670326     Delta-E=       -0.000000000013 Rises=F Damp=F
 DIIS: error= 9.72D-08 at cycle   6 NSaved=   6.
 NSaved= 6 IEnMin= 6 EnMin= -149.757974670326     IErMin= 6 ErrMin= 9.72D-08
 ErrMax= 9.72D-08  0.00D+00 EMaxC= 1.00D-01 BMatC= 2.62D-12 BMatP= 3.67D-11
 IDIUse=1 WtCom= 1.00D+00 WtEn= 0.00D+00
 Coeff-Com:  0.222D-02-0.197D-01-0.278D-01-0.532D-02 0.191D+00 0.860D+00
 Coeff:      0.222D-02-0.197D-01-0.278D-01-0.532D-02 0.191D+00 0.860D+00
 Gap=     0.327 Goal=   None    Shift=    0.000
 Gap=     0.327 Goal=   None    Shift=    0.000
 RMSDP=3.73D-08 MaxDP=7.60D-07 DE=-1.33D-11 OVMax= 6.07D-07

 Cycle  14  Pass 1  IDiag  1:
 E= -149.757974670327     Delta-E=       -0.000000000001 Rises=F Damp=F
 DIIS: error= 5.32D-08 at cycle   7 NSaved=   7.
 NSaved= 7 IEnMin= 7 EnMin= -149.757974670327     IErMin= 7 ErrMin= 5.32D-08
 ErrMax= 5.32D-08  0.00D+00 EMaxC= 1.00D-01 BMatC= 6.62D-13 BMatP= 2.62D-12
 IDIUse=1 WtCom= 1.00D+00 WtEn= 0.00D+00
 Coeff-Com:  0.824D-03-0.356D-02-0.101D-01-0.235D-01-0.193D-01 0.380D+00
 Coeff-Com:  0.676D+00
 Coeff:      0.824D-03-0.356D-02-0.101D-01-0.235D-01-0.193D-01 0.380D+00
 Coeff:      0.676D+00
 Gap=     0.327 Goal=   None    Shift=    0.000
 Gap=     0.327 Goal=   None    Shift=    0.000
 RMSDP=1.21D-08 MaxDP=2.76D-07 DE=-1.36D-12 OVMax= 1.97D-07

 Cycle  15  Pass 1  IDiag  1:
 E= -149.757974670327     Delta-E=       -0.000000000000 Rises=F Damp=F
 DIIS: error= 1.15D-08 at cycle   8 NSaved=   8.
 NSaved= 8 IEnMin= 8 EnMin= -149.757974670327     IErMin= 8 ErrMin= 1.15D-08
 ErrMax= 1.15D-08  0.00D+00 EMaxC= 1.00D-01 BMatC= 3.75D-14 BMatP= 6.62D-13
 IDIUse=1 WtCom= 1.00D+00 WtEn= 0.00D+00
 Coeff-Com: -0.170D-03 0.237D-02 0.176D-02-0.275D-02-0.364D-01-0.537D-01
 Coeff-Com:  0.133D+00 0.956D+00
 Coeff:     -0.170D-03 0.237D-02 0.176D-02-0.275D-02-0.364D-01-0.537D-01
 Coeff:      0.133D+00 0.956D+00
 Gap=     0.327 Goal=   None    Shift=    0.000
 Gap=     0.327 Goal=   None    Shift=    0.000
 RMSDP=5.09D-09 MaxDP=8.72D-08 DE=-5.68D-14 OVMax= 8.18D-08

 SCF Done:  E(UwB97XD) =  -149.757974670     A.U. after   15 cycles
            NFock= 15  Conv=0.51D-08     -V/T= 2.0094
 <Sx>= 0.0000 <Sy>= 0.0000 <Sz>= 0.0000 <S**2>= 0.0000 S= 0.0000
 <L.S>=  0.00000000000    
 KE= 1.483585242381D+02 PE=-4.952292699407D+02 EE= 1.237314451856D+02
 Annihilation of the first spin contaminant:
 S**2 before annihilation     0.0000,   after     0.0000
 Leave Link  502 at Tue Jan  3 09:04:00 2023, MaxMem=   536870912 cpu:              12.2 elap:               6.1
 (Enter /opt/software/gaussian/g16.c01/l508.exe)
 QCSCF skips out because SCF is already converged.
 Leave Link  508 at Tue Jan  3 09:04:00 2023, MaxMem=   536870912 cpu:               0.0 elap:               0.0
 (Enter /opt/software/gaussian/g16.c01/l601.exe)
 Copying SCF densities to generalized density rwf, IOpCl= 1 IROHF=0.

 **********************************************************************

            Population analysis using the SCF Density.

 **********************************************************************

 Alpha  occ. eigenvalues --  -14.56547 -14.41683 -10.31445  -1.12697  -0.89391
 Alpha  occ. eigenvalues --   -0.73023  -0.64714  -0.56430  -0.51554  -0.49570
 Alpha  occ. eigenvalues --   -0.35174  -0.26383
 Alpha virt. eigenvalues --    0.06297   0.10790   0.18678   0.20350   0.22597
 Alpha virt. eigenvalues --    0.32753   0.42198   0.51789   0.56036   0.58600
 Alpha virt. eigenvalues --    0.60366   0.66954   0.73081   0.76076   0.76866
 Alpha virt. eigenvalues --    0.83135   0.86067   0.89243   0.90922   1.02887
 Alpha virt. eigenvalues --    1.05199   1.14057   1.26565   1.34745   1.36052
 Alpha virt. eigenvalues --    1.47225   1.59576   1.59627   1.73324   1.74257
 Alpha virt. eigenvalues --    1.90172   1.96309   2.04236   2.08676   2.11244
 Alpha virt. eigenvalues --    2.19541   2.26070   2.33373   2.41347   2.53575
 Alpha virt. eigenvalues --    2.54394   2.64226   2.79478   2.95485   2.97790
 Alpha virt. eigenvalues --    3.01745   3.16670   3.25977   3.45975   3.68867
  Beta  occ. eigenvalues --  -14.56547 -14.41683 -10.31445  -1.12697  -0.89391
  Beta  occ. eigenvalues --   -0.73023  -0.64714  -0.56430  -0.51554  -0.49570
  Beta  occ. eigenvalues --   -0.35174  -0.26383
  Beta virt. eigenvalues --    0.06297   0.10790   0.18678   0.20350   0.22597
  Beta virt. eigenvalues --    0.32753   0.42198   0.51789   0.56036   0.58600
  Beta virt. eigenvalues --    0.60366   0.66954   0.73081   0.76076   0.76866
  Beta virt. eigenvalues --    0.83135   0.86067   0.89243   0.90922   1.02887
  Beta virt. eigenvalues --    1.05199   1.14057   1.26565   1.34745   1.36052
  Beta virt. eigenvalues --    1.47225   1.59576   1.59627   1.73324   1.74257
  Beta virt. eigenvalues --    1.90172   1.96309   2.04236   2.08676   2.11244
  Beta virt. eigenvalues --    2.19541   2.26070   2.33373   2.41347   2.53575
  Beta virt. eigenvalues --    2.54394   2.64226   2.79478   2.95485   2.97790
  Beta virt. eigenvalues --    3.01745   3.16670   3.25977   3.45975   3.68867
          Condensed to atoms (all electrons):
               1          2          3          4          5          6
     1  C    4.943174   0.528844  -0.111058   0.008400   0.397488   0.397206
     2  N    0.528844   5.884770   0.265998  -0.005478  -0.020651  -0.017465
     3  N   -0.111058   0.265998   6.820959   0.296195   0.005970   0.007290
     4  H    0.008400  -0.005478   0.296195   0.633382  -0.000784  -0.000769
     5  H    0.397488  -0.020651   0.005970  -0.000784   0.600480  -0.032122
     6  H    0.397206  -0.017465   0.007290  -0.000769  -0.032122   0.563521
     7  H   -0.041957   0.341412  -0.011651  -0.024937  -0.007986   0.008476
               7
     1  C   -0.041957
     2  N    0.341412
     3  N   -0.011651
     4  H   -0.024937
     5  H   -0.007986
     6  H    0.008476
     7  H    0.588872
          Atomic-Atomic Spin Densities.
               1          2          3          4          5          6
     1  C    0.000000   0.000000   0.000000   0.000000   0.000000   0.000000
     2  N    0.000000   0.000000   0.000000   0.000000   0.000000   0.000000
     3  N    0.000000   0.000000   0.000000   0.000000   0.000000   0.000000
     4  H    0.000000   0.000000   0.000000   0.000000   0.000000   0.000000
     5  H    0.000000   0.000000   0.000000   0.000000   0.000000   0.000000
     6  H    0.000000   0.000000   0.000000   0.000000   0.000000   0.000000
     7  H    0.000000   0.000000   0.000000   0.000000   0.000000   0.000000
               7
     1  C    0.000000
     2  N    0.000000
     3  N    0.000000
     4  H    0.000000
     5  H    0.000000
     6  H    0.000000
     7  H    0.000000
 Mulliken charges and spin densities:
               1          2
     1  C   -0.122097   0.000000
     2  N    0.022570   0.000000
     3  N   -0.273704   0.000000
     4  H    0.093991   0.000000
     5  H    0.057606   0.000000
     6  H    0.073862   0.000000
     7  H    0.147772   0.000000
 Sum of Mulliken charges =   0.00000   0.00000
 Mulliken charges and spin densities with hydrogens summed into heavy atoms:
               1          2
     1  C    0.009371   0.000000
     2  N    0.170342   0.000000
     3  N   -0.179713   0.000000
 Electronic spatial extent (au):  <R**2>=            596.4432
 Charge=              0.0000 electrons
 Dipole moment (field-independent basis, Debye):
    X=              0.5902    Y=              0.8355    Z=              3.1018  Tot=              3.2661
 Quadrupole moment (field-independent basis, Debye-Ang):
   XX=            -12.5298   YY=            -20.6078   ZZ=            -22.3490
   XY=              2.3381   XZ=              8.6202   YZ=             -0.5720
 Traceless Quadrupole moment (field-independent basis, Debye-Ang):
   XX=              5.9657   YY=             -2.1123   ZZ=             -3.8535
   XY=              2.3381   XZ=              8.6202   YZ=             -0.5720
 Octapole moment (field-independent basis, Debye-Ang**2):
  XXX=            -83.5739  YYY=             10.4147  ZZZ=             40.1239  XYY=            -43.6364
  XXY=              8.8412  XXZ=             31.2506  XZZ=            -51.9351  YZZ=              5.3491
  YYZ=             11.5227  XYZ=             -2.6151
 Hexadecapole moment (field-independent basis, Debye-Ang**3):
 XXXX=           -451.5762 YYYY=            -25.9345 ZZZZ=           -109.2178 XXXY=             37.1132
 XXXZ=            129.5824 YYYX=             28.2900 YYYZ=            -11.7400 ZZZX=            114.3662
 ZZZY=            -13.9496 XXYY=           -118.6155 XXZZ=           -151.8533 YYZZ=            -21.7865
 XXYZ=            -10.4385 YYXZ=             32.8993 ZZXY=             14.9406
 N-N= 7.338132584667D+01 E-N=-4.952292700442D+02  KE= 1.483585242381D+02
                          Isotropic Fermi Contact Couplings
        Atom                 a.u.       MegaHertz       Gauss      10(-4) cm-1
     1  C(13)              0.00000       0.00000       0.00000       0.00000
     2  N(14)              0.00000       0.00000       0.00000       0.00000
     3  N(14)              0.00000       0.00000       0.00000       0.00000
     4  H(1)               0.00000       0.00000       0.00000       0.00000
     5  H(1)               0.00000       0.00000       0.00000       0.00000
     6  H(1)               0.00000       0.00000       0.00000       0.00000
     7  H(1)               0.00000       0.00000       0.00000       0.00000
 --------------------------------------------------------
       Center         ----  Spin Dipole Couplings  ----
                      3XX-RR        3YY-RR        3ZZ-RR
 --------------------------------------------------------
     1   Atom        0.000000      0.000000      0.000000
     2   Atom        0.000000      0.000000      0.000000
     3   Atom        0.000000      0.000000      0.000000
     4   Atom        0.000000      0.000000      0.000000
     5   Atom        0.000000      0.000000      0.000000
     6   Atom        0.000000      0.000000      0.000000
     7   Atom        0.000000      0.000000      0.000000
 --------------------------------------------------------
                        XY            XZ            YZ
 --------------------------------------------------------
     1   Atom        0.000000      0.000000      0.000000
     2   Atom        0.000000      0.000000      0.000000
     3   Atom        0.000000      0.000000      0.000000
     4   Atom        0.000000      0.000000      0.000000
     5   Atom        0.000000      0.000000      0.000000
     6   Atom        0.000000      0.000000      0.000000
     7   Atom        0.000000      0.000000      0.000000
 --------------------------------------------------------


 ---------------------------------------------------------------------------------
              Anisotropic Spin Dipole Couplings in Principal Axis System
 ---------------------------------------------------------------------------------

       Atom             a.u.   MegaHertz   Gauss  10(-4) cm-1        Axes

              Baa     0.0000     0.000     0.000     0.000  1.0000  0.0000  0.0000
     1 C(13)  Bbb     0.0000     0.000     0.000     0.000 -0.0000  1.0000  0.0000
              Bcc     0.0000     0.000     0.000     0.000  0.0000  0.0000  1.0000
 
              Baa     0.0000     0.000     0.000     0.000  1.0000  0.0000  0.0000
     2 N(14)  Bbb     0.0000     0.000     0.000     0.000 -0.0000  1.0000  0.0000
              Bcc     0.0000     0.000     0.000     0.000  0.0000  0.0000  1.0000
 
              Baa     0.0000     0.000     0.000     0.000  1.0000  0.0000  0.0000
     3 N(14)  Bbb     0.0000     0.000     0.000     0.000 -0.0000  1.0000  0.0000
              Bcc     0.0000     0.000     0.000     0.000  0.0000  0.0000  1.0000
 
              Baa     0.0000     0.000     0.000     0.000  1.0000  0.0000  0.0000
     4 H(1)   Bbb     0.0000     0.000     0.000     0.000 -0.0000  1.0000  0.0000
              Bcc     0.0000     0.000     0.000     0.000  0.0000  0.0000  1.0000
 
              Baa     0.0000     0.000     0.000     0.000  1.0000  0.0000  0.0000
     5 H(1)   Bbb     0.0000     0.000     0.000     0.000 -0.0000  1.0000  0.0000
              Bcc     0.0000     0.000     0.000     0.000  0.0000  0.0000  1.0000
 
              Baa     0.0000     0.000     0.000     0.000  1.0000  0.0000  0.0000
     6 H(1)   Bbb     0.0000     0.000     0.000     0.000 -0.0000  1.0000  0.0000
              Bcc     0.0000     0.000     0.000     0.000  0.0000  0.0000  1.0000
 
              Baa     0.0000     0.000     0.000     0.000  1.0000  0.0000  0.0000
     7 H(1)   Bbb     0.0000     0.000     0.000     0.000 -0.0000  1.0000  0.0000
              Bcc     0.0000     0.000     0.000     0.000  0.0000  0.0000  1.0000
 

 ---------------------------------------------------------------------------------

 No NMR shielding tensors so no spin-rotation constants.
 Leave Link  601 at Tue Jan  3 09:04:00 2023, MaxMem=   536870912 cpu:               0.3 elap:               0.1
 (Enter /opt/software/gaussian/g16.c01/l801.exe)
 DoSCS=F DFT=T ScalE2(SS,OS)=  1.000000  1.000000
 Range of M.O.s used for correlation:     1    62
 NBasis=    62 NAE=    12 NBE=    12 NFC=     0 NFV=     0
 NROrb=     62 NOA=    12 NOB=    12 NVA=    50 NVB=    50
 Leave Link  801 at Tue Jan  3 09:04:00 2023, MaxMem=   536870912 cpu:               0.1 elap:               0.0
 (Enter /opt/software/gaussian/g16.c01/l914.exe)
 UHF ground state
 Doing stability rather than CIS.
 Keep R1 and R2 ints in memory in canonical form, NReq=10160999.
 FoFCou: FMM=F IPFlag=           0 FMFlag=           0 FMFlg1=           0
         NFxFlg=           0 DoJE=F BraDBF=F KetDBF=F FulRan=T
         wScrn=  0.000000 ICntrl=       600 IOpCl=  0 I1Cent=           0 NGrid=           0
         NMat0=    1 NMatS0=   1953 NMatT0=    0 NMatD0=    1 NMtDS0=    0 NMtDT0=    0
 Symmetry not used in FoFCou.
 Two-electron integral symmetry not used.
 MDV=   536870912 DFT=T DoStab=T Mixed=T DoRPA=F DoScal=F NonHer=F
 Making orbital integer symmetry assigments:
    12 initial guesses have been made.
 Convergence on wavefunction:    0.001000000000000
 Davidson Disk Diagonalization:  ConvIn= 1.00D-03 SkipCon=T Conv= 1.00D-03.
 Max sub-space:  2000 roots to seek:    12 dimension of matrix:         1200
 Iteration     1 Dimension    12 NMult     0 NNew     12
 CISAX will form    12 AO SS matrices at one time.
 NMat=    12 NSing=    12 JSym2X= 0.
 New state      1 was old state      2
 Excitation Energies [eV] at current iteration:
 Root      1 :     0.737243354014874
 Root      2 :     4.758042786700499
 Root      3 :     5.150481075601157
 Root      4 :     5.217822100693817
 Root      5 :     6.308461718198182
 Root      6 :     7.268879529387747
 Root      7 :     7.313922714565538
 Root      8 :     7.568019871897786
 Root      9 :     7.766756199400763
 Root     10 :     7.915941510365681
 Root     11 :     8.231606740520943
 Root     12 :    13.493361974367483
 Iteration     2 Dimension    24 NMult    12 NNew     12
 CISAX will form    12 AO SS matrices at one time.
 NMat=    12 NSing=    12 JSym2X= 0.
 Root      1 not converged, maximum delta is    0.057722111105400
 Excitation Energies [eV] at current iteration:
 Root      1 :     0.432966909921611   Change is   -0.304276444093263
 Root      2 :     4.585282015260855   Change is   -0.172760771439644
 Root      3 :     5.057735554342996   Change is   -0.092745521258161
 Root      4 :     5.169538044900144   Change is   -0.048284055793673
 Root      5 :     6.063194768611893   Change is   -0.245266949586289
 Root      6 :     6.921184809706776   Change is   -0.392737904858763
 Root      7 :     7.004073239082929   Change is   -0.264806290304819
 Root      8 :     7.298962879569697   Change is   -0.269056992328088
 Root      9 :     7.409476758302747   Change is   -0.506464752062934
 Root     10 :     7.618305096091039   Change is   -0.148451103309724
 Root     11 :     8.030800086229215   Change is   -0.200806654291729
 Root     12 :     8.099212938749531   Change is   -5.394149035617951
 Iteration     3 Dimension    27 NMult    24 NNew      3
 CISAX will form     3 AO SS matrices at one time.
 NMat=     3 NSing=     3 JSym2X= 0.
 Root      1 not converged, maximum delta is    0.005304459845257
 Excitation Energies [eV] at current iteration:
 Root      1 :     0.424970517507855   Change is   -0.007996392413756
 Root      2 :     4.579869469088742   Change is   -0.005412546172114
 Root      3 :     5.054766814722620   Change is   -0.002968739620377
 Iteration     4 Dimension    30 NMult    27 NNew      3
 CISAX will form     3 AO SS matrices at one time.
 NMat=     3 NSing=     3 JSym2X= 0.
 Root      1 not converged, maximum delta is    0.002621308482430
 Excitation Energies [eV] at current iteration:
 Root      1 :     0.424567005592461   Change is   -0.000403511915393
 Root      2 :     4.579286664172958   Change is   -0.000582804915784
 Root      3 :     5.054550890425268   Change is   -0.000215924297353
 Iteration     5 Dimension    33 NMult    30 NNew      3
 CISAX will form     3 AO SS matrices at one time.
 NMat=     3 NSing=     3 JSym2X= 0.
 Root      1 has converged.
 Excitation Energies [eV] at current iteration:
 Root      1 :     0.424543578230965   Change is   -0.000023427361496
 Root      2 :     4.579253660931006   Change is   -0.000033003241952
 Root      3 :     5.054544981946567   Change is   -0.000005908478700
 Convergence achieved on expansion vectors.
 ***********************************************************************
 Stability analysis using <AA,BB:AA,BB> singles matrix:
 ***********************************************************************
 1PDM for each excited state written to RWF  633
 Ground to excited state transition densities written to RWF  633

 Eigenvectors of the stability matrix:
 
 Excited state symmetry could not be determined.
 Eigenvector   1:  3.000-?Sym  Eigenvalue= 0.0156017  <S**2>=2.000
     12A -> 13A        0.70101
     12B -> 13B       -0.70101
 The wavefunction is stable under the perturbations considered.
 Leave Link  914 at Tue Jan  3 09:04:19 2023, MaxMem=   536870912 cpu:              38.4 elap:              19.2
 (Enter /opt/software/gaussian/g16.c01/l508.exe)
 The wavefunction is already stable.
 Leave Link  508 at Tue Jan  3 09:04:19 2023, MaxMem=   536870912 cpu:               0.0 elap:               0.0
 (Enter /opt/software/gaussian/g16.c01/l601.exe)
 Copying SCF densities to generalized density rwf, IOpCl= 1 IROHF=0.

 **********************************************************************

            Population analysis using the SCF Density.

 **********************************************************************

 Alpha  occ. eigenvalues --  -14.56547 -14.41683 -10.31445  -1.12697  -0.89391
 Alpha  occ. eigenvalues --   -0.73023  -0.64714  -0.56430  -0.51554  -0.49570
 Alpha  occ. eigenvalues --   -0.35174  -0.26383
 Alpha virt. eigenvalues --    0.06297   0.10790   0.18678   0.20350   0.22597
 Alpha virt. eigenvalues --    0.32753   0.42198   0.51789   0.56036   0.58600
 Alpha virt. eigenvalues --    0.60366   0.66954   0.73081   0.76076   0.76866
 Alpha virt. eigenvalues --    0.83135   0.86067   0.89243   0.90922   1.02887
 Alpha virt. eigenvalues --    1.05199   1.14057   1.26565   1.34745   1.36052
 Alpha virt. eigenvalues --    1.47225   1.59576   1.59627   1.73324   1.74257
 Alpha virt. eigenvalues --    1.90172   1.96309   2.04236   2.08676   2.11244
 Alpha virt. eigenvalues --    2.19541   2.26070   2.33373   2.41347   2.53575
 Alpha virt. eigenvalues --    2.54394   2.64226   2.79478   2.95485   2.97790
 Alpha virt. eigenvalues --    3.01745   3.16670   3.25977   3.45975   3.68867
  Beta  occ. eigenvalues --  -14.56547 -14.41683 -10.31445  -1.12697  -0.89391
  Beta  occ. eigenvalues --   -0.73023  -0.64714  -0.56430  -0.51554  -0.49570
  Beta  occ. eigenvalues --   -0.35174  -0.26383
  Beta virt. eigenvalues --    0.06297   0.10790   0.18678   0.20350   0.22597
  Beta virt. eigenvalues --    0.32753   0.42198   0.51789   0.56036   0.58600
  Beta virt. eigenvalues --    0.60366   0.66954   0.73081   0.76076   0.76866
  Beta virt. eigenvalues --    0.83135   0.86067   0.89243   0.90922   1.02887
  Beta virt. eigenvalues --    1.05199   1.14057   1.26565   1.34745   1.36052
  Beta virt. eigenvalues --    1.47225   1.59576   1.59627   1.73324   1.74257
  Beta virt. eigenvalues --    1.90172   1.96309   2.04236   2.08676   2.11244
  Beta virt. eigenvalues --    2.19541   2.26070   2.33373   2.41347   2.53575
  Beta virt. eigenvalues --    2.54394   2.64226   2.79478   2.95485   2.97790
  Beta virt. eigenvalues --    3.01745   3.16670   3.25977   3.45975   3.68867
          Condensed to atoms (all electrons):
               1          2          3          4          5          6
     1  C    4.943174   0.528844  -0.111058   0.008400   0.397488   0.397206
     2  N    0.528844   5.884770   0.265998  -0.005478  -0.020651  -0.017465
     3  N   -0.111058   0.265998   6.820959   0.296195   0.005970   0.007290
     4  H    0.008400  -0.005478   0.296195   0.633382  -0.000784  -0.000769
     5  H    0.397488  -0.020651   0.005970  -0.000784   0.600480  -0.032122
     6  H    0.397206  -0.017465   0.007290  -0.000769  -0.032122   0.563521
     7  H   -0.041957   0.341412  -0.011651  -0.024937  -0.007986   0.008476
               7
     1  C   -0.041957
     2  N    0.341412
     3  N   -0.011651
     4  H   -0.024937
     5  H   -0.007986
     6  H    0.008476
     7  H    0.588872
          Atomic-Atomic Spin Densities.
               1          2          3          4          5          6
     1  C    0.000000   0.000000   0.000000   0.000000   0.000000   0.000000
     2  N    0.000000   0.000000   0.000000   0.000000   0.000000   0.000000
     3  N    0.000000   0.000000   0.000000   0.000000   0.000000   0.000000
     4  H    0.000000   0.000000   0.000000   0.000000   0.000000   0.000000
     5  H    0.000000   0.000000   0.000000   0.000000   0.000000   0.000000
     6  H    0.000000   0.000000   0.000000   0.000000   0.000000   0.000000
     7  H    0.000000   0.000000   0.000000   0.000000   0.000000   0.000000
               7
     1  C    0.000000
     2  N    0.000000
     3  N    0.000000
     4  H    0.000000
     5  H    0.000000
     6  H    0.000000
     7  H    0.000000
 Mulliken charges and spin densities:
               1          2
     1  C   -0.122097   0.000000
     2  N    0.022570   0.000000
     3  N   -0.273704   0.000000
     4  H    0.093991   0.000000
     5  H    0.057606   0.000000
     6  H    0.073862   0.000000
     7  H    0.147772   0.000000
 Sum of Mulliken charges =   0.00000   0.00000
 Mulliken charges and spin densities with hydrogens summed into heavy atoms:
               1          2
     1  C    0.009371   0.000000
     2  N    0.170342   0.000000
     3  N   -0.179713   0.000000
 Electronic spatial extent (au):  <R**2>=            596.4432
 Charge=              0.0000 electrons
 Dipole moment (field-independent basis, Debye):
    X=              0.5902    Y=              0.8355    Z=              3.1018  Tot=              3.2661
 Quadrupole moment (field-independent basis, Debye-Ang):
   XX=            -12.5298   YY=            -20.6078   ZZ=            -22.3490
   XY=              2.3381   XZ=              8.6202   YZ=             -0.5720
 Traceless Quadrupole moment (field-independent basis, Debye-Ang):
   XX=              5.9657   YY=             -2.1123   ZZ=             -3.8535
   XY=              2.3381   XZ=              8.6202   YZ=             -0.5720
 Octapole moment (field-independent basis, Debye-Ang**2):
  XXX=            -83.5739  YYY=             10.4147  ZZZ=             40.1239  XYY=            -43.6364
  XXY=              8.8412  XXZ=             31.2506  XZZ=            -51.9351  YZZ=              5.3491
  YYZ=             11.5227  XYZ=             -2.6151
 Hexadecapole moment (field-independent basis, Debye-Ang**3):
 XXXX=           -451.5762 YYYY=            -25.9345 ZZZZ=           -109.2178 XXXY=             37.1132
 XXXZ=            129.5824 YYYX=             28.2900 YYYZ=            -11.7400 ZZZX=            114.3662
 ZZZY=            -13.9496 XXYY=           -118.6155 XXZZ=           -151.8533 YYZZ=            -21.7865
 XXYZ=            -10.4385 YYXZ=             32.8993 ZZXY=             14.9406
 N-N= 7.338132584667D+01 E-N=-4.952292700442D+02  KE= 1.483585242381D+02
                          Isotropic Fermi Contact Couplings
        Atom                 a.u.       MegaHertz       Gauss      10(-4) cm-1
     1  C(13)              0.00000       0.00000       0.00000       0.00000
     2  N(14)              0.00000       0.00000       0.00000       0.00000
     3  N(14)              0.00000       0.00000       0.00000       0.00000
     4  H(1)               0.00000       0.00000       0.00000       0.00000
     5  H(1)               0.00000       0.00000       0.00000       0.00000
     6  H(1)               0.00000       0.00000       0.00000       0.00000
     7  H(1)               0.00000       0.00000       0.00000       0.00000
 --------------------------------------------------------
       Center         ----  Spin Dipole Couplings  ----
                      3XX-RR        3YY-RR        3ZZ-RR
 --------------------------------------------------------
     1   Atom        0.000000      0.000000      0.000000
     2   Atom        0.000000      0.000000      0.000000
     3   Atom        0.000000      0.000000      0.000000
     4   Atom        0.000000      0.000000      0.000000
     5   Atom        0.000000      0.000000      0.000000
     6   Atom        0.000000      0.000000      0.000000
     7   Atom        0.000000      0.000000      0.000000
 --------------------------------------------------------
                        XY            XZ            YZ
 --------------------------------------------------------
     1   Atom        0.000000      0.000000      0.000000
     2   Atom        0.000000      0.000000      0.000000
     3   Atom        0.000000      0.000000      0.000000
     4   Atom        0.000000      0.000000      0.000000
     5   Atom        0.000000      0.000000      0.000000
     6   Atom        0.000000      0.000000      0.000000
     7   Atom        0.000000      0.000000      0.000000
 --------------------------------------------------------


 ---------------------------------------------------------------------------------
              Anisotropic Spin Dipole Couplings in Principal Axis System
 ---------------------------------------------------------------------------------

       Atom             a.u.   MegaHertz   Gauss  10(-4) cm-1        Axes

              Baa     0.0000     0.000     0.000     0.000  1.0000  0.0000  0.0000
     1 C(13)  Bbb     0.0000     0.000     0.000     0.000 -0.0000  1.0000  0.0000
              Bcc     0.0000     0.000     0.000     0.000  0.0000  0.0000  1.0000
 
              Baa     0.0000     0.000     0.000     0.000  1.0000  0.0000  0.0000
     2 N(14)  Bbb     0.0000     0.000     0.000     0.000 -0.0000  1.0000  0.0000
              Bcc     0.0000     0.000     0.000     0.000  0.0000  0.0000  1.0000
 
              Baa     0.0000     0.000     0.000     0.000  1.0000  0.0000  0.0000
     3 N(14)  Bbb     0.0000     0.000     0.000     0.000 -0.0000  1.0000  0.0000
              Bcc     0.0000     0.000     0.000     0.000  0.0000  0.0000  1.0000
 
              Baa     0.0000     0.000     0.000     0.000  1.0000  0.0000  0.0000
     4 H(1)   Bbb     0.0000     0.000     0.000     0.000 -0.0000  1.0000  0.0000
              Bcc     0.0000     0.000     0.000     0.000  0.0000  0.0000  1.0000
 
              Baa     0.0000     0.000     0.000     0.000  1.0000  0.0000  0.0000
     5 H(1)   Bbb     0.0000     0.000     0.000     0.000 -0.0000  1.0000  0.0000
              Bcc     0.0000     0.000     0.000     0.000  0.0000  0.0000  1.0000
 
              Baa     0.0000     0.000     0.000     0.000  1.0000  0.0000  0.0000
     6 H(1)   Bbb     0.0000     0.000     0.000     0.000 -0.0000  1.0000  0.0000
              Bcc     0.0000     0.000     0.000     0.000  0.0000  0.0000  1.0000
 
              Baa     0.0000     0.000     0.000     0.000  1.0000  0.0000  0.0000
     7 H(1)   Bbb     0.0000     0.000     0.000     0.000 -0.0000  1.0000  0.0000
              Bcc     0.0000     0.000     0.000     0.000  0.0000  0.0000  1.0000
 

 ---------------------------------------------------------------------------------

 No NMR shielding tensors so no spin-rotation constants.
 Leave Link  601 at Tue Jan  3 09:04:20 2023, MaxMem=   536870912 cpu:               0.3 elap:               0.1
 (Enter /opt/software/gaussian/g16.c01/l9999.exe)

 Test job not archived.
 1\1\GINC-GRA738\Stability\UwB97XD\Gen\C1H4N2\BHAVUK\03-Jan-2023\0\\#p 
 uwb97xd/gen stable=opt scf=(maxcycle=900,verytightlineq,xqc) integral=
 grid=ultrafine symmetry=None density=current iop(99/18=-1) output=wfn\
 \0001_q000_m01_k00_opt_uwb97xd_def2svpd/0001_q000_m01_k00_force_uwb97x
 d_def2svp stable-force\\0,1\C,0,1.0726168695,-0.0701991232,-0.15301263
 3\N,0,2.3779437514,-0.0897456927,-0.2543854931\N,0,3.0833554789,-0.368
 4697824,-1.3087287982\H,0,4.0640493508,-0.2926697434,-1.0476368317\H,0
 ,0.6399628731,0.1851542916,0.8085260928\H,0,0.4830438364,-0.3099796861
 ,-1.0337247999\H,0,2.8674978397,0.1458797364,0.6131324666\\Version=ES6
 4L-G16RevC.01\HF=-149.7579747\S2=0.\S2-1=0.\S2A=0.\RMSD=5.086e-09\Dipo
 le=0.2321938,0.3287212,1.2203428\Quadrupole=4.4353835,-1.5704151,-2.86
 49684,1.7383338,6.4088758,-0.4252571\PG=Unknown\\@

 Writing a WFN file to "0001_q000_m01_k00_force_uwb97xd_def2svp.wfn"


 Time has a wonderful way of weeding out the trivial.
                                -- Richard Ben Sapir
 Job cpu time:       0 days  0 hours  0 minutes 54.1 seconds.
 Elapsed time:       0 days  0 hours  0 minutes 27.0 seconds.
 File lengths (MBytes):  RWF=     49 Int=      0 D2E=      0 Chk=      2 Scr=      1
 Normal termination of Gaussian 16 at Tue Jan  3 09:04:20 2023.
 Initial command:
 /opt/software/gaussian/g16.c01/l1.exe "/localscratch/bhavuk.2151347.0/Gau-16559.inp" -scrdir="/localscratch/bhavuk.2151347.0/"
 Entering Link 1 = /opt/software/gaussian/g16.c01/l1.exe PID=     17833.
  
 Copyright (c) 1988-2019, Gaussian, Inc.  All Rights Reserved.
  
 This is part of the Gaussian(R) 16 program.  It is based on
 the Gaussian(R) 09 system (copyright 2009, Gaussian, Inc.),
 the Gaussian(R) 03 system (copyright 2003, Gaussian, Inc.),
 the Gaussian(R) 98 system (copyright 1998, Gaussian, Inc.),
 the Gaussian(R) 94 system (copyright 1995, Gaussian, Inc.),
 the Gaussian 92(TM) system (copyright 1992, Gaussian, Inc.),
 the Gaussian 90(TM) system (copyright 1990, Gaussian, Inc.),
 the Gaussian 88(TM) system (copyright 1988, Gaussian, Inc.),
 the Gaussian 86(TM) system (copyright 1986, Carnegie Mellon
 University), and the Gaussian 82(TM) system (copyright 1983,
 Carnegie Mellon University). Gaussian is a federally registered
 trademark of Gaussian, Inc.
  
 This software contains proprietary and confidential information,
 including trade secrets, belonging to Gaussian, Inc.
  
 This software is provided under written license and may be
 used, copied, transmitted, or stored only in accord with that
 written license.
  
 The following legend is applicable only to US Government
 contracts under FAR:
  
                    RESTRICTED RIGHTS LEGEND
  
 Use, reproduction and disclosure by the US Government is
 subject to restrictions as set forth in subparagraphs (a)
 and (c) of the Commercial Computer Software - Restricted
 Rights clause in FAR 52.227-19.
  
 Gaussian, Inc.
 340 Quinnipiac St., Bldg. 40, Wallingford CT 06492
  
  
 ---------------------------------------------------------------
 Warning -- This program may not be used in any manner that
 competes with the business of Gaussian, Inc. or will provide
 assistance to any competitor of Gaussian, Inc.  The licensee
 of this program is prohibited from giving any competitor of
 Gaussian, Inc. access to this program.  By using this program,
 the user acknowledges that Gaussian, Inc. is engaged in the
 business of creating and licensing software in the field of
 computational chemistry and represents and warrants to the
 licensee that it is not a competitor of Gaussian, Inc. and that
 it will not use this program in any manner prohibited above.
 ---------------------------------------------------------------
  

 Cite this work as:
 Gaussian 16, Revision C.01,
 M. J. Frisch, G. W. Trucks, H. B. Schlegel, G. E. Scuseria, 
 M. A. Robb, J. R. Cheeseman, G. Scalmani, V. Barone, 
 G. A. Petersson, H. Nakatsuji, X. Li, M. Caricato, A. V. Marenich, 
 J. Bloino, B. G. Janesko, R. Gomperts, B. Mennucci, H. P. Hratchian, 
 J. V. Ortiz, A. F. Izmaylov, J. L. Sonnenberg, D. Williams-Young, 
 F. Ding, F. Lipparini, F. Egidi, J. Goings, B. Peng, A. Petrone, 
 T. Henderson, D. Ranasinghe, V. G. Zakrzewski, J. Gao, N. Rega, 
 G. Zheng, W. Liang, M. Hada, M. Ehara, K. Toyota, R. Fukuda, 
 J. Hasegawa, M. Ishida, T. Nakajima, Y. Honda, O. Kitao, H. Nakai, 
 T. Vreven, K. Throssell, J. A. Montgomery, Jr., J. E. Peralta, 
 F. Ogliaro, M. J. Bearpark, J. J. Heyd, E. N. Brothers, K. N. Kudin, 
 V. N. Staroverov, T. A. Keith, R. Kobayashi, J. Normand, 
 K. Raghavachari, A. P. Rendell, J. C. Burant, S. S. Iyengar, 
 J. Tomasi, M. Cossi, J. M. Millam, M. Klene, C. Adamo, R. Cammi, 
 J. W. Ochterski, R. L. Martin, K. Morokuma, O. Farkas, 
 J. B. Foresman, and D. J. Fox, Gaussian, Inc., Wallingford CT, 2019.
 
 ******************************************
 Gaussian 16:  ES64L-G16RevC.01  3-Jul-2019
                 3-Jan-2023 
 ******************************************
 %chk=0001_q000_m01_k00_force_uwb97xd_def2svp.chk
 %nprocshared=2
 Will use up to    2 processors via shared memory.
 %mem=4GB
 ----------------------------------------------------------------------
 #p uwb97xd/chkbasis force guess=read geom=check scf=(maxcycle=900,very
 tightlineq,xqc) integral=grid=ultrafine symmetry=None density=current 
 pop=(cm5,hlygat,mbs,npa) output=wfx
 ----------------------------------------------------------------------
 1/10=7,29=2,30=1,38=1/1,3;
 2/12=2,15=3,40=1/2;
 3/5=7,6=2,11=2,14=-4,25=1,30=1,67=1,71=1,74=-58,75=-5,116=2/1,2,3;
 4/5=1/1;
 5/5=2,7=900,8=3,13=1,17=3,38=6/2,8;
 6/7=2,8=2,9=2,10=2,15=8,20=15,22=-1,27=100,28=1,40=-1,79=1/1,2,7;
 7/29=1,30=1/1,2,3,16;
 1/10=7,30=1/3;
 99/6=200/99;
 Leave Link    1 at Tue Jan  3 09:04:20 2023, MaxMem=   536870912 cpu:               0.2 elap:               0.1
 (Enter /opt/software/gaussian/g16.c01/l101.exe)
 ----------------------------------------------------------------------
 0001_q000_m01_k00_opt_uwb97xd_def2svpd/0001_q000_m01_k00_force_uwb97xd
 _def2svp stable-force
 ----------------------------------------------------------------------
 Structure from the checkpoint file:  "0001_q000_m01_k00_force_uwb97xd_def2svp.chk"
 Charge =  0 Multiplicity = 1
 Z-Matrix found in chk file.
 C,0,1.0726168695,-0.0701991232,-0.153012633
 N,0,2.3779437514,-0.0897456927,-0.2543854931
 N,0,3.0833554789,-0.3684697824,-1.3087287982
 H,0,4.0640493508,-0.2926697434,-1.0476368317
 H,0,0.6399628731,0.1851542916,0.8085260928
 H,0,0.4830438364,-0.3099796861,-1.0337247999
 H,0,2.8674978397,0.1458797364,0.6131324666
 Recover connectivity data from disk.
 ITRead=  0  0  0  0  0  0  0
 MicOpt= -1 -1 -1 -1 -1 -1 -1
 NAtoms=      7 NQM=        7 NQMF=       0 NMMI=      0 NMMIF=      0
                NMic=       0 NMicF=      0.
                    Isotopes and Nuclear Properties:
 (Nuclear quadrupole moments (NQMom) in fm**2, nuclear magnetic moments (NMagM)
  in nuclear magnetons)

  Atom         1           2           3           4           5           6           7
 IAtWgt=          12          14          14           1           1           1           1
 AtmWgt=  12.0000000  14.0030740  14.0030740   1.0078250   1.0078250   1.0078250   1.0078250
 NucSpn=           0           2           2           1           1           1           1
 AtZEff=   3.6000000   4.5500000   4.5500000   1.0000000   1.0000000   1.0000000   1.0000000
 NQMom=    0.0000000   2.0440000   2.0440000   0.0000000   0.0000000   0.0000000   0.0000000
 NMagM=    0.0000000   0.4037610   0.4037610   2.7928460   2.7928460   2.7928460   2.7928460
 AtZNuc=   6.0000000   7.0000000   7.0000000   1.0000000   1.0000000   1.0000000   1.0000000
 Leave Link  101 at Tue Jan  3 09:04:20 2023, MaxMem=   536870912 cpu:               0.4 elap:               0.2
 (Enter /opt/software/gaussian/g16.c01/l103.exe)

 GradGradGradGradGradGradGradGradGradGradGradGradGradGradGradGradGradGrad
 Berny optimization.
 Initialization pass.
 Trust Radius=3.00D-01 FncErr=1.00D-07 GrdErr=1.00D-07 EigMax=2.50D+02 EigMin=1.00D-04
 Number of steps in this run=      2 maximum allowed number of steps=      2.
 GradGradGradGradGradGradGradGradGradGradGradGradGradGradGradGradGradGrad

 Leave Link  103 at Tue Jan  3 09:04:20 2023, MaxMem=   536870912 cpu:               0.1 elap:               0.0
 (Enter /opt/software/gaussian/g16.c01/l202.exe)
                          Input orientation:                          
 ---------------------------------------------------------------------
 Center     Atomic      Atomic             Coordinates (Angstroms)
 Number     Number       Type             X           Y           Z
 ---------------------------------------------------------------------
      1          6           0        1.072617   -0.070199   -0.153013
      2          7           0        2.377944   -0.089746   -0.254385
      3          7           0        3.083355   -0.368470   -1.308729
      4          1           0        4.064049   -0.292670   -1.047637
      5          1           0        0.639963    0.185154    0.808526
      6          1           0        0.483044   -0.309980   -1.033725
      7          1           0        2.867498    0.145880    0.613132
 ---------------------------------------------------------------------
                    Distance matrix (angstroms):
                    1          2          3          4          5
     1  C    0.000000
     2  N    1.309403   0.000000
     3  N    2.338315   1.298820   0.000000
     4  H    3.130258   1.874401   1.017681   0.000000
     5  H    1.084874   2.055706   3.280158   3.924032   0.000000
     6  H    1.086621   2.060708   2.615467   3.581074   1.914071
     7  H    1.963483   1.023606   2.001175   2.093374   2.236433
                    6          7
     6  H    0.000000
     7  H    2.933525   0.000000
 Symmetry turned off by external request.
 Stoichiometry    CH4N2
 Rotational constants (GHZ):          71.2642239          11.2793619           9.7380671
 Leave Link  202 at Tue Jan  3 09:04:20 2023, MaxMem=   536870912 cpu:               0.0 elap:               0.0
 (Enter /opt/software/gaussian/g16.c01/l301.exe)
 Basis read from chk: "0001_q000_m01_k00_force_uwb97xd_def2svp.chk" (5D, 7F)
 No pseudopotential information found on chk file.
    62 basis functions,   103 primitive gaussians,    65 cartesian basis functions
    12 alpha electrons       12 beta electrons
       nuclear repulsion energy        73.3825490640 Hartrees.
 IExCor= 4639 DFT=T Ex+Corr=wB97XD ExCW=0 ScaHFX=  1.000000
 ScaDFX=  1.000000  1.000000  1.000000  1.000000 ScalE2=  1.000000  1.000000
 IRadAn=      5 IRanWt=     -1 IRanGd=            0 ICorTp=0 IEmpDi=121
 HFx  wShort=  0.000000 wLong=  0.200000 cFull=  0.222036 cShort=  0.000000 cLong=  0.777964
 DFx  wShort=  0.000000 wLong=  0.200000 cFull=  0.000000 cShort=  0.000000 cLong=  1.000000
 NAtoms=    7 NActive=    7 NUniq=    7 SFac= 1.00D+00 NAtFMM=   60 NAOKFM=F Big=F
 Integral buffers will be    131072 words long.
 Raffenetti 2 integral format.
 Two-electron integral symmetry is turned off.
 R6Disp:  Grimme-D2 Dispersion energy=       -0.0012232174 Hartrees.
 Nuclear repulsion after empirical dispersion term =       73.3813258467 Hartrees.
 No density basis found on file  20724.
 Leave Link  301 at Tue Jan  3 09:04:20 2023, MaxMem=   536870912 cpu:               0.1 elap:               0.1
 (Enter /opt/software/gaussian/g16.c01/l302.exe)
 NPDir=0 NMtPBC=     1 NCelOv=     1 NCel=       1 NClECP=     1 NCelD=      1
         NCelK=      1 NCelE2=     1 NClLst=     1 CellRange=     0.0.
 One-electron integrals computed using PRISM.
 NBasis=    62 RedAO= T EigKep=  5.91D-03  NBF=    62
 NBsUse=    62 1.00D-06 EigRej= -1.00D+00 NBFU=    62
 Precomputing XC quadrature grid using
 IXCGrd= 4 IRadAn=           5 IRanWt=          -1 IRanGd=           0 AccXCQ= 0.00D+00.
 Generated NRdTot=       0 NPtTot=           0 NUsed=           0 NTot=          32
 NSgBfM=    65    65    65    65    65 MxSgAt=     7 MxSgA2=     7.
 Leave Link  302 at Tue Jan  3 09:04:20 2023, MaxMem=   536870912 cpu:               0.3 elap:               0.2
 (Enter /opt/software/gaussian/g16.c01/l303.exe)
 DipDrv:  MaxL=1.
 Leave Link  303 at Tue Jan  3 09:04:21 2023, MaxMem=   536870912 cpu:               0.1 elap:               0.0
 (Enter /opt/software/gaussian/g16.c01/l401.exe)
 Initial guess from the checkpoint file:  "0001_q000_m01_k00_force_uwb97xd_def2svp.chk"
 B after Tr=     0.000000    0.000000    0.000000
         Rot=    1.000000    0.000000    0.000000    0.000000 Ang=   0.00 deg.
 Guess basis will be translated and rotated to current coordinates.
 JPrj=2 DoOrth=T DoCkMO=T.
 Initial guess <Sx>= 0.0000 <Sy>= 0.0000 <Sz>= 0.0000 <S**2>=-0.0000 S=-0.0000
 Leave Link  401 at Tue Jan  3 09:04:21 2023, MaxMem=   536870912 cpu:               0.2 elap:               0.1
 (Enter /opt/software/gaussian/g16.c01/l502.exe)
 Keep R1 and R2 ints in memory in canonical form, NReq=9536613.
 FoFCou: FMM=F IPFlag=           0 FMFlag=           0 FMFlg1=           0
         NFxFlg=           0 DoJE=F BraDBF=F KetDBF=F FulRan=T
         wScrn=  0.000000 ICntrl=       600 IOpCl=  0 I1Cent=           0 NGrid=           0
         NMat0=    1 NMatS0=   1953 NMatT0=    0 NMatD0=    1 NMtDS0=    0 NMtDT0=    0
 Symmetry not used in FoFCou.
 Two-electron integral symmetry not used.
 UHF open shell SCF:
 Using DIIS extrapolation, IDIIS=  1040.
 NGot=   536870912 LenX=   529228893 LenY=   529224227
 Requested convergence on RMS density matrix=1.00D-08 within 128 cycles.
 Requested convergence on MAX density matrix=1.00D-06.
 Requested convergence on             energy=1.00D-06.
 No special actions if energy rises.

 Cycle   1  Pass 1  IDiag  1:
 E= -149.757974670328    
 DIIS: error= 1.10D-09 at cycle   1 NSaved=   1.
 NSaved= 1 IEnMin= 1 EnMin= -149.757974670328     IErMin= 1 ErrMin= 1.10D-09
 ErrMax= 1.10D-09  0.00D+00 EMaxC= 1.00D-01 BMatC= 5.14D-16 BMatP= 5.14D-16
 IDIUse=1 WtCom= 1.00D+00 WtEn= 0.00D+00
 Coeff-Com:  0.100D+01
 Coeff:      0.100D+01
 Gap=     0.327 Goal=   None    Shift=    0.000
 Gap=     0.327 Goal=   None    Shift=    0.000
 RMSDP=7.37D-10 MaxDP=1.05D-08              OVMax= 1.20D-08

 SCF Done:  E(UwB97XD) =  -149.757974670     A.U. after    1 cycles
            NFock=  1  Conv=0.74D-09     -V/T= 2.0094
 <Sx>= 0.0000 <Sy>= 0.0000 <Sz>= 0.0000 <S**2>=-0.0000 S=-0.0000
 <L.S>=  0.00000000000    
 KE= 1.483585241888D+02 PE=-4.952292699948D+02 EE= 1.237314452890D+02
 Annihilation of the first spin contaminant:
 S**2 before annihilation    -0.0000,   after    -0.0000
 Leave Link  502 at Tue Jan  3 09:04:22 2023, MaxMem=   536870912 cpu:               1.8 elap:               0.9
 (Enter /opt/software/gaussian/g16.c01/l508.exe)
 QCSCF skips out because SCF is already converged.
 Leave Link  508 at Tue Jan  3 09:04:22 2023, MaxMem=   536870912 cpu:               0.0 elap:               0.0
 (Enter /opt/software/gaussian/g16.c01/l601.exe)
 Copying SCF densities to generalized density rwf, IOpCl= 1 IROHF=0.

 **********************************************************************

            Population analysis using the SCF Density.

 **********************************************************************

 Alpha  occ. eigenvalues --  -14.56547 -14.41683 -10.31445  -1.12697  -0.89391
 Alpha  occ. eigenvalues --   -0.73023  -0.64714  -0.56430  -0.51554  -0.49570
 Alpha  occ. eigenvalues --   -0.35174  -0.26383
 Alpha virt. eigenvalues --    0.06297   0.10790   0.18678   0.20350   0.22597
 Alpha virt. eigenvalues --    0.32753   0.42198   0.51789   0.56036   0.58600
 Alpha virt. eigenvalues --    0.60366   0.66954   0.73081   0.76076   0.76866
 Alpha virt. eigenvalues --    0.83135   0.86067   0.89243   0.90922   1.02887
 Alpha virt. eigenvalues --    1.05199   1.14057   1.26565   1.34745   1.36052
 Alpha virt. eigenvalues --    1.47225   1.59576   1.59627   1.73324   1.74257
 Alpha virt. eigenvalues --    1.90172   1.96309   2.04236   2.08676   2.11244
 Alpha virt. eigenvalues --    2.19541   2.26070   2.33373   2.41347   2.53575
 Alpha virt. eigenvalues --    2.54394   2.64226   2.79478   2.95485   2.97790
 Alpha virt. eigenvalues --    3.01745   3.16670   3.25977   3.45975   3.68867
  Beta  occ. eigenvalues --  -14.56547 -14.41683 -10.31445  -1.12697  -0.89391
  Beta  occ. eigenvalues --   -0.73023  -0.64714  -0.56430  -0.51554  -0.49570
  Beta  occ. eigenvalues --   -0.35174  -0.26383
  Beta virt. eigenvalues --    0.06297   0.10790   0.18678   0.20350   0.22597
  Beta virt. eigenvalues --    0.32753   0.42198   0.51789   0.56036   0.58600
  Beta virt. eigenvalues --    0.60366   0.66954   0.73081   0.76076   0.76866
  Beta virt. eigenvalues --    0.83135   0.86067   0.89243   0.90922   1.02887
  Beta virt. eigenvalues --    1.05199   1.14057   1.26565   1.34745   1.36052
  Beta virt. eigenvalues --    1.47225   1.59576   1.59627   1.73324   1.74257
  Beta virt. eigenvalues --    1.90172   1.96309   2.04236   2.08676   2.11244
  Beta virt. eigenvalues --    2.19541   2.26070   2.33373   2.41347   2.53575
  Beta virt. eigenvalues --    2.54394   2.64226   2.79478   2.95485   2.97790
  Beta virt. eigenvalues --    3.01745   3.16670   3.25977   3.45975   3.68867
          Condensed to atoms (all electrons):
               1          2          3          4          5          6
     1  C    4.943174   0.528844  -0.111058   0.008400   0.397488   0.397206
     2  N    0.528844   5.884770   0.265998  -0.005478  -0.020651  -0.017465
     3  N   -0.111058   0.265998   6.820959   0.296195   0.005970   0.007290
     4  H    0.008400  -0.005478   0.296195   0.633382  -0.000784  -0.000769
     5  H    0.397488  -0.020651   0.005970  -0.000784   0.600480  -0.032122
     6  H    0.397206  -0.017465   0.007290  -0.000769  -0.032122   0.563521
     7  H   -0.041957   0.341412  -0.011651  -0.024937  -0.007986   0.008476
               7
     1  C   -0.041957
     2  N    0.341412
     3  N   -0.011651
     4  H   -0.024937
     5  H   -0.007986
     6  H    0.008476
     7  H    0.588872
          Atomic-Atomic Spin Densities.
               1          2          3          4          5          6
     1  C    0.000000   0.000000   0.000000   0.000000   0.000000   0.000000
     2  N    0.000000   0.000000   0.000000   0.000000   0.000000   0.000000
     3  N    0.000000   0.000000   0.000000   0.000000   0.000000   0.000000
     4  H    0.000000   0.000000   0.000000   0.000000   0.000000   0.000000
     5  H    0.000000   0.000000   0.000000   0.000000   0.000000   0.000000
     6  H    0.000000   0.000000   0.000000   0.000000   0.000000   0.000000
     7  H    0.000000   0.000000   0.000000   0.000000   0.000000   0.000000
               7
     1  C    0.000000
     2  N    0.000000
     3  N    0.000000
     4  H    0.000000
     5  H    0.000000
     6  H    0.000000
     7  H    0.000000
 Mulliken charges and spin densities:
               1          2
     1  C   -0.122097   0.000000
     2  N    0.022570   0.000000
     3  N   -0.273704   0.000000
     4  H    0.093991   0.000000
     5  H    0.057606   0.000000
     6  H    0.073862   0.000000
     7  H    0.147772   0.000000
 Sum of Mulliken charges =  -0.00000   0.00000
 Mulliken charges and spin densities with hydrogens summed into heavy atoms:
               1          2
     1  C    0.009371   0.000000
     2  N    0.170342   0.000000
     3  N   -0.179713   0.000000
 Electronic spatial extent (au):  <R**2>=            596.4432
 Charge=             -0.0000 electrons
 Dipole moment (field-independent basis, Debye):
    X=              0.5902    Y=              0.8355    Z=              3.1018  Tot=              3.2661
 Quadrupole moment (field-independent basis, Debye-Ang):
   XX=            -12.5298   YY=            -20.6078   ZZ=            -22.3490
   XY=              2.3381   XZ=              8.6202   YZ=             -0.5720
 Traceless Quadrupole moment (field-independent basis, Debye-Ang):
   XX=              5.9657   YY=             -2.1123   ZZ=             -3.8535
   XY=              2.3381   XZ=              8.6202   YZ=             -0.5720
 Octapole moment (field-independent basis, Debye-Ang**2):
  XXX=            -83.5739  YYY=             10.4147  ZZZ=             40.1239  XYY=            -43.6364
  XXY=              8.8412  XXZ=             31.2506  XZZ=            -51.9351  YZZ=              5.3491
  YYZ=             11.5227  XYZ=             -2.6151
 Hexadecapole moment (field-independent basis, Debye-Ang**3):
 XXXX=           -451.5762 YYYY=            -25.9345 ZZZZ=           -109.2178 XXXY=             37.1132
 XXXZ=            129.5824 YYYX=             28.2900 YYYZ=            -11.7400 ZZZX=            114.3662
 ZZZY=            -13.9496 XXYY=           -118.6155 XXZZ=           -151.8533 YYZZ=            -21.7865
 XXYZ=            -10.4385 YYXZ=             32.8993 ZZXY=             14.9406
 N-N= 7.338132584667D+01 E-N=-4.952292699316D+02  KE= 1.483585241888D+02
 There are a total of      155354 grid points.
 ElSum from          density=       24.0000002372
 ElSum from atomic densities=       23.9999991513
 Hirshfeld populations at iteration   1 (CA, CB, DipXYZ):
               1          2          3          4          5
     1  C    3.044195   3.044195   0.009277  -0.000096  -0.000515
     2  N    3.468841   3.468841   0.070200   0.006594   0.023042
     3  N    3.642473   3.642473   0.083147   0.080657   0.298810
     4  H    0.458867   0.458867   0.186592   0.014483   0.049905
     5  H    0.481623   0.481623  -0.070325   0.039271   0.147969
     6  H    0.477433   0.477433  -0.101173  -0.036591  -0.134146
     7  H    0.426568   0.426568   0.100623   0.043431   0.159678
       Tot  12.000000  12.000000   0.278340   0.147749   0.544744

 Dip from Atomic Chgs             -0.046148   0.180976   0.675598
         Total Dipole              0.232192   0.328725   1.220343

 Hirshfeld charges, spin densities, dipoles, and CM5 charges using IRadAn=      5:
              Q-H        S-H        Dx         Dy         Dz        Q-CM5   
     1  C   -0.088391   0.000000   0.009277  -0.000096  -0.000515  -0.103734
     2  N    0.062318   0.000000   0.070200   0.006594   0.023042  -0.244950
     3  N   -0.284945   0.000000   0.083147   0.080657   0.298810  -0.491312
     4  H    0.082266   0.000000   0.186592   0.014483   0.049905   0.284308
     5  H    0.036754   0.000000  -0.070325   0.039271   0.147969   0.099619
     6  H    0.045134   0.000000  -0.101173  -0.036591  -0.134146   0.110410
     7  H    0.146864   0.000000   0.100623   0.043431   0.159678   0.345660
       Tot  -0.000000   0.000000   0.278340   0.147749   0.544744  -0.000000
 Hirshfeld charges and spin densities with hydrogens summed into heavy atoms:
              Q-H        S-H       Q-CM5   
     1  C   -0.006503   0.000000   0.106295
     2  N    0.209182   0.000000   0.100709
     3  N   -0.202679   0.000000  -0.207005
 
 EQQ=  0.00000000000     EQD=  0.00000000000     EDD= 0.781868183773E-02
 EQQ+QD+DD= 0.781868183773E-02
 
          MBS Condensed to atoms (all electrons):
               1          2          3          4          5          6
     1  C    5.001228   0.471274  -0.047663   0.003328   0.395935   0.389227
     2  N    0.471274   5.968168   0.373514  -0.036909  -0.022415  -0.022351
     3  N   -0.047663   0.373514   6.850218   0.322985   0.001306  -0.000459
     4  H    0.003328  -0.036909   0.322985   0.514481  -0.000129  -0.000017
     5  H    0.395935  -0.022415   0.001306  -0.000129   0.543922  -0.018703
     6  H    0.389227  -0.022351  -0.000459  -0.000017  -0.018703   0.522198
     7  H   -0.042304   0.335262  -0.024317  -0.012158  -0.005398   0.002914
               7
     1  C   -0.042304
     2  N    0.335262
     3  N   -0.024317
     4  H   -0.012158
     5  H   -0.005398
     6  H    0.002914
     7  H    0.473942
          MBS Atomic-Atomic Spin Densities.
               1          2          3          4          5          6
     1  C   -0.000000   0.000000   0.000000   0.000000   0.000000   0.000000
     2  N    0.000000   0.000000   0.000000   0.000000   0.000000   0.000000
     3  N    0.000000   0.000000   0.000000   0.000000  -0.000000   0.000000
     4  H    0.000000   0.000000   0.000000   0.000000   0.000000   0.000000
     5  H    0.000000   0.000000  -0.000000   0.000000  -0.000000   0.000000
     6  H    0.000000   0.000000   0.000000   0.000000   0.000000   0.000000
     7  H    0.000000  -0.000000   0.000000   0.000000   0.000000   0.000000
               7
     1  C    0.000000
     2  N   -0.000000
     3  N    0.000000
     4  H    0.000000
     5  H    0.000000
     6  H    0.000000
     7  H   -0.000000
 MBS Mulliken charges and spin densities:
               1          2
     1  C   -0.171024  -0.000000
     2  N   -0.066543  -0.000000
     3  N   -0.475584   0.000000
     4  H    0.208419   0.000000
     5  H    0.105483  -0.000000
     6  H    0.127191   0.000000
     7  H    0.272059  -0.000000
 Sum of MBS Mulliken charges =   0.00000  -0.00000
 MBS Mulliken charges and spin densities with hydrogens summed into heavy atoms:
               1          2
     1  C    0.061649  -0.000000
     2  N    0.205516  -0.000000
     3  N   -0.267165   0.000000
 MBS Atomic Valencies and Mayer Atomic Bond Orders:
               1          2          3          4          5          6
     1  C    3.832630   1.448930   0.439669   0.008066   0.969071   0.959143
     2  N    1.448930   3.663005   1.331979   0.010435   0.003201   0.002664
     3  N    0.439669   1.331979   2.750874   0.930956   0.007974   0.005884
     4  H    0.008066   0.010435   0.930956   0.956562   0.002488   0.000050
     5  H    0.969071   0.003201   0.007974   0.002488   0.988873   0.004381
     6  H    0.959143   0.002664   0.005884   0.000050   0.004381   0.983823
     7  H    0.007751   0.865795   0.034412   0.004567   0.001759   0.011701
               7
     1  C    0.007751
     2  N    0.865795
     3  N    0.034412
     4  H    0.004567
     5  H    0.001759
     6  H    0.011701
     7  H    0.925984
 MBS Mayer-style numbers of lone pairs (12.000 valence pairs, 4.949 lone pairs):
               1
     1  C    1.169197
     2  N    1.701769
     3  N    2.362355
     4  H   -0.082490
     5  H   -0.047178
     6  H   -0.055507
     7  H   -0.099021
 BEBO parameters in MulMin, MxElBE=  0:
 ELP=  0.00000000000     EBEBO=  0.00000000000     Sum=  0.00000000000    
 ELP=  0.00000000000     EBEBO=  0.00000000000     EJK=  0.00000000000      0.00000000000     Sum=  0.00000000000    
 0 EA=  0.00000000000     EB=  0.00000000000     ETot=  0.00000000000    
 1 EA=  0.00000000000     EB=  0.00000000000     ETot=  0.00000000000    
 2 EA=  0.00000000000     EB=  0.00000000000     ETot=  0.00000000000    
 3 EJ=  0.00000000000     EK=  0.00000000000     ETot=  0.00000000000    
 4 EJ=  0.00000000000     EK=  0.00000000000     ETot=  0.00000000000    
 5 EA=  0.00000000000     EB=  0.00000000000     ETot=  0.00000000000    
                          Isotropic Fermi Contact Couplings
        Atom                 a.u.       MegaHertz       Gauss      10(-4) cm-1
     1  C(13)              0.00000       0.00000       0.00000       0.00000
     2  N(14)              0.00000       0.00000       0.00000       0.00000
     3  N(14)              0.00000       0.00000       0.00000       0.00000
     4  H(1)               0.00000       0.00000       0.00000       0.00000
     5  H(1)               0.00000       0.00000       0.00000       0.00000
     6  H(1)               0.00000       0.00000       0.00000       0.00000
     7  H(1)               0.00000       0.00000       0.00000       0.00000
 --------------------------------------------------------
       Center         ----  Spin Dipole Couplings  ----
                      3XX-RR        3YY-RR        3ZZ-RR
 --------------------------------------------------------
     1   Atom        0.000000      0.000000      0.000000
     2   Atom        0.000000      0.000000      0.000000
     3   Atom        0.000000      0.000000      0.000000
     4   Atom        0.000000      0.000000      0.000000
     5   Atom        0.000000      0.000000      0.000000
     6   Atom        0.000000      0.000000      0.000000
     7   Atom        0.000000      0.000000      0.000000
 --------------------------------------------------------
                        XY            XZ            YZ
 --------------------------------------------------------
     1   Atom        0.000000      0.000000      0.000000
     2   Atom        0.000000      0.000000      0.000000
     3   Atom        0.000000      0.000000      0.000000
     4   Atom        0.000000      0.000000      0.000000
     5   Atom        0.000000      0.000000      0.000000
     6   Atom        0.000000      0.000000      0.000000
     7   Atom        0.000000      0.000000      0.000000
 --------------------------------------------------------


[...]
    51    H    5  py     Ryd( 2p)     0.00020       1.73472
    52    H    5  pz     Ryd( 2p)     0.00031       2.31723
 
    53    H    6  S      Val( 1S)     0.39648       0.09167
    54    H    6  S      Ryd( 2S)     0.00098       0.40765
    55    H    6  px     Ryd( 2p)     0.00012       2.05083
    56    H    6  py     Ryd( 2p)     0.00012       1.74595
    57    H    6  pz     Ryd( 2p)     0.00028       2.24988
 
    58    H    7  S      Val( 1S)     0.30639       0.08576
    59    H    7  S      Ryd( 2S)     0.00223       0.42989
    60    H    7  px     Ryd( 2p)     0.00024       2.11417
    61    H    7  py     Ryd( 2p)     0.00022       1.72120
    62    H    7  pz     Ryd( 2p)     0.00053       2.28308


 Summary of Natural Population Analysis:                  
                                                          
                                       Natural Population 
                Natural  -----------------------------------------------
    Atom  No    Charge         Core      Valence    Rydberg      Total
 -----------------------------------------------------------------------
      C    1   -0.13634      0.99967     2.12329    0.01339     3.13634
      N    2   -0.11657      0.99963     2.60885    0.00809     3.61657
      N    3   -0.29219      0.99979     2.77821    0.01419     3.79219
      H    4    0.15743      0.00000     0.34014    0.00243     0.34257
      H    5    0.09527      0.00000     0.40378    0.00095     0.40473
      H    6    0.10202      0.00000     0.39648    0.00150     0.39798
      H    7    0.19039      0.00000     0.30639    0.00322     0.30961
 =======================================================================
   * Total *    0.00000      2.99909     8.95714    0.04377    12.00000

                                 Natural Population      
 --------------------------------------------------------
   Core                       2.99909 ( 99.9697% of   3)
   Valence                    8.95714 ( 99.5238% of   9)
   Natural Minimal Basis     11.95623 ( 99.6353% of  12)
   Natural Rydberg Basis      0.04377 (  0.3647% of  12)
 --------------------------------------------------------

    Atom  No          Natural Electron Configuration
 ----------------------------------------------------------------------------
      C    1      [core]2S( 0.51)2p( 1.62)3p( 0.01)
      N    2      [core]2S( 0.60)2p( 2.01)
      N    3      [core]2S( 0.76)2p( 2.02)3p( 0.01)
      H    4            1S( 0.34)
      H    5            1S( 0.40)
      H    6            1S( 0.40)
      H    7            1S( 0.31)


 NBO analysis skipped by request.


 ***************************************************
 *******         Beta  spin orbitals         *******
 ***************************************************


 NATURAL POPULATIONS:  Natural atomic orbital occupancies 
                                                          
   NAO  Atom  No  lang   Type(AO)    Occupancy      Energy
 ----------------------------------------------------------
     1    C    1  S      Cor( 1S)     0.99967     -10.20609
     2    C    1  S      Val( 2S)     0.50745      -0.20033
     3    C    1  S      Ryd( 3S)     0.00094       0.57051
     4    C    1  px     Val( 2p)     0.43552      -0.00036
     5    C    1  px     Ryd( 3p)     0.00382       0.54550
     6    C    1  py     Val( 2p)     0.58681      -0.14003
     7    C    1  py     Ryd( 3p)     0.00466       0.60269
     8    C    1  pz     Val( 2p)     0.59351      -0.05773
     9    C    1  pz     Ryd( 3p)     0.00219       0.86790
    10    C    1  dxy    Ryd( 3d)     0.00062       2.07315
    11    C    1  dxz    Ryd( 3d)     0.00030       2.57840
    12    C    1  dyz    Ryd( 3d)     0.00006       2.08092
    13    C    1  dx2y2  Ryd( 3d)     0.00043       2.29677
    14    C    1  dz2    Ryd( 3d)     0.00036       2.43555
 
    15    N    2  S      Cor( 1S)     0.99963     -14.40670
    16    N    2  S      Val( 2S)     0.60217      -0.54993
    17    N    2  S      Ryd( 3S)     0.00186       0.94481
    18    N    2  px     Val( 2p)     0.67869      -0.32836
    19    N    2  px     Ryd( 3p)     0.00106       0.97409
    20    N    2  py     Val( 2p)     0.67688      -0.31079
    21    N    2  py     Ryd( 3p)     0.00025       0.87603
    22    N    2  pz     Val( 2p)     0.65111      -0.29393
    23    N    2  pz     Ryd( 3p)     0.00135       1.23119
    24    N    2  dxy    Ryd( 3d)     0.00118       2.42079
    25    N    2  dxz    Ryd( 3d)     0.00063       2.96782
    26    N    2  dyz    Ryd( 3d)     0.00057       2.45428
    27    N    2  dx2y2  Ryd( 3d)     0.00043       2.76581
    28    N    2  dz2    Ryd( 3d)     0.00076       2.78030
 
    29    N    3  S      Cor( 1S)     0.99979     -14.27332
    30    N    3  S      Val( 2S)     0.75885      -0.55913
    31    N    3  S      Ryd( 3S)     0.00310       0.96195
    32    N    3  px     Val( 2p)     0.60927      -0.12947
    33    N    3  px     Ryd( 3p)     0.00328       1.01464
    34    N    3  py     Val( 2p)     0.72073      -0.20608
    35    N    3  py     Ryd( 3p)     0.00241       0.88365
    36    N    3  pz     Val( 2p)     0.68936      -0.17688
    37    N    3  pz     Ryd( 3p)     0.00203       0.91172
    38    N    3  dxy    Ryd( 3d)     0.00011       2.47559
    39    N    3  dxz    Ryd( 3d)     0.00085       2.86459
    40    N    3  dyz    Ryd( 3d)     0.00111       2.49384
    41    N    3  dx2y2  Ryd( 3d)     0.00029       2.83272
    42    N    3  dz2    Ryd( 3d)     0.00100       2.70227
 
    43    H    4  S      Val( 1S)     0.34014       0.11346
    44    H    4  S      Ryd( 2S)     0.00078       0.45918
    45    H    4  px     Ryd( 2p)     0.00066       2.45191
    46    H    4  py     Ryd( 2p)     0.00055       1.72115
    47    H    4  pz     Ryd( 2p)     0.00044       1.87304
 
    48    H    5  S      Val( 1S)     0.40378       0.07015
    49    H    5  S      Ryd( 2S)     0.00034       0.39275
    50    H    5  px     Ryd( 2p)     0.00010       1.94646
    51    H    5  py     Ryd( 2p)     0.00020       1.73472
    52    H    5  pz     Ryd( 2p)     0.00031       2.31723
 
    53    H    6  S      Val( 1S)     0.39648       0.09167
    54    H    6  S      Ryd( 2S)     0.00098       0.40765
    55    H    6  px     Ryd( 2p)     0.00012       2.05083
    56    H    6  py     Ryd( 2p)     0.00012       1.74595
    57    H    6  pz     Ryd( 2p)     0.00028       2.24988
 
    58    H    7  S      Val( 1S)     0.30639       0.08576
    59    H    7  S      Ryd( 2S)     0.00223       0.42989
    60    H    7  px     Ryd( 2p)     0.00024       2.11417
    61    H    7  py     Ryd( 2p)     0.00022       1.72120
    62    H    7  pz     Ryd( 2p)     0.00053       2.28308


 Summary of Natural Population Analysis:                  
                                                          
                                       Natural Population 
                Natural  -----------------------------------------------
    Atom  No    Charge         Core      Valence    Rydberg      Total
 -----------------------------------------------------------------------
      C    1   -0.13634      0.99967     2.12329    0.01339     3.13634
      N    2   -0.11657      0.99963     2.60885    0.00809     3.61657
      N    3   -0.29219      0.99979     2.77821    0.01419     3.79219
      H    4    0.15743      0.00000     0.34014    0.00243     0.34257
      H    5    0.09527      0.00000     0.40378    0.00095     0.40473
      H    6    0.10202      0.00000     0.39648    0.00150     0.39798
      H    7    0.19039      0.00000     0.30639    0.00322     0.30961
 =======================================================================
   * Total *    0.00000      2.99909     8.95714    0.04377    12.00000

                                 Natural Population      
 --------------------------------------------------------
   Core                       2.99909 ( 99.9697% of   3)
   Valence                    8.95714 ( 99.5238% of   9)
   Natural Minimal Basis     11.95623 ( 99.6353% of  12)
   Natural Rydberg Basis      0.04377 (  0.3647% of  12)
 --------------------------------------------------------

    Atom  No          Natural Electron Configuration
 ----------------------------------------------------------------------------
      C    1      [core]2S( 0.51)2p( 1.62)3p( 0.01)
      N    2      [core]2S( 0.60)2p( 2.01)
      N    3      [core]2S( 0.76)2p( 2.02)3p( 0.01)
      H    4            1S( 0.34)
      H    5            1S( 0.40)
      H    6            1S( 0.40)
      H    7            1S( 0.31)


 NBO analysis skipped by request.
 Leave Link  607 at Tue Jan  3 09:04:24 2023, MaxMem=   536870912 cpu:               3.6 elap:               1.8
 (Enter /opt/software/gaussian/g16.c01/l701.exe)
 ... and contract with generalized density number  0.
 Compute integral first derivatives.
 R6Disp: Adding Grimme-D2 dispersion energy 1st derivatives to the gradient.
 Leave Link  701 at Tue Jan  3 09:04:24 2023, MaxMem=   536870912 cpu:               0.2 elap:               0.1
 (Enter /opt/software/gaussian/g16.c01/l702.exe)
 L702 exits ... SP integral derivatives will be done elsewhere.
 Leave Link  702 at Tue Jan  3 09:04:24 2023, MaxMem=   536870912 cpu:               0.1 elap:               0.0
 (Enter /opt/software/gaussian/g16.c01/l703.exe)
 Integral derivatives from FoFJK, PRISM(SPDF).
 Compute integral first derivatives, UseDBF=F ICtDFT=           0.
 Calling FoFJK, ICntrl=      2127 FMM=F ISym2X=0 I1Cent= 0 IOpClX= 1 NMat=1 NMatS=1 NMatT=0.
 FoFJK:  IHMeth= 1 ICntrl=    2127 DoSepK=T KAlg= 0 I1Cent=           0 FoldK=F
 IRaf=         1 NMat=       1 IRICut=       1 DoRegI=T DoRafI=F ISym2E= 0 IDoP0=0 IntGTp=1.
 FoFCou: FMM=F IPFlag=           0 FMFlag=      100000 FMFlg1=         800
         NFxFlg=           0 DoJE=F BraDBF=F KetDBF=F FulRan=T
         wScrn=  0.000000 ICntrl=      2527 IOpCl=  0 I1Cent=           0 NGrid=           0
         NMat0=    1 NMatS0=      1 NMatT0=    0 NMatD0=    1 NMtDS0=    0 NMtDT0=    0
 Symmetry not used in FoFCou.
 Leave Link  703 at Tue Jan  3 09:04:26 2023, MaxMem=   536870912 cpu:               3.3 elap:               1.6
 (Enter /opt/software/gaussian/g16.c01/l716.exe)
 Dipole        = 2.32193837D-01 3.28721214D-01 1.22034282D+00
 -------------------------------------------------------------------
 Center     Atomic                   Forces (Hartrees/Bohr)
 Number     Number              X              Y              Z
 -------------------------------------------------------------------
      1        6          -0.002742979    0.000511741    0.001967302
      2        7           0.009237281   -0.002333482   -0.008897318
      3        7          -0.006954020    0.000108202    0.000559772
      4        1           0.001891922    0.000884655    0.003254294
      5        1          -0.000903308    0.000276823    0.001049546
      6        1          -0.000572129   -0.000293773   -0.001081245
      7        1           0.000043233    0.000845833    0.003147649
 -------------------------------------------------------------------
 Cartesian Forces:  Max     0.009237281 RMS     0.003514789
 Z-matrix is all fixed cartesians, so copy forces.
 Force constants in Cartesian coordinates: 
                1             2             3             4             5 
      1  0.979681D+00
      2 -0.379301D-03  0.213865D+00
      3 -0.190645D-01  0.142607D+00  0.707620D+00
      4 -0.643805D+00  0.579070D-02  0.334547D-01  0.112567D+01
      5  0.632347D-02 -0.106234D+00 -0.223587D-01 -0.331382D-01  0.255501D+00
      6  0.354270D-01 -0.223469D-01 -0.184344D+00 -0.143773D+00  0.210309D+00
      7  0.271848D-02  0.887848D-02  0.332925D-01 -0.285848D+00  0.632473D-01
      8  0.405863D-03  0.125485D-01  0.280651D-02  0.556667D-01 -0.952295D-01
      9  0.171151D-02  0.262289D-02  0.215325D-01  0.212339D+00 -0.116800D+00
     10  0.000000D+00 -0.399533D-04  0.107186D-04 -0.760156D-02 -0.133499D-02
     11 -0.399096D-04  0.681015D-02 -0.182702D-02  0.704590D-02  0.450257D-02
     12  0.107071D-04 -0.182705D-02  0.490159D-03  0.265068D-01  0.370720D-02
     13 -0.151899D+00  0.232181D-01  0.887550D-01  0.227506D-02  0.740187D-02
     14  0.222321D-01 -0.700228D-01 -0.649731D-01  0.189247D-03  0.144423D-01
     15  0.850866D-01 -0.649992D-01 -0.296927D+00  0.973426D-03 -0.504849D-03
     16 -0.184388D+00 -0.297881D-01 -0.108208D+00 -0.207961D-02 -0.693893D-02
     17 -0.287722D-01 -0.722180D-01 -0.562752D-01  0.243717D-03  0.170004D-01
     18 -0.104411D+00 -0.562483D-01 -0.264302D+00  0.132579D-02  0.166311D-04
     19 -0.230818D-02 -0.767988D-02 -0.282404D-01 -0.188615D+00 -0.355605D-01
     20  0.229955D-03  0.152509D-01  0.203553D-04 -0.357981D-01 -0.899827D-01
     21  0.124008D-02  0.191593D-03  0.159310D-01 -0.130826D+00 -0.743693D-01
                6             7             8             9            10 
      6  0.986309D+00
      7  0.240594D+00  0.668956D+00
      8 -0.116633D+00 -0.324380D-01  0.846813D-01
      9 -0.504269D+00 -0.134507D+00  0.140554D+00  0.574006D+00
     10 -0.473293D-02 -0.410677D+00 -0.278084D-01 -0.950666D-01  0.418278D+00
     11  0.352379D-02 -0.361895D-01 -0.231711D-01 -0.184397D-01  0.291372D-01
     12  0.167545D-01 -0.126306D+00 -0.186231D-01 -0.846654D-01  0.998012D-01
     13  0.278675D-01  0.000000D+00 -0.447309D-04  0.120004D-04  0.000000D+00
     14 -0.347895D-03 -0.447767D-04  0.764067D-02 -0.204983D-02  0.000000D+00
     15  0.126317D-01  0.120092D-04 -0.204924D-02  0.549768D-03  0.000000D+00
     16 -0.254401D-01  0.000000D+00  0.448748D-04 -0.120390D-04  0.000000D+00
     17 -0.139769D-03  0.448434D-04 -0.765204D-02  0.205288D-02  0.000000D+00
     18  0.170683D-01 -0.120329D-04  0.205329D-02 -0.550853D-03  0.000000D+00
     19 -0.129942D+00  0.248506D-01  0.417370D-02  0.155231D-01  0.000000D+00
     20 -0.743652D-01 -0.349835D-02  0.211822D-01 -0.794026D-02  0.462088D-04
     21 -0.344150D+00 -0.130734D-01 -0.810855D-02 -0.660326D-02 -0.123974D-04
               11            12            13            14            15 
     11  0.197348D-01
     12  0.146298D-01  0.679877D-01
     13  0.000000D+00  0.000000D+00  0.120347D+00
     14  0.000000D+00  0.000000D+00 -0.258292D-01  0.469624D-01
     15  0.000000D+00  0.000000D+00 -0.983283D-01  0.699484D-01  0.291298D+00
     16  0.000000D+00  0.000000D+00  0.292766D-01  0.340314D-02  0.122695D-01
     17  0.000000D+00  0.000000D+00 -0.479540D-02  0.941143D-02 -0.465711D-02
     18  0.000000D+00  0.000000D+00 -0.182930D-01 -0.484049D-02 -0.694563D-02
     19  0.463037D-04 -0.124225D-04  0.000000D+00  0.494397D-04 -0.132598D-04
     20 -0.787642D-02  0.211311D-02  0.493749D-04 -0.843392D-02  0.226199D-02
     21  0.211317D-02 -0.566929D-03 -0.132473D-04  0.226283D-02 -0.606894D-03
               16            17            18            19            20 
     16  0.157191D+00
     17  0.333285D-01  0.450118D-01
     18  0.121377D+00  0.612854D-01  0.254122D+00
     19  0.000000D+00 -0.495133D-04  0.132860D-04  0.166072D+00
     20 -0.495337D-04  0.844647D-02 -0.226646D-02  0.390205D-01  0.614135D-01
     21  0.132899D-04 -0.226619D-02  0.608092D-03  0.142672D+00  0.801764D-01
               21 
     21  0.335388D+00
 Leave Link  716 at Tue Jan  3 09:04:26 2023, MaxMem=   536870912 cpu:               0.1 elap:               0.0
 (Enter /opt/software/gaussian/g16.c01/l103.exe)

 GradGradGradGradGradGradGradGradGradGradGradGradGradGradGradGradGradGrad
 Berny optimization.
 Search for a local minimum.
 Step number   1 out of a maximum of    2
 All quantities printed in internal units (Hartrees-Bohrs-Radians)
 Second derivative matrix not updated -- first step.
 ITU=  0
     Eigenvalues ---    0.02409   0.03062   0.03370   0.05977   0.08903
     Eigenvalues ---    0.11483   0.14278   0.19866   0.30111   0.35087
     Eigenvalues ---    0.61127   0.81664   1.00827   1.49337   1.92763
 Angle between quadratic step and forces=  67.78 degrees.
 Linear search not attempted -- first point.
 B after Tr=     0.001929   -0.000212   -0.000827
         Rot=    1.000000    0.000004   -0.000527    0.000142 Ang=   0.06 deg.
 Variable       Old X    -DE/DX   Delta X   Delta X   Delta X     New X
                                 (Linear)    (Quad)   (Total)
    X1        2.02695  -0.00274   0.00000   0.00116   0.00275   2.02970
    Y1       -0.13266   0.00051   0.00000   0.00071  -0.00008  -0.13273
    Z1       -0.28915   0.00197   0.00000   0.00263  -0.00033  -0.28949
    X2        4.49366   0.00924   0.00000   0.00657   0.00792   4.50159
    Y2       -0.16959  -0.00233   0.00000  -0.00375  -0.00524  -0.17483
    Z2       -0.48072  -0.00890   0.00000  -0.01407  -0.01964  -0.50036
    X3        5.82670  -0.00695   0.00000  -0.00251  -0.00340   5.82329
    Y3       -0.69631   0.00011   0.00000  -0.00255  -0.00443  -0.70074
    Z3       -2.47314   0.00056   0.00000  -0.00941  -0.01638  -2.48952
    X4        7.67994   0.00189   0.00000  -0.01254  -0.01280   7.66714
    Y4       -0.55307   0.00088   0.00000   0.01271   0.01031  -0.54275
    Z4       -1.97975   0.00325   0.00000   0.04755   0.03864  -1.94111
    X5        1.20935  -0.00090   0.00000   0.00504   0.00869   1.21804
    Y5        0.34989   0.00028   0.00000   0.00226   0.00171   0.35160
    Z5        1.52789   0.00105   0.00000   0.00828   0.00617   1.53406
    X6        0.91282  -0.00057   0.00000  -0.00769  -0.00799   0.90483
    Y6       -0.58578  -0.00029   0.00000   0.00106   0.00058  -0.58520
    Z6       -1.95346  -0.00108   0.00000   0.00408   0.00230  -1.95115
    X7        5.41879   0.00004   0.00000   0.00161   0.00483   5.42362
    Y7        0.27567   0.00085   0.00000  -0.00112  -0.00286   0.27281
    Z7        1.15865   0.00315   0.00000  -0.00422  -0.01076   1.14789
         Item               Value     Threshold  Converged?
 Maximum Force            0.009237     0.000450     NO 
 RMS     Force            0.003515     0.000300     NO 
 Maximum Displacement     0.038640     0.001800     NO 
 RMS     Displacement     0.011710     0.001200     NO 
 Predicted change in Energy=-1.707304D-04
 GradGradGradGradGradGradGradGradGradGradGradGradGradGradGradGradGradGrad

 Leave Link  103 at Tue Jan  3 09:04:26 2023, MaxMem=   536870912 cpu:               0.0 elap:               0.0
 (Enter /opt/software/gaussian/g16.c01/l9999.exe)
 Unable to Open any file for archive entry.
 1\1\GINC-GRA738\Force\UwB97XD\Gen\C1H4N2\BHAVUK\03-Jan-2023\0\\#p uwb9
 7xd/chkbasis force guess=read geom=check scf=(maxcycle=900,verytightli
 neq,xqc) integral=grid=ultrafine symmetry=None density=current pop=(cm
 5,hlygat,mbs,npa) output=wfx\\0001_q000_m01_k00_opt_uwb97xd_def2svpd/0
 001_q000_m01_k00_force_uwb97xd_def2svp stable-force\\0,1\C,1.072616869
 5,-0.0701991232,-0.153012633\N,2.3779437514,-0.0897456927,-0.254385493
 1\N,3.0833554789,-0.3684697824,-1.3087287982\H,4.0640493508,-0.2926697
 434,-1.0476368317\H,0.6399628731,0.1851542916,0.8085260928\H,0.4830438
 364,-0.3099796861,-1.0337247999\H,2.8674978397,0.1458797364,0.61313246
 66\\Version=ES64L-G16RevC.01\HF=-149.7579747\S2=0.\S2-1=0.\S2A=0.\RMSD
 =7.371e-10\RMSF=3.515e-03\Dipole=0.2321938,0.3287212,1.2203428\Quadrup
 ole=4.4353837,-1.5704152,-2.8649685,1.7383337,6.4088757,-0.4252571\PG=
 Unknown\\@
 The archive entry for this job was punched.

 Writing a WFNX file to "0001_q000_m01_k00_force_uwb97xd_def2svp.wfx"


 THEORY:  SUPPOSITION WHICH HAS SCIENTIFIC BASIS,
          BUT NOT EXPERIMENTALLY PROVEN.
 FACT:    A THEORY WHICH HAS BEEN PROVEN BY ENOUGH 
          MONEY TO PAY FOR THE EXPERIMENTS.

                          --  THE WIZARD OF ID
 Job cpu time:       0 days  0 hours  0 minutes 12.2 seconds.
 Elapsed time:       0 days  0 hours  0 minutes  5.8 seconds.
 File lengths (MBytes):  RWF=      6 Int=      0 D2E=      0 Chk=      2 Scr=      1
 Normal termination of Gaussian 16 at Tue Jan  3 09:04:26 2023.
