0001_q000_m01_k00_opt_uwb97xd_def2svpd/0001_q000_m01_k00_force_uhf_def2s
Force     UHF                                                         Gen                 
Number of atoms                            I                7
Info1-9                                    I   N=           9
          13           9           0           0           0         100
           5           1           2
Full Title                                 C   N=           8
0001_q000_m01_k00_opt_uwb97xd_def2svpd/0001_q000_m01_k00_for
ce_uhf_def2svpd stable-force        
Route                                      C   N=          15
#p uhf/chkbasis force guess=read geom=check scf=(maxcycle=90
0,verytightlineq,xqc) integral=grid=ultrafine symmetry=None 
density=current pop=(cm5,hlygat,mbs,npa) output=wfx         
Charge                                     I                0
Multiplicity                               I                1
Number of electrons                        I               24
Number of alpha electrons                  I               12
Number of beta electrons                   I               12
Number of basis functions                  I               92
Number of independent functions            I               92
Number of point charges in /Mol/           I                0
Number of translation vectors              I                0
Atomic numbers                             I   N=           7
           6           7           7           1           1           1
           1
Nuclear charges                            R   N=           7
  6.00000000E+00  7.00000000E+00  7.00000000E+00  1.00000000E+00  1.00000000E+00
  1.00000000E+00  1.00000000E+00
Current cartesian coordinates              R   N=          21
  2.02695212E+00 -1.32657117E-01 -2.89151970E-01  4.49366243E+00 -1.69594780E-01
 -4.80718912E-01  5.82669740E+00 -6.96306974E-01 -2.47313900E+00  7.67994023E+00
 -5.53065660E-01 -1.97974669E+00  1.20935456E+00  3.49890902E-01  1.52789288E+00
  9.12820557E-01 -5.85776711E-01 -1.95345676E+00  5.41878558E+00  2.75672749E-01
  1.15865244E+00
Number of symbols in /Mol/                 I                0
Int Atom Types                             I   N=           7
           0           0           0           0           0           0
           0
Force Field                                I                0
Atom Types                                 C   N=           7
                                                            
                        
MM charges                                 R   N=           7
  0.00000000E+00  0.00000000E+00  0.00000000E+00  0.00000000E+00  0.00000000E+00
  0.00000000E+00  0.00000000E+00
Integer atomic weights                     I   N=           7
          12          14          14           1           1           1
           1
Real atomic weights                        R   N=           7
  1.20000000E+01  1.40030740E+01  1.40030740E+01  1.00782504E+00  1.00782504E+00
  1.00782504E+00  1.00782504E+00
Atom fragment info                         I   N=           7
           0           0           0           0           0           0
           0
Atom residue num                           I   N=           7
           0           0           0           0           0           0
           0
Nuclear spins                              I   N=           7
           0           2           2           1           1           1
           1
Nuclear ZEff                               R   N=           7
 -3.60000000E+00 -4.55000000E+00 -4.55000000E+00 -1.00000000E+00 -1.00000000E+00
 -1.00000000E+00 -1.00000000E+00
Nuclear ZNuc                               R   N=           7
  6.00000000E+00  7.00000000E+00  7.00000000E+00  1.00000000E+00  1.00000000E+00
  1.00000000E+00  1.00000000E+00
Nuclear QMom                               R   N=           7
  0.00000000E+00  2.04400000E+00  2.04400000E+00  0.00000000E+00  0.00000000E+00
  0.00000000E+00  0.00000000E+00
Nuclear GFac                               R   N=           7
  0.00000000E+00  4.03761000E-01  4.03761000E-01  2.79284600E+00  2.79284600E+00
  2.79284600E+00  2.79284600E+00
MicOpt                                     I   N=           7
          -1          -1          -1          -1          -1          -1
          -1
Number of residues                         I                0
Number of secondary structures             I                0
Number of contracted shells                I               40
Number of primitive shells                 I               66
Pure/Cartesian d shells                    I                0
Pure/Cartesian f shells                    I                0
Highest angular momentum                   I                2
Largest degree of contraction              I                5
Shell types                                I   N=          40
           0           0           0           0           1           1
          -2          -2           0           0           0           0
           1           1          -2          -2           0           0
           0           0           1           1          -2          -2
           0           0           1           1           0           0
           1           1           0           0           1           1
           0           0           1           1
Number of primitives per shell             I   N=          40
           5           1           1           1           3           1
           1           1           5           1           1           1
           3           1           1           1           5           1
           1           1           3           1           1           1
           3           1           1           1           3           1
           1           1           3           1           1           1
           3           1           1           1
Shell to atom map                          I   N=          40
           1           1           1           1           1           1
           1           1           2           2           2           2
           2           2           2           2           3           3
           3           3           3           3           3           3
           4           4           4           4           5           5
           5           5           6           6           6           6
           7           7           7           7
Primitive exponents                        R   N=          66
  1.23840169E+03  1.86290050E+02  4.22511763E+01  1.16765579E+01  3.59305065E+00
  4.02451474E-01  1.30901827E-01  6.70535403E-02  9.46809706E+00  2.01035451E+00
  5.47710047E-01  1.52686138E-01  8.00000000E-01  1.17131851E-01  1.71284159E+03
  2.57648127E+02  5.84582459E+01  1.61983679E+01  5.00526008E+00  5.87318566E-01
  1.87645923E-01  9.61712415E-02  1.35714702E+01  2.92573729E+00  7.99277508E-01
  2.19543480E-01  1.00000000E+00  1.66977081E-01  1.71284159E+03  2.57648127E+02
  5.84582459E+01  1.61983679E+01  5.00526008E+00  5.87318566E-01  1.87645923E-01
  9.61712415E-02  1.35714702E+01  2.92573729E+00  7.99277508E-01  2.19543480E-01
  1.00000000E+00  1.66977081E-01  1.30107010E+01  1.96225720E+00  4.44537960E-01
  1.21949620E-01  8.00000000E-01  1.17040991E-01  1.30107010E+01  1.96225720E+00
  4.44537960E-01  1.21949620E-01  8.00000000E-01  1.17040991E-01  1.30107010E+01
  1.96225720E+00  4.44537960E-01  1.21949620E-01  8.00000000E-01  1.17040991E-01
  1.30107010E+01  1.96225720E+00  4.44537960E-01  1.21949620E-01  8.00000000E-01
  1.17040991E-01
Contraction coefficients                   R   N=          66
  5.51736505E-03  4.10888286E-02  1.82253821E-01  4.68284594E-01  4.45758173E-01
  1.00000000E+00  1.00000000E+00  1.00000000E+00  5.68883320E-02  3.12940593E-01
  7.60650165E-01  1.00000000E+00  1.00000000E+00  1.00000000E+00 -5.44779958E-03
 -4.06271746E-02 -1.81119623E-01 -4.68439756E-01 -4.46168463E-01  1.00000000E+00
  1.00000000E+00  1.00000000E+00 -5.88481170E-02 -3.20246248E-01 -7.53282265E-01
  1.00000000E+00  1.00000000E+00  1.00000000E+00 -5.44779958E-03 -4.06271746E-02
 -1.81119623E-01 -4.68439756E-01 -4.46168463E-01  1.00000000E+00  1.00000000E+00
  1.00000000E+00 -5.88481170E-02 -3.20246248E-01 -7.53282265E-01  1.00000000E+00
  1.00000000E+00  1.00000000E+00  3.34854848E-02  2.34721871E-01  8.13770285E-01
  1.00000000E+00  1.00000000E+00  1.00000000E+00  3.34854848E-02  2.34721871E-01
  8.13770285E-01  1.00000000E+00  1.00000000E+00  1.00000000E+00  3.34854848E-02
  2.34721871E-01  8.13770285E-01  1.00000000E+00  1.00000000E+00  1.00000000E+00
  3.34854848E-02  2.34721871E-01  8.13770285E-01  1.00000000E+00  1.00000000E+00
  1.00000000E+00
Coordinates of each shell                  R   N=         120
  2.02695212E+00 -1.32657117E-01 -2.89151970E-01  2.02695212E+00 -1.32657117E-01
 -2.89151970E-01  2.02695212E+00 -1.32657117E-01 -2.89151970E-01  2.02695212E+00
 -1.32657117E-01 -2.89151970E-01  2.02695212E+00 -1.32657117E-01 -2.89151970E-01
  2.02695212E+00 -1.32657117E-01 -2.89151970E-01  2.02695212E+00 -1.32657117E-01
 -2.89151970E-01  2.02695212E+00 -1.32657117E-01 -2.89151970E-01  4.49366243E+00
 -1.69594780E-01 -4.80718912E-01  4.49366243E+00 -1.69594780E-01 -4.80718912E-01
  4.49366243E+00 -1.69594780E-01 -4.80718912E-01  4.49366243E+00 -1.69594780E-01
 -4.80718912E-01  4.49366243E+00 -1.69594780E-01 -4.80718912E-01  4.49366243E+00
 -1.69594780E-01 -4.80718912E-01  4.49366243E+00 -1.69594780E-01 -4.80718912E-01
  4.49366243E+00 -1.69594780E-01 -4.80718912E-01  5.82669740E+00 -6.96306974E-01
 -2.47313900E+00  5.82669740E+00 -6.96306974E-01 -2.47313900E+00  5.82669740E+00
 -6.96306974E-01 -2.47313900E+00  5.82669740E+00 -6.96306974E-01 -2.47313900E+00
  5.82669740E+00 -6.96306974E-01 -2.47313900E+00  5.82669740E+00 -6.96306974E-01
 -2.47313900E+00  5.82669740E+00 -6.96306974E-01 -2.47313900E+00  5.82669740E+00
 -6.96306974E-01 -2.47313900E+00  7.67994023E+00 -5.53065660E-01 -1.97974669E+00
  7.67994023E+00 -5.53065660E-01 -1.97974669E+00  7.67994023E+00 -5.53065660E-01
 -1.97974669E+00  7.67994023E+00 -5.53065660E-01 -1.97974669E+00  1.20935456E+00
  3.49890902E-01  1.52789288E+00  1.20935456E+00  3.49890902E-01  1.52789288E+00
  1.20935456E+00  3.49890902E-01  1.52789288E+00  1.20935456E+00  3.49890902E-01
  1.52789288E+00  9.12820557E-01 -5.85776711E-01 -1.95345676E+00  9.12820557E-01
 -5.85776711E-01 -1.95345676E+00  9.12820557E-01 -5.85776711E-01 -1.95345676E+00
  9.12820557E-01 -5.85776711E-01 -1.95345676E+00  5.41878558E+00  2.75672749E-01
  1.15865244E+00  5.41878558E+00  2.75672749E-01  1.15865244E+00  5.41878558E+00
  2.75672749E-01  1.15865244E+00  5.41878558E+00  2.75672749E-01  1.15865244E+00
Num ILSW                                   I              100
ILSW                                       I   N=         100
           1           0           0           0           2           0
           0           0           0           0           0          -1
           5           0           0           0           2           0
           0           0           0           0           1           0
           1           1           0           0           0           0
           0           0      100000           0          -1           0
           0           0           0           0           0           0
           0           0           0           1           0           0
           0 -2000000000           1           0           0           0
           0           0           4          52           0           0
           0           0           0           0           0           0
           0           0           0           7           0           1
           0           0           0           0           0           0
           0           0           0           0           0           0
           0           0           0           0           0           0
           0           0           0           0           0           0
           0           0           0           0
Num RLSW                                   I               52
RLSW                                       R   N=          52
  1.00000000E+00  1.00000000E+00  1.00000000E+00  1.00000000E+00  1.00000000E+00
  0.00000000E+00  0.00000000E+00  1.00000000E+00  0.00000000E+00  0.00000000E+00
  0.00000000E+00  0.00000000E+00  1.00000000E+00  0.00000000E+00  0.00000000E+00
  0.00000000E+00  0.00000000E+00  1.00000000E+00  0.00000000E+00  0.00000000E+00
  0.00000000E+00  0.00000000E+00  1.00000000E+00  0.00000000E+00  0.00000000E+00
  0.00000000E+00  0.00000000E+00  1.00000000E+00  0.00000000E+00  0.00000000E+00
  0.00000000E+00  0.00000000E+00  1.00000000E+00  0.00000000E+00  0.00000000E+00
  0.00000000E+00  0.00000000E+00  0.00000000E+00  1.00000000E+00  1.00000000E+00
  0.00000000E+00  1.00000000E+00  0.00000000E+00  0.00000000E+00  0.00000000E+00
  0.00000000E+00  0.00000000E+00  0.00000000E+00  0.00000000E+00  0.00000000E+00
  0.00000000E+00  0.00000000E+00
MxBond                                     I                3
NBond                                      I   N=           7
           3           3           2           1           1           1
           1
IBond                                      I   N=          21
           2           5           6           1           3           7
           2           4           0           3           0           0
           1           0           0           1           0           0
           2           0           0
RBond                                      R   N=          21
  2.00000000E+00  1.00000000E+00  1.00000000E+00  2.00000000E+00  1.00000000E+00
  1.00000000E+00  1.00000000E+00  1.00000000E+00  0.00000000E+00  1.00000000E+00
  0.00000000E+00  0.00000000E+00  1.00000000E+00  0.00000000E+00  0.00000000E+00
  1.00000000E+00  0.00000000E+00  0.00000000E+00  1.00000000E+00  0.00000000E+00
  0.00000000E+00
Virial Ratio                               R      2.004117301086343E+00
SCF Energy                                 R     -1.488919028012926E+02
Total Energy                               R     -1.488919028012926E+02
S**2                                       R      6.474290004216030E-01
S**2 after annihilation                    R      6.548273834200777E-02
RMS Force                                  R      1.665562654728382E-02
RMS Density                                R      2.363037030661830E-10
Job Status                                 I                1
Nuclear derivative order                   I                1
External E-field                           R   N=          35
  0.00000000E+00  0.00000000E+00  0.00000000E+00  0.00000000E+00  0.00000000E+00
  0.00000000E+00  0.00000000E+00  0.00000000E+00  0.00000000E+00  0.00000000E+00
  0.00000000E+00  0.00000000E+00  0.00000000E+00  0.00000000E+00  0.00000000E+00
  0.00000000E+00  0.00000000E+00  0.00000000E+00  0.00000000E+00  0.00000000E+00
  0.00000000E+00  0.00000000E+00  0.00000000E+00  0.00000000E+00  0.00000000E+00
  0.00000000E+00  0.00000000E+00  0.00000000E+00  0.00000000E+00  0.00000000E+00
  0.00000000E+00  0.00000000E+00  0.00000000E+00  0.00000000E+00  0.00000000E+00
IOpCl                                      I                1
IROHF                                      I                0
Alpha Orbital Energies                     R   N=          92
 -1.56611228E+01 -1.55734650E+01 -1.12408574E+01 -1.35241617E+00 -1.07449058E+00
 -8.36230601E-01 -7.54132383E-01 -6.52140877E-01 -6.15872475E-01 -5.69541870E-01
 -4.62899700E-01 -3.57950823E-01  1.02657778E-01  1.30500242E-01  1.48712440E-01
  1.75255828E-01  2.23104974E-01  2.37753045E-01  2.38981526E-01  2.48968910E-01
  2.94071000E-01  3.05349870E-01  3.20865965E-01  3.43542467E-01  3.70747768E-01
  3.87820492E-01  4.04417644E-01  4.16547049E-01  4.31468698E-01  4.38863366E-01
  4.66845869E-01  4.85564382E-01  4.98374960E-01  5.36077333E-01  5.47756407E-01
  5.60290859E-01  5.85549005E-01  5.93130406E-01  6.04610941E-01  6.38547441E-01
  6.70160495E-01  6.96261085E-01  7.46955326E-01  7.73373534E-01  7.87227141E-01
  8.14058484E-01  8.26599309E-01  8.94862538E-01  9.32028543E-01  1.01369834E+00
  1.08802241E+00  1.14007961E+00  1.22264945E+00  1.26910226E+00  1.31109698E+00
  1.32021175E+00  1.34652392E+00  1.40845699E+00  1.48761517E+00  1.55266636E+00
  1.64419641E+00  1.70382242E+00  1.78460691E+00  1.83197024E+00  1.86221409E+00
  1.88582748E+00  1.89412440E+00  1.99669472E+00  2.01686293E+00  2.06026505E+00
  2.07799015E+00  2.20953304E+00  2.21111230E+00  2.37340042E+00  2.40141471E+00
  2.48275368E+00  2.50258718E+00  2.53715797E+00  2.56372580E+00  2.63558610E+00
  2.75448398E+00  2.84800930E+00  2.90574249E+00  3.04831743E+00  3.08041949E+00
  3.27736816E+00  3.38218682E+00  3.43870818E+00  3.61155337E+00  3.68762665E+00
  3.89771605E+00  4.14059185E+00
Beta Orbital Energies                      R   N=          92
 -1.56545713E+01 -1.55492409E+01 -1.12612113E+01 -1.33011273E+00 -1.05296790E+00
 -8.48048396E-01 -7.53705533E-01 -6.51812174E-01 -5.76104988E-01 -5.65736696E-01
 -4.32552417E-01 -3.00776313E-01  1.01155934E-01  1.29838630E-01  1.55435365E-01
  1.77503844E-01  2.20868882E-01  2.35550081E-01  2.37076926E-01  2.43915011E-01
  2.93358833E-01  3.05320725E-01  3.22860705E-01  3.23275683E-01  3.65750965E-01
  3.87078691E-01  4.04811961E-01  4.16127914E-01  4.27820416E-01  4.36680102E-01
  4.59950908E-01  4.84698064E-01  5.03179788E-01  5.25425886E-01  5.43926901E-01
  5.61383691E-01  5.80785273E-01  6.06148624E-01  6.15400537E-01  6.31685645E-01
  6.65591947E-01  6.96668705E-01  7.45528496E-01  7.74017324E-01  7.88095090E-01
  8.18860121E-01  8.48388702E-01  8.96868460E-01  9.35515678E-01  9.39034124E-01
  1.08451768E+00  1.13643436E+00  1.20907194E+00  1.26433872E+00  1.31347392E+00
  1.34281796E+00  1.35568058E+00  1.41756782E+00  1.53836529E+00  1.55065165E+00
  1.64302079E+00  1.67711130E+00  1.79319123E+00  1.83135197E+00  1.86672585E+00
  1.88090863E+00  1.89165469E+00  1.99450356E+00  2.03018848E+00  2.06124614E+00
  2.07754127E+00  2.20539949E+00  2.20991385E+00  2.36076097E+00  2.39245417E+00
  2.49419335E+00  2.51121854E+00  2.53582747E+00  2.56763741E+00  2.61283613E+00
  2.75457813E+00  2.88057926E+00  2.91713133E+00  3.05732101E+00  3.09687523E+00
  3.31115867E+00  3.37780001E+00  3.43828213E+00  3.61424331E+00  3.70879543E+00
  3.90470712E+00  4.14573237E+00
Alpha MO coefficients                      R   N=        8464
 -2.08650490E-04 -2.03698252E-04 -3.36796008E-02 -3.73948071E-03  4.86657283E-04
  2.66526426E-05  8.87029213E-05 -1.50097099E-02 -1.17601114E-03 -4.05618973E-03
 -7.40725754E-04 -4.74987760E-05 -1.36959230E-04  8.10228646E-04 -3.46817474E-06
  1.78067146E-03  1.26036723E-03 -6.78386922E-04 -5.46054194E-03  2.72948046E-04
  9.89854067E-01 -4.25437333E-02  6.64485702E-02  1.42950214E-02 -2.56664049E-04
  2.27448469E-06  1.38821738E-05 -1.75747450E-03 -2.48153052E-03 -9.21177038E-03
 -2.62596441E-04 -1.80192448E-04 -3.11430751E-04 -6.18141472E-04 -5.60990847E-05
  9.24382870E-04 -8.40515236E-03  2.01776766E-03  5.57548024E-03 -2.18642505E-03
  4.10302735E-03  7.16494269E-04 -2.76092938E-02  5.90902224E-03  2.20174324E-04
 -1.70894266E-04 -6.41811504E-04  5.30389793E-03 -2.73629155E-03 -1.03151089E-02
  4.85747933E-04 -5.67220265E-04  2.64288999E-04  8.61736697E-05 -1.50748764E-04
 -1.83131229E-03  1.19865498E-03 -7.00993909E-04  7.19007090E-04  3.28909337E-04
  3.19231883E-04 -7.19926701E-03  1.36263486E-04 -3.70146348E-05 -1.40955505E-04
  2.18147094E-03 -1.46867651E-04 -5.95222437E-04  6.90259701E-04  6.55132781E-03
  1.03450446E-04 -1.18055502E-05 -4.63143712E-05 -1.59472102E-03 -5.35825948E-04
 -1.96293348E-03  2.92190083E-04 -4.75948823E-04  3.79720220E-04 -2.40321685E-05
 -9.78364328E-05 -1.30957762E-03  5.32609835E-05  2.26848707E-04  1.49294511E-03
 -5.78213366E-03 -7.78150747E-04 -3.91378822E-04 -1.44172771E-03  1.44850581E-03
  7.11238961E-04  2.61927444E-03 -5.77896269E-06  7.60115260E-05 -5.00136310E-03
 -6.62796868E-04  9.26366437E-05 -3.05207162E-05 -1.15826839E-04 -3.01522184E-03
 -1.03432240E-03 -3.78928378E-03 -1.40684848E-05 -3.08123697E-04 -4.55005856E-05
 -1.25800547E-04 -8.42108117E-05 -7.95720509E-04  3.93528392E-03 -6.10511563E-04
 -8.24726786E-04  1.04511232E-03 -3.87476783E-03  7.00626349E-04 -1.51845255E-02
 -9.19702421E-03 -3.71413831E-04  1.06345790E-04  4.04520301E-04 -3.76073998E-03
  1.19554216E-03  4.53857460E-03  5.79926156E-04 -8.69790630E-04  3.57639610E-04
  2.53033364E-04 -2.29827195E-04 -3.73609385E-03 -3.10422708E-03 -1.38593049E-03
  1.74933078E-03 -8.14521092E-04  9.89989282E-01 -4.00236734E-02  4.21092987E-02
  8.27711649E-03  6.88537098E-04  8.16052433E-04  3.02665675E-03 -5.14936708E-03
  1.76972969E-03  6.70889995E-03  4.23670526E-04 -1.43526634E-04  7.35957911E-05
 -4.75865853E-04 -4.39758866E-05 -1.47224878E-03 -4.15977130E-03  2.18032797E-04
  3.40142952E-03 -1.07580296E-03  1.30558920E-03 -1.98992493E-02 -2.02789059E-03
 -1.60770311E-04 -5.54905986E-04  7.34662169E-03  9.06433678E-04  3.21792969E-03
  4.56653568E-04  6.31722464E-03 -7.11714736E-05  3.41212085E-05  1.28627521E-04
 -1.60890454E-03 -3.20821689E-04 -1.16257549E-03  5.80599253E-05 -5.15891244E-03
  3.47717147E-04 -2.25756195E-06 -1.60040784E-05  8.73705883E-04 -4.93037184E-04
 -1.85566807E-03  1.07531048E-03  1.21578295E-02  1.32541061E-04  1.89160245E-05
  6.76549572E-05 -1.63920353E-03 -7.91462844E-04 -2.91382355E-03  9.90530486E-01
  4.49542349E-02 -5.83144697E-02 -1.49523481E-02  1.51305103E-03  1.17994705E-05
  1.18503932E-05  1.84121062E-02 -1.87340947E-05 -4.76925524E-04  5.81071459E-04
  5.61736500E-05  7.75426534E-04  1.67465330E-03  3.60190867E-05 -9.58070350E-03
  1.20994444E-03 -4.48545914E-03  1.04935811E-03  3.30147570E-04  3.06246868E-04
  9.22188290E-04 -9.76928879E-03 -9.83285458E-04  7.47124281E-05  1.99389209E-05
  7.27538801E-05  1.06140773E-02 -4.76644440E-04 -2.00744022E-03 -3.92147676E-06
 -6.35406735E-05 -1.60336796E-04 -5.46280873E-04 -2.36926008E-05  5.59078058E-03
  2.22288704E-03  1.06155647E-03 -6.06322660E-03  5.27147070E-04 -8.03828990E-06
 -1.59626471E-04 -4.39149456E-03  9.19087206E-04  8.32809941E-06  4.17154640E-05
  1.55317060E-04  1.25959492E-03  9.16700414E-05  3.14134671E-04 -6.84556643E-05
 -1.44535430E-04 -7.51568237E-06  9.59239105E-05 -3.76674708E-05  3.26723258E-04
  3.78011664E-04  3.47054928E-04  6.25833955E-04  1.09219968E-04 -4.95776883E-05
  4.97090310E-03 -2.20968624E-04  5.91608284E-05  2.25307957E-04 -2.34619279E-03
  2.82268725E-04  1.10341825E-03 -1.21900936E-03  4.16339024E-02 -5.72433711E-04
  1.98338209E-04  7.52129090E-04  6.45132990E-03 -1.71877907E-03 -6.55268808E-03
 -1.00734569E-03  3.64798670E-02 -6.29766218E-04 -1.95146784E-04 -7.13375572E-04
  8.23978866E-03  1.28823180E-03  4.61827405E-03 -1.91577756E-04 -7.30607560E-03
 -5.01395601E-04 -8.40338307E-05 -3.02292105E-04  2.40184724E-03  3.93161794E-04
  1.41299579E-03 -7.19294201E-02  1.30065750E-01 -3.40118774E-02  1.06809122E-02
  8.99541751E-02 -2.28306365E-03 -1.04726326E-02  1.57454328E-02 -3.81860657E-03
 -1.45825392E-02 -6.71195482E-03 -3.41042951E-03  7.62395910E-04  1.43417731E-02
 -7.45664146E-04 -5.18923880E-03 -3.52287521E-03 -1.71855341E-03  3.12154737E-03
 -9.11037363E-04  2.31158760E-01  4.67001541E-01  1.79937963E-01 -8.01526968E-02
 -1.79524421E-02  1.68867217E-02  6.33377449E-02  6.75852437E-03 -1.26316192E-02
 -4.72292516E-02  4.01195842E-03 -1.10704864E-02  5.21315309E-03  1.13427590E-02
 -2.82880719E-03 -1.00884112E-02 -3.63082885E-02 -4.30023118E-03  3.45297501E-03
 -9.70731615E-03  1.61183015E-01  3.23010842E-01  6.79757296E-02  2.34602457E-02
  4.52473277E-02 -3.00554422E-02 -1.13017571E-01 -2.50956730E-02  3.04784022E-03
  1.19101588E-02  7.94433298E-03 -1.18140225E-02  4.15934399E-03  9.04410601E-04
 -3.15248824E-03  9.92427725E-04 -4.73757311E-03  2.36287674E-04 -7.90100806E-04
 -1.27984907E-03  8.32286842E-02 -4.48047778E-03 -1.46459266E-02 -1.93132265E-04
 -3.99632443E-04  1.69326256E-03 -3.96855945E-04 -1.51565439E-03  2.07801491E-02
  2.30932125E-02  1.91111911E-03 -9.56102298E-04 -3.60662432E-03  5.07101630E-03
 -1.50960461E-03 -5.73719910E-03  2.20097251E-02  2.90754877E-02  3.58299779E-03
  1.03600034E-03  3.78257372E-03  1.23797639E-02  9.14931426E-04  3.13567139E-03
  1.16141665E-01  7.46134519E-02 -8.24609079E-03 -4.10074397E-03 -1.51041369E-02
 -4.72722727E-03 -4.02410918E-03 -1.48950634E-02  1.36522755E-01 -2.61484362E-01
  9.19227666E-02  1.16048863E-02 -1.27050740E-01 -4.05408925E-03 -1.23474951E-02
  1.48254424E-02  5.40981597E-03  1.98467931E-02  7.02112790E-03 -1.51224056E-03
 -2.59441183E-03 -2.10995412E-02 -6.57241507E-04  2.11276235E-03  1.37564891E-02
  3.76550991E-03  9.04698797E-03  3.80248857E-03 -1.03311436E-01 -2.10168762E-01
 -1.76203846E-01  4.05555725E-02 -2.28122261E-01  4.35706679E-02  1.67394478E-01
  1.16438463E-01 -1.42776848E-02 -5.57680802E-02  9.78209545E-03 -1.02075722E-02
  3.05838364E-03 -6.12376173E-03 -2.80554451E-03  1.17059893E-02  2.41955144E-02
  8.01932375E-03  6.89550365E-03  6.58490198E-03  1.88530038E-01  3.91339960E-01
  1.97940375E-01 -2.86104098E-02 -5.33893324E-02 -1.57496927E-02 -5.75377500E-02
 -5.20223300E-04  5.06099838E-03  1.88755482E-02  2.33008437E-04  1.18363105E-03
 -5.67795961E-05 -6.27559235E-04  3.10100004E-04  1.01220886E-02 -7.55939924E-03
 -1.94463604E-03 -2.40797814E-02 -2.31371155E-03  1.68561806E-01  3.61981305E-02
 -2.00603476E-02 -1.41881169E-03 -4.84974769E-03  2.34411703E-03 -1.26598635E-03
 -4.77024900E-03 -7.75872052E-02 -5.52113300E-02 -5.71688076E-03  2.49844674E-03
  9.44074307E-03 -1.59041047E-02  2.22935270E-03  8.66076340E-03 -5.48843267E-02
 -4.75284677E-02 -6.16322891E-03 -1.74478125E-03 -6.36778222E-03  1.02531925E-03
 -3.10429095E-03 -1.15882958E-02 -1.03136774E-01 -6.43112831E-02  1.02627643E-02
  2.49182797E-03  9.06294573E-03  6.65128880E-03  3.09480248E-03  1.13891433E-02
  1.51486427E-01 -3.09514857E-01 -3.98170982E-02  2.93546185E-02  1.78977500E-02
  1.98882270E-02  7.37090029E-02  8.03123401E-03 -2.07033695E-02 -7.73521382E-02
 -5.90409834E-03  6.01709860E-03 -5.76691666E-03 -9.86252033E-03  1.48915566E-03
  5.05999125E-02 -3.90148793E-02  1.99895950E-02 -1.75939171E-02 -1.06448797E-02
  7.53746705E-02  1.59686419E-01  9.28606400E-02 -7.23242526E-02 -2.50856727E-01
 -6.50022017E-02 -2.36786717E-01  1.37446821E-01  2.56364453E-02  9.25397713E-02
  8.63830521E-03  7.31302065E-03  2.84675841E-03 -5.28690689E-03  1.90450623E-03
 -3.68179691E-02 -9.16398161E-02 -1.68793009E-02  7.53583024E-03 -2.45255296E-02
 -7.25370728E-02 -1.58943217E-01 -1.62722965E-01  4.61822766E-02 -3.33414075E-02
 -2.02565763E-02 -7.47704499E-02  2.07292909E-03  8.58514380E-04  3.15340305E-03
  1.15453540E-02  3.53599768E-03  5.02209261E-03 -2.70853050E-03  9.24780696E-04
 -1.11742997E-02 -1.28540725E-03  8.67981265E-04  2.23848633E-02 -8.04689380E-05
 -2.62733189E-02 -6.19730207E-02  2.08462363E-03  9.46120766E-04  3.48092630E-03
  1.42597619E-02  6.58181826E-04  2.14162177E-03 -1.03269383E-01 -6.19948808E-02
 -4.45370339E-03  2.80263225E-03  1.05466848E-02 -3.86586789E-03 -3.89010261E-03
 -1.43937794E-02 -1.90519154E-01 -1.01306887E-01 -9.30448066E-03 -4.01041824E-03
 -1.47416094E-02 -4.44663011E-02  2.75235714E-03  1.12316978E-02  3.15710233E-01
  1.89811774E-01 -1.19312457E-02 -6.83151684E-03 -2.52012901E-02 -9.44204704E-03
 -5.95215169E-03 -2.19797475E-02  8.92224994E-02 -1.59533245E-01  7.37429819E-02
 -6.99833905E-04  1.07962949E-01 -3.39188787E-02 -1.28827177E-01  2.53199063E-02
  2.18567048E-02  8.09203270E-02 -1.06594476E-02 -4.98950885E-03 -5.77611588E-03
 -1.40515114E-03 -1.36485253E-03  1.45625845E-02  6.63653653E-02  3.66551624E-03
 -1.40732529E-02  1.76431357E-02  6.40065581E-02  1.52052510E-01  1.44360359E-01
  2.28819634E-02  9.03810488E-03  7.15611221E-02  2.66554774E-01 -1.10344729E-03
 -4.16760333E-02 -1.55334862E-01  7.39224317E-03 -3.32881658E-03  2.83715846E-03
 -2.91080004E-03 -9.23150805E-04  3.71386482E-02  8.83515150E-02  6.14272728E-03
 -4.51528292E-02  2.31828283E-02 -4.89692785E-02 -9.42392626E-02 -7.25041230E-02
 -4.56318572E-02  3.18517144E-01 -2.40595618E-02 -9.66398715E-02 -9.09368447E-02
  1.49421033E-02  5.76779048E-02  1.18123564E-02 -2.45675209E-02  5.26254713E-03
 -1.68054654E-03 -6.60282609E-03  1.67910218E-02  9.47677548E-03  7.34242683E-03
 -3.90821396E-03  2.50795682E-03 -2.66631645E-01  2.49973917E-02  2.34673065E-02
  2.27271332E-03  7.95808587E-03 -2.89520670E-02  4.82727441E-04  2.43070001E-03
 -2.18081521E-01 -1.35825494E-01 -6.17601078E-03  3.99341802E-03  1.50257406E-02
 -5.27553757E-02  4.83581070E-03  1.91713382E-02 -5.47202219E-02 -5.25672412E-02
 -6.23103982E-04 -2.02717838E-03 -7.54232486E-03  7.71844763E-03 -3.09024520E-04
 -1.29883050E-03 -1.28255091E-01 -1.74434639E-01  6.66121242E-03  2.23320130E-03
  8.17756059E-03  1.90677877E-02  8.72164737E-03  3.20888796E-02  5.14349376E-02
 -9.26570855E-02 -9.75635130E-02  1.36711096E-02  3.44526401E-01  1.32266380E-03
 -2.67041417E-03  7.64465912E-02  1.86537895E-03  5.26197645E-03 -2.29913463E-02
 -3.98978223E-03 -7.36043908E-03  1.44527876E-02 -9.12832567E-04  2.79517665E-02
  1.47137877E-02  8.10488489E-03 -2.07211037E-02  3.71406742E-03  7.87821679E-03
  2.32528372E-02  2.41751645E-02 -1.21238307E-01  3.60966183E-01 -2.09679429E-02
 -8.59531152E-02 -1.97842484E-01  1.91131587E-02  7.55024692E-02 -1.12587971E-02
  1.90265264E-03 -4.53883482E-03  3.75691125E-03  5.46436158E-04 -1.42226472E-02
  2.84488219E-02 -1.19279558E-02 -1.72944374E-02  7.40854888E-03  4.65400702E-02
  9.67630165E-02  1.98814451E-01  3.30680639E-02 -1.58437602E-01  4.85045154E-02
  1.84328262E-01  4.32795263E-02 -1.63377618E-02 -6.18844731E-02 -1.97165629E-02
  1.04836914E-02 -8.64140664E-03  4.00793566E-03  2.84584245E-03 -8.59230958E-03
 -3.69026509E-03 -6.14852658E-03 -6.30099307E-03 -1.07362087E-03  1.45214873E-01