0001_q000_m01_k00_opt_uwb97xd_def2svpd/0001_q000_m01_k00_force_ub3lyp_de
Force     UB3LYP                                                      Gen                 
Number of atoms                            I                7
Info1-9                                    I   N=           9
          13           9           0           0           0         100
           5          18        -502
Full Title                                 C   N=           8
0001_q000_m01_k00_opt_uwb97xd_def2svpd/0001_q000_m01_k00_for
ce_ub3lyp_def2svpd stable-force     
Route                                      C   N=          15
#p ub3lyp/chkbasis force guess=read geom=check scf=(maxcycle
=900,verytightlineq,xqc) integral=grid=ultrafine symmetry=No
ne density=current pop=(cm5,hlygat,mbs,npa) output=wfx      
Charge                                     I                0
Multiplicity                               I                1
Number of electrons                        I               24
Number of alpha electrons                  I               12
Number of beta electrons                   I               12
Number of basis functions                  I               92
Number of independent functions            I               92
Number of point charges in /Mol/           I                0
Number of translation vectors              I                0
Atomic numbers                             I   N=           7
           6           7           7           1           1           1
           1
Nuclear charges                            R   N=           7
  6.00000000E+00  7.00000000E+00  7.00000000E+00  1.00000000E+00  1.00000000E+00
  1.00000000E+00  1.00000000E+00
Current cartesian coordinates              R   N=          21
  2.02695212E+00 -1.32657117E-01 -2.89151970E-01  4.49366243E+00 -1.69594780E-01
 -4.80718912E-01  5.82669740E+00 -6.96306974E-01 -2.47313900E+00  7.67994023E+00
 -5.53065660E-01 -1.97974669E+00  1.20935456E+00  3.49890902E-01  1.52789288E+00
  9.12820557E-01 -5.85776711E-01 -1.95345676E+00  5.41878558E+00  2.75672749E-01
  1.15865244E+00
Number of symbols in /Mol/                 I                0
Int Atom Types                             I   N=           7
           0           0           0           0           0           0
           0
Force Field                                I                0
Atom Types                                 C   N=           7
                                                            
                        
MM charges                                 R   N=           7
  0.00000000E+00  0.00000000E+00  0.00000000E+00  0.00000000E+00  0.00000000E+00
  0.00000000E+00  0.00000000E+00
Integer atomic weights                     I   N=           7
          12          14          14           1           1           1
           1
Real atomic weights                        R   N=           7
  1.20000000E+01  1.40030740E+01  1.40030740E+01  1.00782504E+00  1.00782504E+00
  1.00782504E+00  1.00782504E+00
Atom fragment info                         I   N=           7
           0           0           0           0           0           0
           0
Atom residue num                           I   N=           7
           0           0           0           0           0           0
           0
Nuclear spins                              I   N=           7
           0           2           2           1           1           1
           1
Nuclear ZEff                               R   N=           7
 -3.60000000E+00 -4.55000000E+00 -4.55000000E+00 -1.00000000E+00 -1.00000000E+00
 -1.00000000E+00 -1.00000000E+00
Nuclear ZNuc                               R   N=           7
  6.00000000E+00  7.00000000E+00  7.00000000E+00  1.00000000E+00  1.00000000E+00
  1.00000000E+00  1.00000000E+00
Nuclear QMom                               R   N=           7
  0.00000000E+00  2.04400000E+00  2.04400000E+00  0.00000000E+00  0.00000000E+00
  0.00000000E+00  0.00000000E+00
Nuclear GFac                               R   N=           7
  0.00000000E+00  4.03761000E-01  4.03761000E-01  2.79284600E+00  2.79284600E+00
  2.79284600E+00  2.79284600E+00
MicOpt                                     I   N=           7
          -1          -1          -1          -1          -1          -1
          -1
Number of residues                         I                0
Number of secondary structures             I                0
Number of contracted shells                I               40
Number of primitive shells                 I               66
Pure/Cartesian d shells                    I                0
Pure/Cartesian f shells                    I                0
Highest angular momentum                   I                2
Largest degree of contraction              I                5
Shell types                                I   N=          40
           0           0           0           0           1           1
          -2          -2           0           0           0           0
           1           1          -2          -2           0           0
           0           0           1           1          -2          -2
           0           0           1           1           0           0
           1           1           0           0           1           1
           0           0           1           1
Number of primitives per shell             I   N=          40
           5           1           1           1           3           1
           1           1           5           1           1           1
           3           1           1           1           5           1
           1           1           3           1           1           1
           3           1           1           1           3           1
           1           1           3           1           1           1
           3           1           1           1
Shell to atom map                          I   N=          40
           1           1           1           1           1           1
           1           1           2           2           2           2
           2           2           2           2           3           3
           3           3           3           3           3           3
           4           4           4           4           5           5
           5           5           6           6           6           6
           7           7           7           7
Primitive exponents                        R   N=          66
  1.23840169E+03  1.86290050E+02  4.22511763E+01  1.16765579E+01  3.59305065E+00
  4.02451474E-01  1.30901827E-01  6.70535403E-02  9.46809706E+00  2.01035451E+00
  5.47710047E-01  1.52686138E-01  8.00000000E-01  1.17131851E-01  1.71284159E+03
  2.57648127E+02  5.84582459E+01  1.61983679E+01  5.00526008E+00  5.87318566E-01
  1.87645923E-01  9.61712415E-02  1.35714702E+01  2.92573729E+00  7.99277508E-01
  2.19543480E-01  1.00000000E+00  1.66977081E-01  1.71284159E+03  2.57648127E+02
  5.84582459E+01  1.61983679E+01  5.00526008E+00  5.87318566E-01  1.87645923E-01
  9.61712415E-02  1.35714702E+01  2.92573729E+00  7.99277508E-01  2.19543480E-01
  1.00000000E+00  1.66977081E-01  1.30107010E+01  1.96225720E+00  4.44537960E-01
  1.21949620E-01  8.00000000E-01  1.17040991E-01  1.30107010E+01  1.96225720E+00
  4.44537960E-01  1.21949620E-01  8.00000000E-01  1.17040991E-01  1.30107010E+01
  1.96225720E+00  4.44537960E-01  1.21949620E-01  8.00000000E-01  1.17040991E-01
  1.30107010E+01  1.96225720E+00  4.44537960E-01  1.21949620E-01  8.00000000E-01
  1.17040991E-01
Contraction coefficients                   R   N=          66
  5.51736505E-03  4.10888286E-02  1.82253821E-01  4.68284594E-01  4.45758173E-01
  1.00000000E+00  1.00000000E+00  1.00000000E+00  5.68883320E-02  3.12940593E-01
  7.60650165E-01  1.00000000E+00  1.00000000E+00  1.00000000E+00 -5.44779958E-03
 -4.06271746E-02 -1.81119623E-01 -4.68439756E-01 -4.46168463E-01  1.00000000E+00
  1.00000000E+00  1.00000000E+00 -5.88481170E-02 -3.20246248E-01 -7.53282265E-01
  1.00000000E+00  1.00000000E+00  1.00000000E+00 -5.44779958E-03 -4.06271746E-02
 -1.81119623E-01 -4.68439756E-01 -4.46168463E-01  1.00000000E+00  1.00000000E+00
  1.00000000E+00 -5.88481170E-02 -3.20246248E-01 -7.53282265E-01  1.00000000E+00
  1.00000000E+00  1.00000000E+00  3.34854848E-02  2.34721871E-01  8.13770285E-01
  1.00000000E+00  1.00000000E+00  1.00000000E+00  3.34854848E-02  2.34721871E-01
  8.13770285E-01  1.00000000E+00  1.00000000E+00  1.00000000E+00  3.34854848E-02
  2.34721871E-01  8.13770285E-01  1.00000000E+00  1.00000000E+00  1.00000000E+00
  3.34854848E-02  2.34721871E-01  8.13770285E-01  1.00000000E+00  1.00000000E+00
  1.00000000E+00
Coordinates of each shell                  R   N=         120
  2.02695212E+00 -1.32657117E-01 -2.89151970E-01  2.02695212E+00 -1.32657117E-01
 -2.89151970E-01  2.02695212E+00 -1.32657117E-01 -2.89151970E-01  2.02695212E+00
 -1.32657117E-01 -2.89151970E-01  2.02695212E+00 -1.32657117E-01 -2.89151970E-01
  2.02695212E+00 -1.32657117E-01 -2.89151970E-01  2.02695212E+00 -1.32657117E-01
 -2.89151970E-01  2.02695212E+00 -1.32657117E-01 -2.89151970E-01  4.49366243E+00
 -1.69594780E-01 -4.80718912E-01  4.49366243E+00 -1.69594780E-01 -4.80718912E-01
  4.49366243E+00 -1.69594780E-01 -4.80718912E-01  4.49366243E+00 -1.69594780E-01
 -4.80718912E-01  4.49366243E+00 -1.69594780E-01 -4.80718912E-01  4.49366243E+00
 -1.69594780E-01 -4.80718912E-01  4.49366243E+00 -1.69594780E-01 -4.80718912E-01
  4.49366243E+00 -1.69594780E-01 -4.80718912E-01  5.82669740E+00 -6.96306974E-01
 -2.47313900E+00  5.82669740E+00 -6.96306974E-01 -2.47313900E+00  5.82669740E+00
 -6.96306974E-01 -2.47313900E+00  5.82669740E+00 -6.96306974E-01 -2.47313900E+00
  5.82669740E+00 -6.96306974E-01 -2.47313900E+00  5.82669740E+00 -6.96306974E-01
 -2.47313900E+00  5.82669740E+00 -6.96306974E-01 -2.47313900E+00  5.82669740E+00
 -6.96306974E-01 -2.47313900E+00  7.67994023E+00 -5.53065660E-01 -1.97974669E+00
  7.67994023E+00 -5.53065660E-01 -1.97974669E+00  7.67994023E+00 -5.53065660E-01
 -1.97974669E+00  7.67994023E+00 -5.53065660E-01 -1.97974669E+00  1.20935456E+00
  3.49890902E-01  1.52789288E+00  1.20935456E+00  3.49890902E-01  1.52789288E+00
  1.20935456E+00  3.49890902E-01  1.52789288E+00  1.20935456E+00  3.49890902E-01
  1.52789288E+00  9.12820557E-01 -5.85776711E-01 -1.95345676E+00  9.12820557E-01
 -5.85776711E-01 -1.95345676E+00  9.12820557E-01 -5.85776711E-01 -1.95345676E+00
  9.12820557E-01 -5.85776711E-01 -1.95345676E+00  5.41878558E+00  2.75672749E-01
  1.15865244E+00  5.41878558E+00  2.75672749E-01  1.15865244E+00  5.41878558E+00
  2.75672749E-01  1.15865244E+00  5.41878558E+00  2.75672749E-01  1.15865244E+00
Num ILSW                                   I              100
ILSW                                       I   N=         100
           1           0           0           0           2           0
           0           0           0           0         402          -1
           5           0           0           0           2           0
           0           0           0           0           1           0
           1           1           0           0           0           0
           0           0      100000           0          -1           0
           0           0           0           0           0           0
           0           0           0           1           0           0
           0 -2000000000           1           0           0           0
           0           0           4          52           0           0
           0           0           5           0           0           0
           0           0           0           7           0           1
           0           0           0           0           0           0
           0           0           0           0           0           0
           0           0           0           0           0           0
           0           0           0           0           0           0
           0           0           0           0
Num RLSW                                   I               52
RLSW                                       R   N=          52
  8.00000000E-01  7.20000000E-01  1.00000000E+00  8.10000000E-01  2.00000000E-01
  0.00000000E+00  0.00000000E+00  1.00000000E+00  0.00000000E+00  0.00000000E+00
  0.00000000E+00  0.00000000E+00  1.00000000E+00  0.00000000E+00  0.00000000E+00
  0.00000000E+00  0.00000000E+00  1.00000000E+00  0.00000000E+00  0.00000000E+00
  0.00000000E+00  0.00000000E+00  1.00000000E+00  0.00000000E+00  0.00000000E+00
  0.00000000E+00  0.00000000E+00  1.00000000E+00  0.00000000E+00  0.00000000E+00
  0.00000000E+00  0.00000000E+00  1.00000000E+00  0.00000000E+00  0.00000000E+00
  0.00000000E+00  0.00000000E+00  0.00000000E+00  1.00000000E+00  1.00000000E+00
  0.00000000E+00  1.00000000E+00  0.00000000E+00  0.00000000E+00  0.00000000E+00
  0.00000000E+00  0.00000000E+00  0.00000000E+00  0.00000000E+00  0.00000000E+00
  0.00000000E+00  0.00000000E+00
MxBond                                     I                3
NBond                                      I   N=           7
           3           3           2           1           1           1
           1
IBond                                      I   N=          21
           2           5           6           1           3           7
           2           4           0           3           0           0
           1           0           0           1           0           0
           2           0           0
RBond                                      R   N=          21
  2.00000000E+00  1.00000000E+00  1.00000000E+00  2.00000000E+00  1.00000000E+00
  1.00000000E+00  1.00000000E+00  1.00000000E+00  0.00000000E+00  1.00000000E+00
  0.00000000E+00  0.00000000E+00  1.00000000E+00  0.00000000E+00  0.00000000E+00
  1.00000000E+00  0.00000000E+00  0.00000000E+00  1.00000000E+00  0.00000000E+00
  0.00000000E+00
Virial Ratio                               R      2.010134487875522E+00
SCF Energy                                 R     -1.498331878499866E+02
Total Energy                               R     -1.498331878499866E+02
S**2                                       R     -7.105427357601002E-15
S**2 after annihilation                    R      6.146194664324746E-13
RMS Force                                  R      2.453153038937103E-03
RMS Density                                R      5.534833147857456E-09
Job Status                                 I                1
Nuclear derivative order                   I                1
External E-field                           R   N=          35
  0.00000000E+00  0.00000000E+00  0.00000000E+00  0.00000000E+00  0.00000000E+00
  0.00000000E+00  0.00000000E+00  0.00000000E+00  0.00000000E+00  0.00000000E+00
  0.00000000E+00  0.00000000E+00  0.00000000E+00  0.00000000E+00  0.00000000E+00
  0.00000000E+00  0.00000000E+00  0.00000000E+00  0.00000000E+00  0.00000000E+00
  0.00000000E+00  0.00000000E+00  0.00000000E+00  0.00000000E+00  0.00000000E+00
  0.00000000E+00  0.00000000E+00  0.00000000E+00  0.00000000E+00  0.00000000E+00
  0.00000000E+00  0.00000000E+00  0.00000000E+00  0.00000000E+00  0.00000000E+00
IOpCl                                      I                1
IROHF                                      I                0
Alpha Orbital Energies                     R   N=          92
 -1.44537562E+01 -1.43154279E+01 -1.02140335E+01 -1.03485880E+00 -8.06479061E-01
 -6.45726750E-01 -5.67393357E-01 -4.88777147E-01 -4.35658545E-01 -4.22170382E-01
 -2.84793170E-01 -2.04703072E-01 -2.76351437E-02  3.28748425E-04  4.52053427E-02
  7.57268439E-02  1.13647178E-01  1.29868882E-01  1.32458150E-01  1.40957013E-01
  1.90336984E-01  2.02190338E-01  2.14700678E-01  2.16493842E-01  2.54163741E-01
  2.66853749E-01  2.80942974E-01  3.00267073E-01  3.15178765E-01  3.21609938E-01
  3.42717060E-01  3.46679706E-01  3.73406633E-01  4.01243739E-01  4.22220410E-01
  4.31040314E-01  4.40927759E-01  4.49256750E-01  4.72341891E-01  4.84007456E-01
  5.11129099E-01  5.52310371E-01  5.92604086E-01  6.16525619E-01  6.37874205E-01
  6.48526120E-01  6.74348068E-01  7.31337951E-01  7.48688114E-01  7.63163874E-01
  8.39525297E-01  8.87561929E-01  9.88933734E-01  1.02552300E+00  1.05751547E+00
  1.09003465E+00  1.11152057E+00  1.15728163E+00  1.23741188E+00  1.29703362E+00
  1.38780522E+00  1.43113646E+00  1.52160940E+00  1.55588919E+00  1.59099295E+00
  1.61688180E+00  1.62209971E+00  1.72085043E+00  1.76583126E+00  1.78500840E+00
  1.79216999E+00  1.90632400E+00  1.93453482E+00  2.05199004E+00  2.08450868E+00
  2.17269056E+00  2.18139148E+00  2.22594923E+00  2.24337748E+00  2.30624738E+00
  2.41408079E+00  2.52492856E+00  2.54984849E+00  2.70143170E+00  2.72196727E+00
  2.91169484E+00  3.01983302E+00  3.07488238E+00  3.23007599E+00  3.31727480E+00
  3.49577258E+00  3.73217129E+00
Beta Orbital Energies                      R   N=          92
 -1.44537562E+01 -1.43154279E+01 -1.02140335E+01 -1.03485880E+00 -8.06479061E-01
 -6.45726750E-01 -5.67393357E-01 -4.88777147E-01 -4.35658545E-01 -4.22170382E-01
 -2.84793170E-01 -2.04703072E-01 -2.76351437E-02  3.28748425E-04  4.52053427E-02
  7.57268439E-02  1.13647178E-01  1.29868882E-01  1.32458150E-01  1.40957013E-01
  1.90336984E-01  2.02190338E-01  2.14700678E-01  2.16493842E-01  2.54163741E-01
  2.66853749E-01  2.80942974E-01  3.00267073E-01  3.15178765E-01  3.21609938E-01
  3.42717060E-01  3.46679706E-01  3.73406633E-01  4.01243739E-01  4.22220410E-01
  4.31040314E-01  4.40927759E-01  4.49256750E-01  4.72341891E-01  4.84007456E-01
  5.11129099E-01  5.52310371E-01  5.92604086E-01  6.16525619E-01  6.37874205E-01
  6.48526120E-01  6.74348068E-01  7.31337951E-01  7.48688114E-01  7.63163874E-01
  8.39525297E-01  8.87561929E-01  9.88933734E-01  1.02552300E+00  1.05751547E+00
  1.09003465E+00  1.11152057E+00  1.15728163E+00  1.23741188E+00  1.29703362E+00
  1.38780522E+00  1.43113646E+00  1.52160940E+00  1.55588919E+00  1.59099295E+00
  1.61688180E+00  1.62209971E+00  1.72085043E+00  1.76583126E+00  1.78500840E+00
  1.79216999E+00  1.90632400E+00  1.93453482E+00  2.05199004E+00  2.08450868E+00
  2.17269056E+00  2.18139148E+00  2.22594923E+00  2.24337748E+00  2.30624738E+00
  2.41408079E+00  2.52492856E+00  2.54984849E+00  2.70143170E+00  2.72196727E+00
  2.91169484E+00  3.01983302E+00  3.07488238E+00  3.23007599E+00  3.31727480E+00
  3.49577258E+00  3.73217129E+00
Alpha MO coefficients                      R   N=        8464
 -2.89750556E-04 -2.10264162E-04 -4.92396540E-02 -5.87525326E-03  9.05896306E-04
  3.36809985E-05  1.05694519E-04 -2.14207050E-02 -1.58424051E-03 -5.43810274E-03
 -1.27247639E-03 -1.26606871E-04 -2.55601151E-04  1.32264188E-03 -1.88759276E-05
  2.55146441E-03  1.52335867E-03 -1.04502415E-03 -8.06997651E-03  3.12283477E-04
  9.87797028E-01 -5.37083725E-02  9.31358177E-02  1.93910542E-02 -3.15621581E-04
  3.60408423E-05  1.40986829E-04 -3.31182227E-03 -3.58015312E-03 -1.32729147E-02
 -5.89340379E-04 -3.21360842E-04 -5.87128143E-04 -1.00249110E-03 -9.89167114E-05
  1.03950546E-03 -1.19354004E-02  2.74818315E-03  7.98531625E-03 -3.10413525E-03
  7.50916195E-04  1.40167613E-03 -3.89287139E-02  8.69746970E-03  4.75129313E-04
 -3.07651622E-04 -1.15714285E-03  7.39362335E-03 -3.86996350E-03 -1.45864440E-02
  8.23234359E-04 -9.97835361E-04  4.48080533E-04  1.47483206E-04 -2.65268662E-04
 -2.66778216E-03  1.79980482E-03 -1.04114101E-03  9.77094561E-04  4.92676343E-04
  5.36245280E-04 -1.04318179E-02  1.40632091E-04 -4.82004060E-05 -1.82745825E-04
  3.17049232E-03 -2.29195927E-04 -9.23762868E-04  1.06855424E-03  9.26031083E-03
  2.49112323E-04 -2.77038832E-05 -1.08796983E-04 -2.31940974E-03 -7.53638056E-04
 -2.75923732E-03  5.36448589E-04  6.48072495E-04  6.44561547E-04 -2.14881893E-05
 -9.41432627E-05 -1.82931877E-03  1.51877842E-04  6.05623558E-04  2.69793683E-03
 -6.25714941E-03 -1.28773280E-03 -6.56059651E-04 -2.41709702E-03  1.61692671E-03
  9.11778919E-04  3.36306307E-03 -4.94716926E-06 -3.03225733E-05 -8.54436116E-03
 -9.94169203E-04  1.12045806E-04 -4.30685807E-05 -1.63036677E-04 -4.54951765E-03
 -1.60285856E-03 -5.87490404E-03 -1.00991591E-05 -4.91663997E-04 -5.33724701E-05
 -1.55606311E-04 -1.33813560E-04 -9.83629332E-04  5.09634575E-03 -8.49223778E-04
 -1.35170207E-03  1.35002727E-03 -1.99099190E-04  9.84559516E-04 -1.94829703E-02
 -1.47093549E-02 -6.84147928E-04  2.12448546E-04  8.06854368E-04 -4.81998455E-03
  1.59386241E-03  6.04647587E-03  9.04098760E-04 -1.33425892E-03  5.53899163E-04
  3.81319559E-04 -3.52626111E-04 -6.00959005E-03 -5.17432478E-03 -2.18585396E-03
  2.96839885E-03 -1.35688082E-03  9.88190236E-01 -4.91543551E-02  5.61134359E-02
  1.22212246E-02  8.01314357E-04  8.57400225E-04  3.17830584E-03 -7.91464729E-03
  1.95982403E-03  7.47783732E-03  3.92354711E-04 -7.45314439E-05 -1.75209698E-04
 -1.28382645E-03 -3.53373735E-05 -2.63562056E-03 -5.87253597E-03  8.32780340E-05
  4.99032419E-03 -1.51690186E-03  2.43033251E-03 -2.76407135E-02 -3.12338662E-03
 -2.34112445E-04 -8.04322343E-04  1.00959096E-02  1.32280254E-03  4.70975612E-03
  6.74731660E-04  8.96072154E-03 -9.09451858E-05  5.27048587E-05  1.98284328E-04
 -2.19685999E-03 -4.82554992E-04 -1.75336899E-03  6.49370313E-05 -6.68668177E-03
  5.04683362E-04  7.46928910E-07 -8.23143961E-06  1.13924606E-03 -6.54556706E-04
 -2.46303964E-03  1.57869149E-03  1.94593651E-02  1.92384280E-04  2.28350849E-05
  8.09797936E-05 -2.98312045E-03 -1.20771785E-03 -4.43576194E-03  9.87198335E-01
  6.45306663E-02 -8.24979551E-02 -2.27531978E-02  1.68796007E-03  7.06133110E-06
 -9.28502473E-06  2.95769814E-02 -6.86061493E-05 -9.08724971E-04  8.86361565E-04
  1.48724015E-04  1.02313278E-03  2.00061624E-03  6.50900968E-05 -1.57208646E-02
  1.84858179E-03 -7.10895488E-03  2.59389157E-03  5.15710204E-04  4.65101728E-06
  1.16030927E-03 -1.64992068E-02  1.40435324E-03 -3.60479978E-04  1.60108583E-05
  6.76913947E-05  1.87449858E-02 -9.48134391E-04 -3.94196764E-03  4.29116331E-04
 -1.90197975E-05 -1.84365294E-04 -1.38041579E-03 -2.15594482E-05  1.04805086E-02
  3.41421275E-03  2.40257705E-03 -9.92139857E-03  8.03748620E-04 -3.98618479E-06
 -1.97333638E-04 -9.99224770E-03 -5.52550963E-04 -1.47441759E-09  8.20151725E-05
  3.05721750E-04  3.00066384E-03  4.53740584E-05  1.03550829E-04 -6.67481981E-05
 -1.45472249E-04 -8.52278189E-06  8.94922140E-05 -3.79982795E-05  8.76218696E-04
  8.33511564E-04  6.44693311E-04  6.93064121E-04  2.32647569E-04 -1.50241702E-04
  9.59148874E-03 -3.44142126E-04  8.41015696E-05  3.20939381E-04 -4.25236337E-03
  3.76667056E-04  1.49699270E-03 -2.87703019E-03  6.30201955E-02 -1.31302337E-03
  5.47476315E-04  2.07013126E-03  1.02735255E-02 -2.48352251E-03 -9.48959197E-03
 -2.58378844E-03  5.42954674E-02 -1.56455579E-03 -5.43783964E-04 -1.99217525E-03
  1.28285918E-02  1.78806358E-03  6.37904208E-03 -6.82461302E-04 -1.48689832E-02
 -6.44522774E-04 -1.26110114E-04 -4.56034315E-04  4.81876844E-03  7.09922929E-04
  2.54083980E-03 -8.11252095E-02  1.54030270E-01  2.16095847E-03  1.08040691E-02
  9.92250931E-02 -2.27894813E-03 -1.06603586E-02  3.60820869E-02 -6.18969068E-03
 -2.38642134E-02 -6.19104922E-03 -2.54724388E-03  3.48737689E-04  1.19883862E-02
 -5.42398198E-04 -8.07257540E-03 -2.25721882E-02 -1.55034009E-03  9.14051517E-03
 -5.95099150E-03  2.43236738E-01  5.02437238E-01  1.39636445E-01 -8.16682109E-02
 -2.10771916E-02  1.55225676E-02  5.83243484E-02  3.60294317E-02 -1.48159694E-02
 -5.60109975E-02  3.99221890E-03 -8.57721037E-03  4.99846575E-03  1.05758370E-02
 -2.16923331E-03 -7.48988076E-03 -5.08176538E-02 -3.39348876E-03  2.42853838E-03
 -1.36109695E-02  1.42215863E-01  2.82589494E-01  5.26094861E-04  2.08849565E-02
  4.96569457E-02 -3.29041003E-02 -1.23731997E-01 -2.32790755E-02 -4.52086515E-04
 -1.17597739E-03  8.78479337E-03 -1.03994189E-02  5.45982340E-03  3.91367232E-03
 -2.73560478E-03 -9.95981186E-04 -4.61515355E-03  2.37766670E-04  2.65574033E-03
 -1.20652673E-03  7.30980826E-02  4.90304794E-03 -1.24922501E-02  2.23272125E-04
  1.10539386E-03 -4.31235975E-03 -3.01364223E-04 -1.02829399E-03  2.15085215E-02
  8.30765318E-03  1.82932150E-03 -1.00204097E-03 -3.77585517E-03  1.31617428E-02
 -2.28852281E-04 -1.13541060E-03  2.18014100E-02  4.31450613E-02  3.27319185E-03
  9.94857391E-04  3.63612140E-03  8.84987642E-03  1.62766891E-03  5.86663956E-03
  1.28141965E-01  1.01646763E-01 -8.89166773E-03 -3.95452305E-03 -1.45451109E-02
 -7.97342658E-03 -6.25935467E-03 -2.31554281E-02  1.55967958E-01 -3.21243997E-01
 -2.50255637E-02  1.57183067E-02 -1.30082152E-01 -6.09767988E-03 -1.98973464E-02
 -3.00482065E-02  7.41139146E-03  2.82877842E-02  6.64522907E-03 -3.13012763E-03
 -6.76420197E-04 -1.37758604E-02 -1.00224415E-03  2.76853433E-02  4.85926506E-03
  1.27495901E-02 -3.95966162E-03  1.27606312E-03 -7.40332625E-02 -1.56400767E-01
 -5.82757304E-02  1.04080208E-01 -2.67050346E-01  4.97805311E-02  1.91388601E-01
  8.52598613E-02 -1.24286031E-02 -4.81947517E-02  6.49593813E-03 -8.55942789E-03
  1.93349110E-03 -4.36187687E-03 -2.34445965E-03 -1.24212725E-02  2.53457599E-02
  1.38940448E-03  2.57229864E-02  7.10348190E-03  1.78117810E-01  3.72703598E-01
  1.51826759E-01 -3.38236327E-02 -3.39357903E-02 -2.81767509E-02 -1.04284107E-01
 -1.48794167E-02  5.97613154E-03  2.26001039E-02  5.73003685E-03 -8.11144489E-04
  3.78479215E-03  3.18616645E-03 -1.74255605E-04  1.10976044E-02 -1.04776553E-02
 -1.22282834E-03 -2.32050476E-02 -3.08542864E-03  1.60478085E-01  3.47676723E-02
 -1.66214599E-02 -7.76450579E-04 -2.53062766E-03  4.24283409E-03 -1.97717810E-03
 -7.46391481E-03 -8.60946563E-02 -7.88609981E-02 -5.34815057E-03  2.48602419E-03
  9.38603266E-03 -2.15857497E-02  5.16504659E-04  2.40647395E-03 -6.07315840E-02
 -3.71664195E-02 -6.09764174E-03 -1.80655254E-03 -6.59963994E-03 -8.35336957E-03
  5.22689259E-04  2.13619577E-03 -8.70026169E-02 -6.97564029E-02  1.07141060E-02
  1.58289956E-03  5.66542570E-03 -3.15104427E-03  4.73181557E-03  1.77041457E-02
  1.40072664E-01 -3.06688916E-01 -9.71400036E-02  5.21796035E-02  2.12543186E-02
  2.60511226E-02  9.66151416E-02 -2.84945178E-02 -2.67702596E-02 -9.91640341E-02
 -2.58290422E-03  8.62586889E-03 -1.47987399E-03 -8.46628715E-04  2.30198796E-03
  7.75420934E-02 -4.41145982E-02  3.19891929E-02 -2.26339897E-02 -1.20535174E-02
  7.08393713E-02  1.53041182E-01  9.32021927E-02 -1.04570445E-01 -2.30124268E-01
 -8.41523012E-02 -3.08621535E-01  8.48273098E-02  2.40144358E-02  8.76461261E-02
  5.51278174E-03  7.16056964E-03  1.75205780E-03 -3.65673358E-03  1.88108012E-03
 -5.96506135E-02 -1.29697948E-01 -2.48404917E-02  2.04383735E-02 -3.45980877E-02
 -7.50521487E-02 -1.64422873E-01 -1.46924045E-01  5.42695373E-02 -5.74940989E-02
 -6.52165116E-03 -2.30483899E-02  5.18317241E-03 -7.92140645E-03 -2.96395471E-02
  8.11970094E-03  6.50487011E-03  2.43654655E-03 -5.78796247E-03  1.68111572E-03
 -1.61471104E-02  4.80075486E-04 -1.22603457E-03  2.37126062E-02  4.05606088E-04
 -2.22204868E-02 -9.19154139E-02  1.99632487E-03  8.32881845E-04  3.06083501E-03
  2.52635395E-02 -5.07625545E-04 -2.44451668E-03 -7.22125319E-02 -6.80552172E-02
 -2.65747782E-03  2.21374518E-03  8.31109034E-03 -5.96847468E-03 -6.29400692E-03
 -2.33038231E-02 -1.70318868E-01 -1.07831732E-01 -7.32690736E-03 -3.06606158E-03
 -1.12659144E-02 -5.01368890E-02  5.57304705E-03  2.18692699E-02  3.49883595E-01
  3.02498906E-01 -1.00175295E-02 -5.69664985E-03 -2.10132563E-02 -2.16169318E-02
 -1.36080968E-02 -5.02492488E-02  1.07800451E-01 -2.07938718E-01  1.34596645E-01
  3.38678768E-02  1.68709847E-01 -3.39830635E-02 -1.30397222E-01  2.01721621E-02
  3.02513583E-02  1.12329595E-01 -8.69923628E-03 -5.12064581E-03 -3.10006588E-03
  4.46087243E-03 -1.32676320E-03  6.01082161E-02  8.54305681E-02  2.55581847E-02
 -1.76686974E-02  2.27490754E-02  8.08472440E-02  1.99432337E-01  1.50340489E-01
  7.20225045E-02  5.04210032E-02  5.94781534E-02  2.20613623E-01 -4.17389230E-02
 -2.34241349E-02 -8.64177471E-02  5.97806551E-03  2.35182822E-03  1.55102505E-03
 -5.04333805E-03  5.73891411E-04  3.69197608E-02  1.36289798E-01 -9.38193669E-04
 -7.03925239E-02  3.57365283E-02 -6.89610272E-02 -1.39558367E-01  3.85678525E-02
 -8.67545125E-02  2.96022341E-01 -1.63301376E-02 -6.73380497E-02 -5.43772024E-02
  2.13511897E-02  8.07663175E-02  6.06295890E-03 -1.86514004E-02  2.18678934E-03
 -2.50016897E-03 -5.03003900E-03  1.87480222E-02  1.82690398E-02  8.01687241E-03
 -5.17169190E-03  4.85313377E-03 -2.77028200E-01  2.20549169E-02  1.89740907E-02
  1.81256679E-03  6.34135667E-03 -2.92856536E-02  3.60249337E-04  1.98154316E-03
 -2.33504095E-01 -1.97888459E-01 -4.36750311E-03  3.61954811E-03  1.35911790E-02
 -7.00845125E-02  3.13717206E-03  1.32232599E-02 -9.04786605E-02 -1.31466310E-01
 -9.93330508E-04 -2.76658069E-03 -1.02900019E-02 -8.40995860E-03  1.58862475E-03
  6.13957297E-03 -9.58418604E-02 -2.64338263E-01  2.81462238E-03  6.80953070E-04
  2.47636532E-03  3.61437754E-02  1.36152202E-02  4.99529063E-02  4.19480302E-02
 -6.95711505E-02  9.20512516E-02  3.15956507E-02  3.53651389E-01  5.51327969E-03
  1.27611959E-02  1.02699928E-01 -3.06962990E-03 -1.36980433E-02 -1.45686929E-02
 -2.30095747E-03 -3.36418043E-03  1.36494063E-02 -4.62750091E-04  3.86067074E-02
  2.06143197E-02  1.80649590E-02 -4.86475573E-03  5.50037484E-03 -1.94063625E-03
 -7.73851394E-04 -3.69960540E-02 -7.95914234E-02  3.72652375E-01 -2.24510524E-02
 -9.17753427E-02 -1.07215031E-01  1.39959800E-02  5.44766442E-02 -7.68810618E-03
 -2.38378780E-03 -2.99138713E-03  3.02483158E-03 -6.09388285E-04  1.79427436E-02
  6.72430906E-03  5.98185567E-05 -3.10259850E-02  1.43965612E-03  6.15092696E-02
  1.26699601E-01  9.83834701E-02 -3.68793347E-03 -2.14311643E-01  4.15697475E-02
  1.59656541E-01  4.77166124E-02 -1.53349474E-02 -5.82132123E-02 -1.68689439E-02
  9.62971848E-03 -6.19172746E-03  7.57154556E-03  2.66246926E-03  2.09329143E-03
 -1.36018791E-02 -2.62044149E-03 -1.23708081E-02 -3.79884520E-03  2.19043748E-01